/*--------------------------------*- C++ -*----------------------------------*\
| =========                 |                                                 |
| \\      /  F ield         | OpenFOAM: The Open Source CFD Toolbox           |
|  \\    /   O peration     | Version:  dev                                   |
|   \\  /    A nd           | Web:      www.OpenFOAM.org                      |
|    \\/     M anipulation  |                                                 |
\*---------------------------------------------------------------------------*/
FoamFile
{
    version     2.0;
    format      ascii;
    class       volScalarField;
    location    "56.995";
    object      A;
}
// * * * * * * * * * * * * * * * * * * * * * * * * * * * * * * * * * * * * * //

dimensions      [0 0 0 0 1 0 0];

internalField   nonuniform List<scalar> 
10000
(
2.1812374e-30
2.1772841e-30
2.1754892e-30
2.1747174e-30
2.1744215e-30
2.1743285e-30
2.1743296e-30
2.1744156e-30
2.1746628e-30
2.1752401e-30
2.1772841e-30
2.1733503e-30
2.1715619e-30
2.1707924e-30
2.1704976e-30
2.1704056e-30
2.1704091e-30
2.1705024e-30
2.1707712e-30
2.1714145e-30
2.1754892e-30
2.1715619e-30
2.1697767e-30
2.1690088e-30
2.1687147e-30
2.1686237e-30
2.1686297e-30
2.1687291e-30
2.1690113e-30
2.1696758e-30
2.1747174e-30
2.1707924e-30
2.1690088e-30
2.1682416e-30
2.167948e-30
2.1678577e-30
2.1678651e-30
2.1679679e-30
2.1682562e-30
2.1689277e-30
2.1744215e-30
2.1704976e-30
2.1687147e-30
2.167948e-30
2.1676547e-30
2.1675647e-30
2.1675729e-30
2.1676771e-30
2.1679677e-30
2.1686415e-30
2.1743285e-30
2.1704056e-30
2.1686237e-30
2.1678577e-30
2.1675647e-30
2.167475e-30
2.1674835e-30
2.1675883e-30
2.1678797e-30
2.1685542e-30
2.1743296e-30
2.1704091e-30
2.1686297e-30
2.1678651e-30
2.1675729e-30
2.1674835e-30
2.1674922e-30
2.1675972e-30
2.1678889e-30
2.1685636e-30
2.1744156e-30
2.1705024e-30
2.1687291e-30
2.1679679e-30
2.1676771e-30
2.1675883e-30
2.1675972e-30
2.1677023e-30
2.1679942e-30
2.1686691e-30
2.1746628e-30
2.1707712e-30
2.1690113e-30
2.1682562e-30
2.1679677e-30
2.1678797e-30
2.1678889e-30
2.1679942e-30
2.1682863e-30
2.1689619e-30
2.1752401e-30
2.1714145e-30
2.1696758e-30
2.1689277e-30
2.1686415e-30
2.1685542e-30
2.1685636e-30
2.1686691e-30
2.1689619e-30
2.1696394e-30
7.6916881e-30
7.6782625e-30
7.6720134e-30
7.6693207e-30
7.6682875e-30
7.6679627e-30
7.6679661e-30
7.668265e-30
7.6691253e-30
7.6712139e-30
7.6782625e-30
7.6649013e-30
7.6586744e-30
7.6559899e-30
7.6549604e-30
7.654639e-30
7.6546509e-30
7.6549753e-30
7.6559117e-30
7.6582339e-30
7.6720134e-30
7.6586744e-30
7.6524589e-30
7.6497796e-30
7.6487528e-30
7.6484349e-30
7.6484554e-30
7.6488012e-30
7.6497848e-30
7.6521818e-30
7.6693207e-30
7.6559899e-30
7.6497796e-30
7.647103e-30
7.6460779e-30
7.6457623e-30
7.645788e-30
7.6461456e-30
7.6471505e-30
7.6495721e-30
7.6682875e-30
7.6549604e-30
7.6487528e-30
7.6460779e-30
7.6450538e-30
7.6447395e-30
7.6447677e-30
7.6451305e-30
7.6461436e-30
7.6485732e-30
7.6679627e-30
7.654639e-30
7.6484349e-30
7.6457623e-30
7.6447395e-30
7.644426e-30
7.6444554e-30
7.6448201e-30
7.645836e-30
7.648268e-30
7.6679661e-30
7.6546509e-30
7.6484554e-30
7.645788e-30
7.6447677e-30
7.6444554e-30
7.6444854e-30
7.6448509e-30
7.6458678e-30
7.6483006e-30
7.668265e-30
7.6549753e-30
7.6488012e-30
7.6461456e-30
7.6451305e-30
7.6448201e-30
7.6448509e-30
7.6452169e-30
7.6462344e-30
7.648668e-30
7.6691253e-30
7.6559117e-30
7.6497848e-30
7.6471505e-30
7.6461436e-30
7.645836e-30
7.6458678e-30
7.6462344e-30
7.6472529e-30
7.6496885e-30
7.6712139e-30
7.6582339e-30
7.6521818e-30
7.6495721e-30
7.6485732e-30
7.648268e-30
7.6483006e-30
7.648668e-30
7.6496885e-30
7.6521315e-30
1.7378258e-29
1.7348894e-29
1.7335073e-29
1.7329103e-29
1.732681e-29
1.7326088e-29
1.7326094e-29
1.7326752e-29
1.7328645e-29
1.7333381e-29
1.7348894e-29
1.7319668e-29
1.7305895e-29
1.7299943e-29
1.7297658e-29
1.7296944e-29
1.7296969e-29
1.7297684e-29
1.7299749e-29
1.7305011e-29
1.7335073e-29
1.7305895e-29
1.7292148e-29
1.7286207e-29
1.7283928e-29
1.7283222e-29
1.7283266e-29
1.7284029e-29
1.72862e-29
1.729163e-29
1.7329103e-29
1.7299943e-29
1.7286207e-29
1.7280273e-29
1.7277997e-29
1.7277296e-29
1.7277352e-29
1.7278142e-29
1.728036e-29
1.7285846e-29
1.732681e-29
1.7297658e-29
1.7283928e-29
1.7277997e-29
1.7275725e-29
1.7275026e-29
1.7275088e-29
1.7275889e-29
1.7278126e-29
1.7283629e-29
1.7326088e-29
1.7296944e-29
1.7283222e-29
1.7277296e-29
1.7275026e-29
1.727433e-29
1.7274394e-29
1.7275199e-29
1.7277443e-29
1.7282952e-29
1.7326094e-29
1.7296969e-29
1.7283266e-29
1.7277352e-29
1.7275088e-29
1.7274394e-29
1.7274459e-29
1.7275267e-29
1.7277512e-29
1.7283023e-29
1.7326752e-29
1.7297684e-29
1.7284029e-29
1.7278142e-29
1.7275889e-29
1.7275199e-29
1.7275267e-29
1.7276075e-29
1.7278322e-29
1.7283834e-29
1.7328645e-29
1.7299749e-29
1.72862e-29
1.728036e-29
1.7278126e-29
1.7277443e-29
1.7277512e-29
1.7278322e-29
1.7280571e-29
1.7286088e-29
1.7333381e-29
1.7305011e-29
1.729163e-29
1.7285846e-29
1.7283629e-29
1.7282952e-29
1.7283023e-29
1.7283834e-29
1.7286088e-29
1.7291622e-29
3.6794162e-29
3.6733959e-29
3.6705446e-29
3.6693101e-29
3.6688353e-29
3.6686856e-29
3.6686864e-29
3.668821e-29
3.6692078e-29
3.6701806e-29
3.6733959e-29
3.6674037e-29
3.6645621e-29
3.6633313e-29
3.6628581e-29
3.66271e-29
3.6627148e-29
3.6628615e-29
3.6632844e-29
3.6643682e-29
3.6705446e-29
3.6645621e-29
3.6617257e-29
3.6604972e-29
3.6600253e-29
3.6598789e-29
3.6598877e-29
3.6600445e-29
3.6604897e-29
3.661609e-29
3.6693101e-29
3.6633313e-29
3.6604972e-29
3.6592699e-29
3.6587988e-29
3.6586534e-29
3.6586647e-29
3.6588271e-29
3.6592823e-29
3.6604133e-29
3.6688353e-29
3.6628581e-29
3.6600253e-29
3.6587988e-29
3.6583281e-29
3.6581834e-29
3.6581958e-29
3.6583606e-29
3.6588198e-29
3.6599545e-29
3.6686856e-29
3.66271e-29
3.6598789e-29
3.6586534e-29
3.6581834e-29
3.658039e-29
3.658052e-29
3.6582177e-29
3.6586782e-29
3.6598141e-29
3.6686864e-29
3.6627148e-29
3.6598877e-29
3.6586647e-29
3.6581958e-29
3.658052e-29
3.6580653e-29
3.6582314e-29
3.6586923e-29
3.6598286e-29
3.668821e-29
3.6628615e-29
3.6600445e-29
3.6588271e-29
3.6583606e-29
3.6582177e-29
3.6582314e-29
3.6583977e-29
3.6588589e-29
3.6599955e-29
3.6692078e-29
3.6632844e-29
3.6604897e-29
3.6592823e-29
3.6588198e-29
3.6586782e-29
3.6586923e-29
3.6588589e-29
3.6593206e-29
3.6604581e-29
3.6701806e-29
3.6643682e-29
3.661609e-29
3.6604133e-29
3.6599545e-29
3.6598141e-29
3.6598286e-29
3.6599955e-29
3.6604581e-29
3.6615991e-29
7.752855e-29
7.7405749e-29
7.7347332e-29
7.7321983e-29
7.731222e-29
7.7309138e-29
7.7309145e-29
7.7311878e-29
7.7319704e-29
7.7339306e-29
7.7405749e-29
7.7283516e-29
7.7225296e-29
7.720002e-29
7.719029e-29
7.7187242e-29
7.7187332e-29
7.7190317e-29
7.71989e-29
7.7220829e-29
7.7347332e-29
7.7225296e-29
7.716718e-29
7.7141952e-29
7.7132248e-29
7.7129233e-29
7.7129407e-29
7.7132605e-29
7.7141653e-29
7.7164326e-29
7.7321983e-29
7.720002e-29
7.7141952e-29
7.7116749e-29
7.7107061e-29
7.7104068e-29
7.7104294e-29
7.7107608e-29
7.7116867e-29
7.7139784e-29
7.731222e-29
7.719029e-29
7.7132248e-29
7.7107061e-29
7.7097382e-29
7.7094402e-29
7.7094653e-29
7.7098018e-29
7.7107358e-29
7.7130353e-29
7.7309138e-29
7.7187242e-29
7.7129233e-29
7.7104068e-29
7.7094402e-29
7.7091431e-29
7.7091693e-29
7.7095077e-29
7.7104444e-29
7.7127464e-29
7.7309145e-29
7.7187332e-29
7.7129407e-29
7.7104294e-29
7.7094653e-29
7.7091693e-29
7.7091961e-29
7.7095353e-29
7.710473e-29
7.7127758e-29
7.7311878e-29
7.7190317e-29
7.7132605e-29
7.7107608e-29
7.7098018e-29
7.7095077e-29
7.7095353e-29
7.7098749e-29
7.7108132e-29
7.7131167e-29
7.7319704e-29
7.71989e-29
7.7141653e-29
7.7116867e-29
7.7107358e-29
7.7104444e-29
7.710473e-29
7.7108132e-29
7.7117524e-29
7.7140577e-29
7.7339306e-29
7.7220829e-29
7.7164326e-29
7.7139784e-29
7.7130353e-29
7.7127464e-29
7.7127758e-29
7.7131167e-29
7.7140577e-29
7.7163701e-29
1.6476085e-28
1.6450832e-28
1.6438773e-28
1.6433529e-28
1.6431506e-28
1.6430867e-28
1.6430866e-28
1.6431426e-28
1.6433019e-28
1.6436981e-28
1.6450832e-28
1.6425694e-28
1.6413675e-28
1.6408446e-28
1.640643e-28
1.6405798e-28
1.6405815e-28
1.6406427e-28
1.640818e-28
1.6412634e-28
1.6438773e-28
1.6413675e-28
1.6401678e-28
1.6396458e-28
1.6394448e-28
1.6393823e-28
1.6393857e-28
1.6394514e-28
1.6396366e-28
1.6400977e-28
1.6433529e-28
1.6408446e-28
1.6396458e-28
1.6391244e-28
1.6389237e-28
1.6388616e-28
1.6388662e-28
1.6389343e-28
1.6391239e-28
1.6395902e-28
1.6431506e-28
1.640643e-28
1.6394448e-28
1.6389237e-28
1.6387232e-28
1.6386614e-28
1.6386665e-28
1.6387357e-28
1.638927e-28
1.6393949e-28
1.6430867e-28
1.6405798e-28
1.6393823e-28
1.6388616e-28
1.6386614e-28
1.6385998e-28
1.6386051e-28
1.6386747e-28
1.6388666e-28
1.639335e-28
1.6430866e-28
1.6405815e-28
1.6393857e-28
1.6388662e-28
1.6386665e-28
1.6386051e-28
1.6386105e-28
1.6386803e-28
1.6388724e-28
1.639341e-28
1.6431426e-28
1.6406427e-28
1.6394514e-28
1.6389343e-28
1.6387357e-28
1.6386747e-28
1.6386803e-28
1.6387502e-28
1.6389424e-28
1.6394111e-28
1.6433019e-28
1.640818e-28
1.6396366e-28
1.6391239e-28
1.638927e-28
1.6388666e-28
1.6388724e-28
1.6389424e-28
1.6391348e-28
1.6396039e-28
1.6436981e-28
1.6412634e-28
1.6400977e-28
1.6395902e-28
1.6393949e-28
1.639335e-28
1.639341e-28
1.6394111e-28
1.6396039e-28
1.6400745e-28
3.5425467e-28
3.5372946e-28
3.5347777e-28
3.5336809e-28
3.5332573e-28
3.5331232e-28
3.5331227e-28
3.5332383e-28
3.5335663e-28
3.534375e-28
3.5372946e-28
3.5320664e-28
3.5295577e-28
3.5284639e-28
3.5280417e-28
3.5279091e-28
3.5279124e-28
3.5280393e-28
3.5284014e-28
3.5293153e-28
3.5347777e-28
3.5295577e-28
3.5270535e-28
3.5259617e-28
3.5255406e-28
3.5254095e-28
3.5254165e-28
3.525553e-28
3.525936e-28
3.5268835e-28
3.5336809e-28
3.5284639e-28
3.5259617e-28
3.524871e-28
3.5244506e-28
3.5243205e-28
3.5243298e-28
3.5244715e-28
3.524864e-28
3.5258225e-28
3.5332573e-28
3.5280417e-28
3.5255406e-28
3.5244506e-28
3.5240307e-28
3.5239011e-28
3.5239115e-28
3.5240555e-28
3.5244517e-28
3.5254137e-28
3.5331232e-28
3.5279091e-28
3.5254095e-28
3.5243205e-28
3.5239011e-28
3.5237719e-28
3.5237828e-28
3.5239277e-28
3.524325e-28
3.5252882e-28
3.5331227e-28
3.5279124e-28
3.5254165e-28
3.5243298e-28
3.5239115e-28
3.5237828e-28
3.5237941e-28
3.5239393e-28
3.524337e-28
3.5253005e-28
3.5332383e-28
3.5280393e-28
3.525553e-28
3.5244715e-28
3.5240555e-28
3.5239277e-28
3.5239393e-28
3.5240847e-28
3.5244827e-28
3.5254465e-28
3.5335663e-28
3.5284014e-28
3.525936e-28
3.524864e-28
3.5244517e-28
3.524325e-28
3.524337e-28
3.5244827e-28
3.5248811e-28
3.5258456e-28
3.534375e-28
3.5293153e-28
3.5268835e-28
3.5258225e-28
3.5254137e-28
3.5252882e-28
3.5253005e-28
3.5254465e-28
3.5258456e-28
3.526813e-28
7.7122292e-28
7.7011744e-28
7.6958582e-28
7.6935366e-28
7.6926389e-28
7.6923542e-28
7.6923523e-28
7.6925944e-28
7.6932776e-28
7.6949477e-28
7.7011744e-28
7.6901691e-28
7.6848701e-28
7.6825549e-28
7.68166e-28
7.6813786e-28
7.6813848e-28
7.6816513e-28
7.6824082e-28
7.6843058e-28
7.6958582e-28
7.6848701e-28
7.6795803e-28
7.6772693e-28
7.6763768e-28
7.6760985e-28
7.6761128e-28
7.6764e-28
7.6772021e-28
7.6791722e-28
7.6935366e-28
7.6825549e-28
7.6772693e-28
7.6749606e-28
7.6740695e-28
7.6737934e-28
7.6738127e-28
7.6741111e-28
7.6749336e-28
7.6769275e-28
7.6926389e-28
7.68166e-28
7.6763768e-28
7.6740695e-28
7.6731795e-28
7.6729045e-28
7.6729262e-28
7.6732295e-28
7.6740598e-28
7.6760614e-28
7.6923542e-28
7.6813786e-28
7.6760985e-28
7.6737934e-28
7.6729045e-28
7.6726304e-28
7.6726532e-28
7.6729583e-28
7.6737913e-28
7.6757953e-28
7.6923523e-28
7.6813848e-28
7.6761128e-28
7.6738127e-28
7.6729262e-28
7.6726532e-28
7.6726766e-28
7.6729824e-28
7.6738164e-28
7.6758211e-28
7.6925944e-28
7.6816513e-28
7.6764e-28
7.6741111e-28
7.6732295e-28
7.6729583e-28
7.6729824e-28
7.6732887e-28
7.6741232e-28
7.6761285e-28
7.6932776e-28
7.6824082e-28
7.6772021e-28
7.6749336e-28
7.6740598e-28
7.6737913e-28
7.6738164e-28
7.6741232e-28
7.6749585e-28
7.6769653e-28
7.6949477e-28
7.6843058e-28
7.6791722e-28
7.6769275e-28
7.6760614e-28
7.6757953e-28
7.6758211e-28
7.6761285e-28
7.6769653e-28
7.6789781e-28
1.7003764e-27
1.6980209e-27
1.6968842e-27
1.6963868e-27
1.6961942e-27
1.6961331e-27
1.6961325e-27
1.6961838e-27
1.6963279e-27
1.6966771e-27
1.6980209e-27
1.6956758e-27
1.6945428e-27
1.6940467e-27
1.6938548e-27
1.6937943e-27
1.6937955e-27
1.6938521e-27
1.6940123e-27
1.6944113e-27
1.6968842e-27
1.6945428e-27
1.6934117e-27
1.6929166e-27
1.6927251e-27
1.6926653e-27
1.6926683e-27
1.6927294e-27
1.6928995e-27
1.6933143e-27
1.6963868e-27
1.6940467e-27
1.6929166e-27
1.6924219e-27
1.6922307e-27
1.6921714e-27
1.6921755e-27
1.6922391e-27
1.6924136e-27
1.6928337e-27
1.6961942e-27
1.6938548e-27
1.6927251e-27
1.6922307e-27
1.6920398e-27
1.6919807e-27
1.6919853e-27
1.69205e-27
1.6922262e-27
1.6926479e-27
1.6961331e-27
1.6937943e-27
1.6926653e-27
1.6921714e-27
1.6919807e-27
1.6919219e-27
1.6919267e-27
1.6919918e-27
1.6921686e-27
1.6925908e-27
1.6961325e-27
1.6937955e-27
1.6926683e-27
1.6921755e-27
1.6919853e-27
1.6919267e-27
1.6919316e-27
1.6919969e-27
1.6921739e-27
1.6925963e-27
1.6961838e-27
1.6938521e-27
1.6927294e-27
1.6922391e-27
1.69205e-27
1.6919918e-27
1.6919969e-27
1.6920622e-27
1.6922394e-27
1.6926619e-27
1.6963279e-27
1.6940123e-27
1.6928995e-27
1.6924136e-27
1.6922262e-27
1.6921686e-27
1.6921739e-27
1.6922394e-27
1.6924167e-27
1.6928395e-27
1.6966771e-27
1.6944113e-27
1.6933143e-27
1.6928337e-27
1.6926479e-27
1.6925908e-27
1.6925963e-27
1.6926619e-27
1.6928395e-27
1.6932636e-27
3.7971208e-27
3.7920396e-27
3.7895795e-27
3.7885007e-27
3.7880825e-27
3.7879495e-27
3.7879479e-27
3.7880581e-27
3.7883658e-27
3.7891048e-27
3.7920396e-27
3.7869807e-27
3.7845283e-27
3.7834524e-27
3.7830355e-27
3.782904e-27
3.7829064e-27
3.7830283e-27
3.7833717e-27
3.7842211e-27
3.7895795e-27
3.7845283e-27
3.78208e-27
3.781006e-27
3.7805902e-27
3.7804603e-27
3.7804665e-27
3.7805984e-27
3.7809636e-27
3.7818482e-27
3.7885007e-27
3.7834524e-27
3.781006e-27
3.7799331e-27
3.779518e-27
3.7793891e-27
3.7793977e-27
3.779535e-27
3.7799101e-27
3.7808062e-27
3.7880825e-27
3.7830355e-27
3.7805902e-27
3.779518e-27
3.7791033e-27
3.7789749e-27
3.7789847e-27
3.7791244e-27
3.7795033e-27
3.7804031e-27
3.7879495e-27
3.782904e-27
3.7804603e-27
3.7793891e-27
3.7789749e-27
3.778847e-27
3.7788573e-27
3.7789979e-27
3.7793781e-27
3.780279e-27
3.7879479e-27
3.7829064e-27
3.7804665e-27
3.7793977e-27
3.7789847e-27
3.7788573e-27
3.7788679e-27
3.7790088e-27
3.7793895e-27
3.7802908e-27
3.7880581e-27
3.7830283e-27
3.7805984e-27
3.779535e-27
3.7791244e-27
3.7789979e-27
3.7790088e-27
3.77915e-27
3.7795308e-27
3.7804324e-27
3.7883658e-27
3.7833717e-27
3.7809636e-27
3.7799101e-27
3.7795033e-27
3.7793781e-27
3.7793895e-27
3.7795308e-27
3.7799121e-27
3.7808143e-27
3.7891048e-27
3.7842211e-27
3.7818482e-27
3.7808062e-27
3.7804031e-27
3.780279e-27
3.7802908e-27
3.7804324e-27
3.7808143e-27
3.7817191e-27
8.5888904e-27
8.577793e-27
8.5724021e-27
8.5700336e-27
8.5691141e-27
8.5688214e-27
8.5688172e-27
8.5690566e-27
8.5697221e-27
8.5713059e-27
8.577793e-27
8.5667439e-27
8.5613696e-27
8.5590073e-27
8.5580907e-27
8.5578013e-27
8.5578059e-27
8.5580717e-27
8.5588172e-27
8.5606488e-27
8.5724021e-27
8.5613696e-27
8.5560044e-27
8.5536462e-27
8.552732e-27
8.5524461e-27
8.5524594e-27
8.5527475e-27
8.5535419e-27
8.5554523e-27
8.5700336e-27
8.5590073e-27
8.5536462e-27
8.5512903e-27
8.5503776e-27
8.550094e-27
8.5501126e-27
8.5504129e-27
8.5512294e-27
8.5531656e-27
8.5691141e-27
8.5580907e-27
8.552732e-27
8.5503776e-27
8.5494659e-27
8.5491836e-27
8.5492048e-27
8.5495104e-27
8.5503353e-27
8.5522799e-27
8.5688214e-27
8.5578013e-27
8.5524461e-27
8.550094e-27
8.5491836e-27
8.5489021e-27
8.5489245e-27
8.549232e-27
8.5500599e-27
8.552007e-27
8.5688172e-27
8.5578059e-27
8.5524594e-27
8.5501126e-27
8.5492048e-27
8.5489245e-27
8.5489476e-27
8.5492559e-27
8.5500848e-27
8.5520326e-27
8.5690566e-27
8.5580717e-27
8.5527475e-27
8.5504129e-27
8.5495104e-27
8.549232e-27
8.5492559e-27
8.5495647e-27
8.5503941e-27
8.5523425e-27
8.5697221e-27
8.5588172e-27
8.5535419e-27
8.5512294e-27
8.5503353e-27
8.5500599e-27
8.5500848e-27
8.5503941e-27
8.5512242e-27
8.5531742e-27
8.5713059e-27
8.5606488e-27
8.5554523e-27
8.5531656e-27
8.5522799e-27
8.552007e-27
8.5520326e-27
8.5523425e-27
8.5531742e-27
8.5551296e-27
1.9679593e-26
1.9655054e-26
1.9643094e-26
1.9637829e-26
1.9635783e-26
1.9635131e-26
1.963512e-26
1.9635647e-26
1.9637105e-26
1.9640542e-26
1.9655054e-26
1.963062e-26
1.9618697e-26
1.9613446e-26
1.9611405e-26
1.9610761e-26
1.961077e-26
1.9611357e-26
1.9612996e-26
1.9616996e-26
1.9643094e-26
1.9618697e-26
1.9606793e-26
1.9601551e-26
1.9599516e-26
1.9598879e-26
1.9598908e-26
1.9599546e-26
1.9601296e-26
1.9605475e-26
1.9637829e-26
1.9613446e-26
1.9601551e-26
1.9596314e-26
1.9594282e-26
1.9593651e-26
1.9593692e-26
1.9594357e-26
1.9596157e-26
1.9600395e-26
1.9635783e-26
1.9611405e-26
1.9599516e-26
1.9594282e-26
1.9592253e-26
1.9591624e-26
1.9591671e-26
1.9592348e-26
1.9594168e-26
1.9598424e-26
1.9635131e-26
1.9610761e-26
1.9598879e-26
1.9593651e-26
1.9591624e-26
1.9590997e-26
1.9591047e-26
1.9591728e-26
1.9593554e-26
1.9597817e-26
1.963512e-26
1.961077e-26
1.9598908e-26
1.9593692e-26
1.9591671e-26
1.9591047e-26
1.9591098e-26
1.9591781e-26
1.9593609e-26
1.9597874e-26
1.9635647e-26
1.9611357e-26
1.9599546e-26
1.9594357e-26
1.9592348e-26
1.9591728e-26
1.9591781e-26
1.9592465e-26
1.9594295e-26
1.959856e-26
1.9637105e-26
1.9612996e-26
1.9601296e-26
1.9596157e-26
1.9594168e-26
1.9593554e-26
1.9593609e-26
1.9594295e-26
1.9596126e-26
1.9600395e-26
1.9640542e-26
1.9616996e-26
1.9605475e-26
1.9600395e-26
1.9598424e-26
1.9597817e-26
1.9597874e-26
1.959856e-26
1.9600395e-26
1.9604675e-26
4.5678349e-26
4.5623407e-26
4.5596543e-26
4.5584694e-26
4.5580083e-26
4.5578612e-26
4.5578584e-26
4.5579759e-26
4.5582993e-26
4.5590549e-26
4.5623407e-26
4.5568699e-26
4.5541916e-26
4.5530097e-26
4.55255e-26
4.5524046e-26
4.5524064e-26
4.5525376e-26
4.5529027e-26
4.5537877e-26
4.5596543e-26
4.5541916e-26
4.5515177e-26
4.5503378e-26
4.5498793e-26
4.5497356e-26
4.549742e-26
4.5498849e-26
4.5502754e-26
4.5512015e-26
4.5584694e-26
4.5530097e-26
4.5503378e-26
4.5491591e-26
4.5487013e-26
4.5485589e-26
4.548568e-26
4.5487172e-26
4.5491192e-26
4.5500588e-26
4.5580083e-26
4.55255e-26
4.5498793e-26
4.5487013e-26
4.5482441e-26
4.5481023e-26
4.5481128e-26
4.5482647e-26
4.5486712e-26
4.5496151e-26
4.5578612e-26
4.5524046e-26
4.5497356e-26
4.5485589e-26
4.5481023e-26
4.5479609e-26
4.547972e-26
4.548125e-26
4.5485329e-26
4.5494782e-26
4.5578584e-26
4.5524064e-26
4.549742e-26
4.548568e-26
4.5481128e-26
4.547972e-26
4.5479834e-26
4.5481368e-26
4.5485453e-26
4.549491e-26
4.5579759e-26
4.5525376e-26
4.5498849e-26
4.5487172e-26
4.5482647e-26
4.548125e-26
4.5481368e-26
4.5482904e-26
4.5486991e-26
4.5496451e-26
4.5582993e-26
4.5529027e-26
4.5502754e-26
4.5491192e-26
4.5486712e-26
4.5485329e-26
4.5485453e-26
4.5486991e-26
4.5491083e-26
4.5500549e-26
4.5590549e-26
4.5537877e-26
4.5512015e-26
4.5500588e-26
4.5496151e-26
4.5494782e-26
4.549491e-26
4.5496451e-26
4.5500549e-26
4.5510042e-26
1.0740747e-25
1.0728291e-25
1.0722182e-25
1.0719482e-25
1.071843e-25
1.0718094e-25
1.0718087e-25
1.0718353e-25
1.0719079e-25
1.0720761e-25
1.0728291e-25
1.0715889e-25
1.0709797e-25
1.0707104e-25
1.0706055e-25
1.0705723e-25
1.0705727e-25
1.0706025e-25
1.0706848e-25
1.0708831e-25
1.0722182e-25
1.0709797e-25
1.0703716e-25
1.0701027e-25
1.0699981e-25
1.0699653e-25
1.0699668e-25
1.0699992e-25
1.0700875e-25
1.0702954e-25
1.0719482e-25
1.0707104e-25
1.0701027e-25
1.0698342e-25
1.0697297e-25
1.0696972e-25
1.0696993e-25
1.0697332e-25
1.0698241e-25
1.0700352e-25
1.071843e-25
1.0706055e-25
1.0699981e-25
1.0697297e-25
1.0696254e-25
1.069593e-25
1.0695954e-25
1.06963e-25
1.0697219e-25
1.069934e-25
1.0718094e-25
1.0705723e-25
1.0699653e-25
1.0696972e-25
1.069593e-25
1.0695608e-25
1.0695633e-25
1.0695981e-25
1.0696904e-25
1.0699028e-25
1.0718087e-25
1.0705727e-25
1.0699668e-25
1.0696993e-25
1.0695954e-25
1.0695633e-25
1.0695659e-25
1.0696008e-25
1.0696932e-25
1.0699057e-25
1.0718353e-25
1.0706025e-25
1.0699992e-25
1.0697332e-25
1.06963e-25
1.0695981e-25
1.0696008e-25
1.0696357e-25
1.0697282e-25
1.0699407e-25
1.0719079e-25
1.0706848e-25
1.0700875e-25
1.0698241e-25
1.0697219e-25
1.0696904e-25
1.0696932e-25
1.0697282e-25
1.0698208e-25
1.0700335e-25
1.0720761e-25
1.0708831e-25
1.0702954e-25
1.0700352e-25
1.069934e-25
1.0699028e-25
1.0699057e-25
1.0699407e-25
1.0700335e-25
1.0702467e-25
2.5585774e-25
2.5557184e-25
2.5543117e-25
2.5536888e-25
2.5534459e-25
2.5533682e-25
2.5533664e-25
2.5534272e-25
2.5535925e-25
2.5539717e-25
2.5557184e-25
2.5528713e-25
2.5514686e-25
2.5508474e-25
2.5506051e-25
2.5505284e-25
2.5505291e-25
2.5505974e-25
2.5507856e-25
2.5512359e-25
2.5543117e-25
2.5514686e-25
2.5500683e-25
2.549448e-25
2.5492064e-25
2.5491306e-25
2.5491338e-25
2.5492084e-25
2.5494106e-25
2.5498834e-25
2.5536888e-25
2.5508474e-25
2.549448e-25
2.5488284e-25
2.5485872e-25
2.548512e-25
2.5485168e-25
2.5485948e-25
2.5488033e-25
2.5492835e-25
2.5534459e-25
2.5506051e-25
2.5492064e-25
2.5485872e-25
2.5483463e-25
2.5482715e-25
2.5482769e-25
2.5483565e-25
2.5485674e-25
2.5490499e-25
2.5533682e-25
2.5505284e-25
2.5491306e-25
2.548512e-25
2.5482715e-25
2.5481969e-25
2.5482027e-25
2.5482828e-25
2.5484945e-25
2.5489778e-25
2.5533664e-25
2.5505291e-25
2.5491338e-25
2.5485168e-25
2.5482769e-25
2.5482027e-25
2.5482087e-25
2.548289e-25
2.548501e-25
2.5489845e-25
2.5534272e-25
2.5505974e-25
2.5492084e-25
2.5485948e-25
2.5483565e-25
2.5482828e-25
2.548289e-25
2.5483695e-25
2.5485816e-25
2.5490653e-25
2.5535925e-25
2.5507856e-25
2.5494106e-25
2.5488033e-25
2.5485674e-25
2.5484945e-25
2.548501e-25
2.5485816e-25
2.5487939e-25
2.5492779e-25
2.5539717e-25
2.5512359e-25
2.5498834e-25
2.5492835e-25
2.5490499e-25
2.5489778e-25
2.5489845e-25
2.5490653e-25
2.5492779e-25
2.5497632e-25
6.1745913e-25
6.1679463e-25
6.1646668e-25
6.1632121e-25
6.162644e-25
6.1624622e-25
6.1624578e-25
6.1625985e-25
6.1629797e-25
6.1638456e-25
6.1679463e-25
6.1613288e-25
6.1580587e-25
6.1566075e-25
6.1560411e-25
6.1558615e-25
6.155863e-25
6.1560217e-25
6.1564574e-25
6.157493e-25
6.1646668e-25
6.1580587e-25
6.1547938e-25
6.153345e-25
6.1527801e-25
6.1526027e-25
6.1526101e-25
6.1527839e-25
6.1532529e-25
6.1543423e-25
6.1632121e-25
6.1566075e-25
6.153345e-25
6.1518977e-25
6.1513337e-25
6.1511578e-25
6.1511689e-25
6.1513509e-25
6.1518349e-25
6.1529419e-25
6.162644e-25
6.1560411e-25
6.1527801e-25
6.1513337e-25
6.1507704e-25
6.1505953e-25
6.1506081e-25
6.1507937e-25
6.1512834e-25
6.1523961e-25
6.1624622e-25
6.1558615e-25
6.1526027e-25
6.1511578e-25
6.1505953e-25
6.1504209e-25
6.1504345e-25
6.1506214e-25
6.1511131e-25
6.1522275e-25
6.1624578e-25
6.155863e-25
6.1526101e-25
6.1511689e-25
6.1506081e-25
6.1504345e-25
6.1504485e-25
6.150636e-25
6.1511283e-25
6.1522433e-25
6.1625985e-25
6.1560217e-25
6.1527839e-25
6.1513509e-25
6.1507937e-25
6.1506214e-25
6.150636e-25
6.1508237e-25
6.1513164e-25
6.1524317e-25
6.1629797e-25
6.1564574e-25
6.1532529e-25
6.1518349e-25
6.1512834e-25
6.1511131e-25
6.1511283e-25
6.1513164e-25
6.1518095e-25
6.1529256e-25
6.1638456e-25
6.157493e-25
6.1543423e-25
6.1529419e-25
6.1523961e-25
6.1522275e-25
6.1522433e-25
6.1524317e-25
6.1529256e-25
6.1540445e-25
1.5096077e-24
1.508044e-24
1.5072699e-24
1.5069259e-24
1.5067914e-24
1.5067483e-24
1.5067472e-24
1.5067802e-24
1.5068692e-24
1.5070695e-24
1.508044e-24
1.5064866e-24
1.5057147e-24
1.5053715e-24
1.5052375e-24
1.5051949e-24
1.5051952e-24
1.5052326e-24
1.5053348e-24
1.505576e-24
1.5072699e-24
1.5057147e-24
1.504944e-24
1.5046014e-24
1.5044677e-24
1.5044257e-24
1.5044274e-24
1.5044684e-24
1.5045786e-24
1.5048329e-24
1.5069259e-24
1.5053715e-24
1.5046014e-24
1.5042592e-24
1.5041256e-24
1.504084e-24
1.5040866e-24
1.5041296e-24
1.5042434e-24
1.504502e-24
1.5067914e-24
1.5052375e-24
1.5044677e-24
1.5041256e-24
1.5039923e-24
1.5039508e-24
1.5039539e-24
1.5039977e-24
1.5041129e-24
1.5043729e-24
1.5067483e-24
1.5051949e-24
1.5044257e-24
1.504084e-24
1.5039508e-24
1.5039095e-24
1.5039127e-24
1.5039569e-24
1.5040726e-24
1.5043329e-24
1.5067472e-24
1.5051952e-24
1.5044274e-24
1.5040866e-24
1.5039539e-24
1.5039127e-24
1.5039161e-24
1.5039604e-24
1.5040762e-24
1.5043367e-24
1.5067802e-24
1.5052326e-24
1.5044684e-24
1.5041296e-24
1.5039977e-24
1.5039569e-24
1.5039604e-24
1.5040048e-24
1.5041207e-24
1.5043812e-24
1.5068692e-24
1.5053348e-24
1.5045786e-24
1.5042434e-24
1.5041129e-24
1.5040726e-24
1.5040762e-24
1.5041207e-24
1.5042367e-24
1.5044974e-24
1.5070695e-24
1.505576e-24
1.5048329e-24
1.504502e-24
1.5043729e-24
1.5043329e-24
1.5043367e-24
1.5043812e-24
1.5044974e-24
1.5047588e-24
3.7390538e-24
3.7353279e-24
3.733478e-24
3.7326545e-24
3.7323322e-24
3.7322288e-24
3.7322261e-24
3.7323046e-24
3.7325151e-24
3.7329842e-24
3.7353279e-24
3.7316171e-24
3.7297723e-24
3.7289508e-24
3.7286294e-24
3.7285273e-24
3.728528e-24
3.7286172e-24
3.7288599e-24
3.7294294e-24
3.733478e-24
3.7297723e-24
3.7279305e-24
3.7271103e-24
3.7267898e-24
3.726689e-24
3.7266932e-24
3.7267912e-24
3.7270536e-24
3.7276549e-24
3.7326545e-24
3.7289508e-24
3.7271103e-24
3.7262909e-24
3.7259709e-24
3.725871e-24
3.7258773e-24
3.7259803e-24
3.7262515e-24
3.7268632e-24
3.7323322e-24
3.7286294e-24
3.7267898e-24
3.7259709e-24
3.7256513e-24
3.7255519e-24
3.7255593e-24
3.7256643e-24
3.7259389e-24
3.7265539e-24
3.7322288e-24
3.7285273e-24
3.726689e-24
3.725871e-24
3.7255519e-24
3.7254529e-24
3.7254607e-24
3.7255665e-24
3.7258422e-24
3.7264583e-24
3.7322261e-24
3.728528e-24
3.7266932e-24
3.7258773e-24
3.7255593e-24
3.7254607e-24
3.7254687e-24
3.7255748e-24
3.725851e-24
3.7264674e-24
3.7323046e-24
3.7286172e-24
3.7267912e-24
3.7259803e-24
3.7256643e-24
3.7255665e-24
3.7255748e-24
3.7256811e-24
3.7259574e-24
3.7265741e-24
3.7325151e-24
3.7288599e-24
3.7270536e-24
3.7262515e-24
3.7259389e-24
3.7258422e-24
3.725851e-24
3.7259574e-24
3.726234e-24
3.726851e-24
3.7329842e-24
3.7294294e-24
3.7276549e-24
3.7268632e-24
3.7265539e-24
3.7264583e-24
3.7264674e-24
3.7265741e-24
3.726851e-24
3.7274696e-24
9.3819047e-24
9.3729166e-24
9.3684412e-24
9.3664455e-24
9.3656635e-24
9.3654126e-24
9.3654055e-24
9.3655947e-24
9.366099e-24
9.367212e-24
9.3729166e-24
9.3639647e-24
9.3595016e-24
9.3575105e-24
9.3567308e-24
9.3564829e-24
9.3564845e-24
9.3567e-24
9.3572841e-24
9.3586458e-24
9.3684412e-24
9.3595016e-24
9.3550454e-24
9.3530575e-24
9.3522798e-24
9.3520353e-24
9.3520454e-24
9.3522829e-24
9.3529156e-24
9.3543561e-24
9.3664455e-24
9.3575105e-24
9.3530575e-24
9.3510716e-24
9.3502952e-24
9.3500528e-24
9.3500682e-24
9.3503177e-24
9.3509722e-24
9.3524385e-24
9.3656635e-24
9.3567308e-24
9.3522798e-24
9.3502952e-24
9.3495198e-24
9.3492786e-24
9.3492966e-24
9.3495512e-24
9.3502142e-24
9.3516887e-24
9.3654126e-24
9.3564829e-24
9.3520353e-24
9.3500528e-24
9.3492786e-24
9.3490383e-24
9.3490574e-24
9.349314e-24
9.3499798e-24
9.3514569e-24
9.3654055e-24
9.3564845e-24
9.3520454e-24
9.3500682e-24
9.3492966e-24
9.3490574e-24
9.3490771e-24
9.3493345e-24
9.3500012e-24
9.3514792e-24
9.3655947e-24
9.3567e-24
9.3522829e-24
9.3503177e-24
9.3495512e-24
9.349314e-24
9.3493345e-24
9.3495923e-24
9.3502595e-24
9.3517379e-24
9.366099e-24
9.3572841e-24
9.3529156e-24
9.3509722e-24
9.3502142e-24
9.3499798e-24
9.3500012e-24
9.3502595e-24
9.3509273e-24
9.3524067e-24
9.367212e-24
9.3586458e-24
9.3543561e-24
9.3524385e-24
9.3516887e-24
9.3514569e-24
9.3514792e-24
9.3517379e-24
9.3524067e-24
9.3538896e-24
2.3847134e-23
2.3825184e-23
2.3814223e-23
2.3809327e-23
2.3807407e-23
2.380679e-23
2.3806772e-23
2.3807233e-23
2.3808457e-23
2.3811132e-23
2.3825184e-23
2.3803321e-23
2.379239e-23
2.3787505e-23
2.378559e-23
2.3784981e-23
2.3784985e-23
2.3785512e-23
2.3786936e-23
2.3790234e-23
2.3814223e-23
2.379239e-23
2.3781476e-23
2.3776599e-23
2.3774689e-23
2.3774088e-23
2.3774113e-23
2.3774695e-23
2.3776241e-23
2.3779737e-23
2.3809327e-23
2.3787505e-23
2.3776599e-23
2.3771726e-23
2.376982e-23
2.3769224e-23
2.3769262e-23
2.3769875e-23
2.3771475e-23
2.3775036e-23
2.3807407e-23
2.378559e-23
2.3774689e-23
2.376982e-23
2.3767915e-23
2.3767323e-23
2.3767367e-23
2.3767993e-23
2.3769614e-23
2.3773196e-23
2.380679e-23
2.3784981e-23
2.3774088e-23
2.3769224e-23
2.3767323e-23
2.3766733e-23
2.376678e-23
2.376741e-23
2.3769039e-23
2.3772627e-23
2.3806772e-23
2.3784985e-23
2.3774113e-23
2.3769262e-23
2.3767367e-23
2.376678e-23
2.3766829e-23
2.3767462e-23
2.3769092e-23
2.3772682e-23
2.3807233e-23
2.3785512e-23
2.3774695e-23
2.3769875e-23
2.3767993e-23
2.376741e-23
2.3767462e-23
2.3768095e-23
2.3769727e-23
2.3773318e-23
2.3808457e-23
2.3786936e-23
2.3776241e-23
2.3771475e-23
2.3769614e-23
2.3769039e-23
2.3769092e-23
2.3769727e-23
2.377136e-23
2.3774954e-23
2.3811132e-23
2.3790234e-23
2.3779737e-23
2.3775036e-23
2.3773196e-23
2.3772627e-23
2.3772682e-23
2.3773318e-23
2.3774954e-23
2.3778555e-23
6.1400978e-23
6.1346713e-23
6.1319539e-23
6.1307381e-23
6.1302607e-23
6.1301073e-23
6.1301027e-23
6.1302167e-23
6.1305175e-23
6.1311683e-23
6.1346713e-23
6.1292661e-23
6.1265561e-23
6.125343e-23
6.124867e-23
6.1247155e-23
6.1247164e-23
6.1248471e-23
6.1251986e-23
6.1260079e-23
6.1319539e-23
6.1265561e-23
6.1238501e-23
6.122639e-23
6.1221642e-23
6.1220148e-23
6.1220211e-23
6.1221658e-23
6.1225482e-23
6.1234077e-23
6.1307381e-23
6.125343e-23
6.122639e-23
6.121429e-23
6.120955e-23
6.120807e-23
6.1208166e-23
6.120969e-23
6.1213653e-23
6.1222411e-23
6.1302607e-23
6.124867e-23
6.1221642e-23
6.120955e-23
6.1204816e-23
6.1203344e-23
6.1203456e-23
6.1205013e-23
6.1209029e-23
6.121784e-23
6.1301073e-23
6.1247155e-23
6.1220148e-23
6.120807e-23
6.1203344e-23
6.1201876e-23
6.1201996e-23
6.1203565e-23
6.1207599e-23
6.1216427e-23
6.1301027e-23
6.1247164e-23
6.1220211e-23
6.1208166e-23
6.1203456e-23
6.1201996e-23
6.120212e-23
6.1203694e-23
6.1207734e-23
6.1216567e-23
6.1302167e-23
6.1248471e-23
6.1221658e-23
6.120969e-23
6.1205013e-23
6.1203565e-23
6.1203694e-23
6.120527e-23
6.1209314e-23
6.1218149e-23
6.1305175e-23
6.1251986e-23
6.1225482e-23
6.1213653e-23
6.1209029e-23
6.1207599e-23
6.1207734e-23
6.1209314e-23
6.121336e-23
6.1222201e-23
6.1311683e-23
6.1260079e-23
6.1234077e-23
6.1222411e-23
6.121784e-23
6.1216427e-23
6.1216567e-23
6.1218149e-23