/*--------------------------------*- C++ -*----------------------------------*\
| =========                 |                                                 |
| \\      /  F ield         | OpenFOAM: The Open Source CFD Toolbox           |
|  \\    /   O peration     | Version:  dev                                   |
|   \\  /    A nd           | Web:      www.OpenFOAM.org                      |
|    \\/     M anipulation  |                                                 |
\*---------------------------------------------------------------------------*/
FoamFile
{
    version     2.0;
    format      ascii;
    class       volScalarField;
    location    "80.995";
    object      A;
}
// * * * * * * * * * * * * * * * * * * * * * * * * * * * * * * * * * * * * * //

dimensions      [0 0 0 0 1 0 0];

internalField   nonuniform List<scalar> 
10000
(
3.5613621e-24
3.5575133e-24
3.5554375e-24
3.5542856e-24
3.5536806e-24
3.5534066e-24
3.5533508e-24
3.5534846e-24
3.553869e-24
3.5546417e-24
3.5575133e-24
3.5536799e-24
3.5516095e-24
3.5504601e-24
3.5498568e-24
3.5495849e-24
3.5495331e-24
3.549676e-24
3.5500841e-24
3.5509245e-24
3.5554375e-24
3.5516095e-24
3.5495424e-24
3.5483951e-24
3.5477937e-24
3.5475244e-24
3.5474773e-24
3.5476294e-24
3.5480538e-24
3.5489176e-24
3.5542856e-24
3.5504601e-24
3.5483951e-24
3.5472496e-24
3.54665e-24
3.5463831e-24
3.5463398e-24
3.5464982e-24
3.5469315e-24
3.5478043e-24
3.5536806e-24
3.5498568e-24
3.5477937e-24
3.54665e-24
3.546052e-24
3.545787e-24
3.5457464e-24
3.5459085e-24
3.5463464e-24
3.5472228e-24
3.5534066e-24
3.5495849e-24
3.5475244e-24
3.5463831e-24
3.545787e-24
3.5455237e-24
3.5454849e-24
3.5456492e-24
3.5460894e-24
3.5469673e-24
3.5533508e-24
3.5495331e-24
3.5474773e-24
3.5463398e-24
3.5457464e-24
3.5454849e-24
3.5454476e-24
3.5456131e-24
3.5460544e-24
3.5469332e-24
3.5534846e-24
3.549676e-24
3.5476294e-24
3.5464982e-24
3.5459085e-24
3.5456492e-24
3.5456131e-24
3.5457795e-24
3.5462216e-24
3.547101e-24
3.553869e-24
3.5500841e-24
3.5480538e-24
3.5469315e-24
3.5463464e-24
3.5460894e-24
3.5460544e-24
3.5462216e-24
3.5466645e-24
3.5475447e-24
3.5546417e-24
3.5509245e-24
3.5489176e-24
3.5478043e-24
3.5472228e-24
3.5469673e-24
3.5469332e-24
3.547101e-24
3.5475447e-24
3.5484274e-24
1.1857369e-23
1.1845046e-23
1.1838209e-23
1.1834407e-23
1.1832408e-23
1.1831502e-23
1.1831317e-23
1.1831757e-23
1.1833024e-23
1.1835664e-23
1.1845046e-23
1.1832772e-23
1.1825953e-23
1.1822158e-23
1.1820165e-23
1.1819266e-23
1.1819094e-23
1.1819564e-23
1.182091e-23
1.1823777e-23
1.1838209e-23
1.1825953e-23
1.1819144e-23
1.1815356e-23
1.1813369e-23
1.1812479e-23
1.1812323e-23
1.1812824e-23
1.1814224e-23
1.1817168e-23
1.1834407e-23
1.1822158e-23
1.1815356e-23
1.1811575e-23
1.1809594e-23
1.1808711e-23
1.1808568e-23
1.1809089e-23
1.1810519e-23
1.1813493e-23
1.1832408e-23
1.1820165e-23
1.1813369e-23
1.1809594e-23
1.1807618e-23
1.1806742e-23
1.1806607e-23
1.1807141e-23
1.1808587e-23
1.1811572e-23
1.1831502e-23
1.1819266e-23
1.1812479e-23
1.1808711e-23
1.1806742e-23
1.1805872e-23
1.1805743e-23
1.1806284e-23
1.1807737e-23
1.1810728e-23
1.1831317e-23
1.1819094e-23
1.1812323e-23
1.1808568e-23
1.1806607e-23
1.1805743e-23
1.1805619e-23
1.1806164e-23
1.1807621e-23
1.1810614e-23
1.1831757e-23
1.1819564e-23
1.1812824e-23
1.1809089e-23
1.1807141e-23
1.1806284e-23
1.1806164e-23
1.1806712e-23
1.1808172e-23
1.1811167e-23
1.1833024e-23
1.182091e-23
1.1814224e-23
1.1810519e-23
1.1808587e-23
1.1807737e-23
1.1807621e-23
1.1808172e-23
1.1809634e-23
1.1812632e-23
1.1835664e-23
1.1823777e-23
1.1817168e-23
1.1813493e-23
1.1811572e-23
1.1810728e-23
1.1810614e-23
1.1811167e-23
1.1812632e-23
1.1815639e-23
2.4147735e-23
2.4123469e-23
2.4109805e-23
2.4102182e-23
2.409817e-23
2.409635e-23
2.4095975e-23
2.409685e-23
2.4099379e-23
2.4104814e-23
2.4123469e-23
2.4099296e-23
2.4085666e-23
2.4078059e-23
2.4074059e-23
2.4072253e-23
2.4071904e-23
2.4072841e-23
2.4075529e-23
2.4081425e-23
2.4109805e-23
2.4085666e-23
2.4072058e-23
2.4064466e-23
2.4060478e-23
2.4058689e-23
2.4058372e-23
2.405937e-23
2.4062169e-23
2.4068222e-23
2.4102182e-23
2.4078059e-23
2.4064466e-23
2.4056885e-23
2.4052908e-23
2.4051136e-23
2.4050845e-23
2.4051885e-23
2.4054744e-23
2.4060857e-23
2.409817e-23
2.4074059e-23
2.4060478e-23
2.4052908e-23
2.4048943e-23
2.4047183e-23
2.404691e-23
2.4047976e-23
2.4050865e-23
2.4057003e-23
2.409635e-23
2.4072253e-23
2.4058689e-23
2.4051136e-23
2.4047183e-23
2.4045435e-23
2.4045174e-23
2.4046254e-23
2.4049159e-23
2.4055307e-23
2.4095975e-23
2.4071904e-23
2.4058372e-23
2.4050845e-23
2.404691e-23
2.4045174e-23
2.4044923e-23
2.4046011e-23
2.4048924e-23
2.4055078e-23
2.409685e-23
2.4072841e-23
2.405937e-23
2.4051885e-23
2.4047976e-23
2.4046254e-23
2.4046011e-23
2.4047106e-23
2.4050024e-23
2.4056181e-23
2.4099379e-23
2.4075529e-23
2.4062169e-23
2.4054744e-23
2.4050865e-23
2.4049159e-23
2.4048924e-23
2.4050024e-23
2.4052946e-23
2.405911e-23
2.4104814e-23
2.4081425e-23
2.4068222e-23
2.4060857e-23
2.4057003e-23
2.4055307e-23
2.4055078e-23
2.4056181e-23
2.405911e-23
2.4065292e-23
4.4778276e-23
4.4734748e-23
4.4710013e-23
4.469617e-23
4.4688873e-23
4.4685558e-23
4.4684868e-23
4.468644e-23
4.4690989e-23
4.4700869e-23
4.4734748e-23
4.4691385e-23
4.4666711e-23
4.4652898e-23
4.464562e-23
4.464233e-23
4.4641689e-23
4.4643375e-23
4.4648219e-23
4.4658951e-23
4.4710013e-23
4.4666711e-23
4.4642077e-23
4.4628289e-23
4.4621035e-23
4.4617777e-23
4.4617194e-23
4.4618993e-23
4.4624041e-23
4.4635063e-23
4.469617e-23
4.4652898e-23
4.4628289e-23
4.4614523e-23
4.4607289e-23
4.4604061e-23
4.4603526e-23
4.4605402e-23
4.4610561e-23
4.4621694e-23
4.4688873e-23
4.464562e-23
4.4621035e-23
4.4607289e-23
4.4600076e-23
4.4596871e-23
4.459637e-23
4.4598292e-23
4.4603508e-23
4.4614686e-23
4.4685558e-23
4.464233e-23
4.4617777e-23
4.4604061e-23
4.4596871e-23
4.4593688e-23
4.4593208e-23
4.4595157e-23
4.4600401e-23
4.4611599e-23
4.4684868e-23
4.4641689e-23
4.4617194e-23
4.4603526e-23
4.459637e-23
4.4593208e-23
4.4592746e-23
4.4594711e-23
4.4599969e-23
4.4611176e-23
4.468644e-23
4.4643375e-23
4.4618993e-23
4.4605402e-23
4.4598292e-23
4.4595157e-23
4.4594711e-23
4.4596687e-23
4.4601954e-23
4.4613168e-23
4.4690989e-23
4.4648219e-23
4.4624041e-23
4.4610561e-23
4.4603508e-23
4.4600401e-23
4.4599969e-23
4.4601954e-23
4.460723e-23
4.4618455e-23
4.4700869e-23
4.4658951e-23
4.4635063e-23
4.4621694e-23
4.4614686e-23
4.4611599e-23
4.4611176e-23
4.4613168e-23
4.4618455e-23
4.4629714e-23
8.1392313e-23
8.13158e-23
8.1272043e-23
8.1247478e-23
8.1234504e-23
8.1228601e-23
8.1227359e-23
8.1230114e-23
8.1238084e-23
8.125539e-23
8.13158e-23
8.1239574e-23
8.1195924e-23
8.117141e-23
8.1158472e-23
8.1152614e-23
8.115146e-23
8.115442e-23
8.1162924e-23
8.118177e-23
8.1272043e-23
8.1195924e-23
8.1152343e-23
8.1127874e-23
8.1114977e-23
8.1109177e-23
8.1108128e-23
8.1111292e-23
8.1120162e-23
8.1139534e-23
8.1247478e-23
8.117141e-23
8.1127874e-23
8.1103444e-23
8.1090584e-23
8.1084837e-23
8.1083874e-23
8.1087177e-23
8.1096249e-23
8.111582e-23
8.1234504e-23
8.1158472e-23
8.1114977e-23
8.1090584e-23
8.1077762e-23
8.1072057e-23
8.1071153e-23
8.1074541e-23
8.1083714e-23
8.1103367e-23
8.1228601e-23
8.1152614e-23
8.1109177e-23
8.1084837e-23
8.1072057e-23
8.106639e-23
8.1065527e-23
8.1068961e-23
8.1078185e-23
8.1097874e-23
8.1227359e-23
8.115146e-23
8.1108128e-23
8.1083874e-23
8.1071153e-23
8.1065527e-23
8.1064695e-23
8.1068158e-23
8.1077408e-23
8.1097113e-23
8.1230114e-23
8.115442e-23
8.1111292e-23
8.1087177e-23
8.1074541e-23
8.1068961e-23
8.1068158e-23
8.1071642e-23
8.1080908e-23
8.1100625e-23
8.1238084e-23
8.1162924e-23
8.1120162e-23
8.1096249e-23
8.1083714e-23
8.1078185e-23
8.1077408e-23
8.1080908e-23
8.109019e-23
8.1109927e-23
8.125539e-23
8.118177e-23
8.1139534e-23
8.111582e-23
8.1103367e-23
8.1097874e-23
8.1097113e-23
8.1100625e-23
8.1109927e-23
8.1129723e-23
1.4807172e-22
1.4793717e-22
1.4785982e-22
1.4781627e-22
1.4779322e-22
1.4778272e-22
1.4778048e-22
1.477853e-22
1.4779923e-22
1.4782931e-22
1.4793717e-22
1.4780312e-22
1.4772595e-22
1.4768249e-22
1.4765951e-22
1.4764908e-22
1.4764701e-22
1.476522e-22
1.4766709e-22
1.4769996e-22
1.4785982e-22
1.4772595e-22
1.4764891e-22
1.4760553e-22
1.4758262e-22
1.475723e-22
1.4757041e-22
1.4757597e-22
1.4759152e-22
1.4762534e-22
1.4781627e-22
1.4768249e-22
1.4760553e-22
1.4756221e-22
1.4753937e-22
1.4752914e-22
1.4752741e-22
1.4753322e-22
1.4754913e-22
1.4758332e-22
1.4779322e-22
1.4765951e-22
1.4758262e-22
1.4753937e-22
1.4751659e-22
1.4750644e-22
1.4750482e-22
1.4751078e-22
1.4752688e-22
1.4756121e-22
1.4778272e-22
1.4764908e-22
1.475723e-22
1.4752914e-22
1.4750644e-22
1.4749636e-22
1.4749481e-22
1.4750086e-22
1.4751705e-22
1.4755144e-22
1.4778048e-22
1.4764701e-22
1.4757041e-22
1.4752741e-22
1.4750482e-22
1.4749481e-22
1.4749332e-22
1.4749941e-22
1.4751565e-22
1.4755007e-22
1.477853e-22
1.476522e-22
1.4757597e-22
1.4753322e-22
1.4751078e-22
1.4750086e-22
1.4749941e-22
1.4750554e-22
1.4752181e-22
1.4755626e-22
1.4779923e-22
1.4766709e-22
1.4759152e-22
1.4754913e-22
1.4752688e-22
1.4751705e-22
1.4751565e-22
1.4752181e-22
1.475381e-22
1.4757258e-22
1.4782931e-22
1.4769996e-22
1.4762534e-22
1.4758332e-22
1.4756121e-22
1.4755144e-22
1.4755007e-22
1.4755626e-22
1.4757258e-22
1.4760717e-22
2.713533e-22
2.7111504e-22
2.7097743e-22
2.7089973e-22
2.7085853e-22
2.7083972e-22
2.7083568e-22
2.7084415e-22
2.7086862e-22
2.709211e-22
2.7111504e-22
2.7087766e-22
2.7074038e-22
2.7066283e-22
2.7062175e-22
2.7060309e-22
2.7059933e-22
2.7060848e-22
2.706347e-22
2.7069226e-22
2.7097743e-22
2.7074038e-22
2.7060332e-22
2.7052591e-22
2.7048496e-22
2.7046649e-22
2.7046307e-22
2.7047289e-22
2.7050031e-22
2.705596e-22
2.7089973e-22
2.7066283e-22
2.7052591e-22
2.7044862e-22
2.7040779e-22
2.7038949e-22
2.7038636e-22
2.7039663e-22
2.7042471e-22
2.7048466e-22
2.7085853e-22
2.7062175e-22
2.7048496e-22
2.7040779e-22
2.7036708e-22
2.7034892e-22
2.7034598e-22
2.7035653e-22
2.7038494e-22
2.7044516e-22
2.7083972e-22
2.7060309e-22
2.7046649e-22
2.7038949e-22
2.7034892e-22
2.7033088e-22
2.7032807e-22
2.7033877e-22
2.7036735e-22
2.7042769e-22
2.7083568e-22
2.7059933e-22
2.7046307e-22
2.7038636e-22
2.7034598e-22
2.7032807e-22
2.7032537e-22
2.7033616e-22
2.7036483e-22
2.7042522e-22
2.7084415e-22
2.7060848e-22
2.7047289e-22
2.7039663e-22
2.7035653e-22
2.7033877e-22
2.7033616e-22
2.7034702e-22
2.7037574e-22
2.7043617e-22
2.7086862e-22
2.706347e-22
2.7050031e-22
2.7042471e-22
2.7038494e-22
2.7036735e-22
2.7036483e-22
2.7037574e-22
2.7040451e-22
2.7046499e-22
2.709211e-22
2.7069226e-22
2.705596e-22
2.7048466e-22
2.7044516e-22
2.7042769e-22
2.7042522e-22
2.7043617e-22
2.7046499e-22
2.7052566e-22
5.0194932e-22
5.0152364e-22
5.0127671e-22
5.0113686e-22
5.0106258e-22
5.0102862e-22
5.0102123e-22
5.0103627e-22
5.0107961e-22
5.0117188e-22
5.0152364e-22
5.0109953e-22
5.0085317e-22
5.007136e-22
5.0063952e-22
5.0060583e-22
5.0059897e-22
5.0061525e-22
5.006618e-22
5.0076341e-22
5.0127671e-22
5.0085317e-22
5.006072e-22
5.0046788e-22
5.0039404e-22
5.0036069e-22
5.0035446e-22
5.0037196e-22
5.0042072e-22
5.005255e-22
5.0113686e-22
5.007136e-22
5.0046788e-22
5.0032878e-22
5.0025517e-22
5.0022212e-22
5.0021641e-22
5.0023474e-22
5.0028472e-22
5.003907e-22
5.0106258e-22
5.0063952e-22
5.0039404e-22
5.0025517e-22
5.0018176e-22
5.0014897e-22
5.0014362e-22
5.0016245e-22
5.0021304e-22
5.0031952e-22
5.0102862e-22
5.0060583e-22
5.0036069e-22
5.0022212e-22
5.0014897e-22
5.0011641e-22
5.0011129e-22
5.0013041e-22
5.001813e-22
5.0028799e-22
5.0102123e-22
5.0059897e-22
5.0035446e-22
5.0021641e-22
5.0014362e-22
5.0011129e-22
5.0010636e-22
5.0012565e-22
5.0017669e-22
5.0028349e-22
5.0103627e-22
5.0061525e-22
5.0037196e-22
5.0023474e-22
5.0016245e-22
5.0013041e-22
5.0012565e-22
5.0014507e-22
5.001962e-22
5.0030306e-22
5.0107961e-22
5.006618e-22
5.0042072e-22
5.0028472e-22
5.0021304e-22
5.001813e-22
5.0017669e-22
5.001962e-22
5.0024743e-22
5.0035439e-22
5.0117188e-22
5.0076341e-22
5.005255e-22
5.003907e-22
5.0031952e-22
5.0028799e-22
5.0028349e-22
5.0030306e-22
5.0035439e-22
5.0046167e-22
9.3785566e-22
9.3708782e-22
9.3664046e-22
9.3638638e-22
9.3625118e-22
9.3618927e-22
9.3617567e-22
9.3620262e-22
9.3628013e-22
9.3644382e-22
9.3708782e-22
9.3632276e-22
9.3587644e-22
9.3562286e-22
9.3548803e-22
9.354266e-22
9.3541398e-22
9.3544322e-22
9.3552669e-22
9.3570771e-22
9.3664046e-22
9.3587644e-22
9.3543081e-22
9.3517769e-22
9.3504329e-22
9.3498249e-22
9.3497104e-22
9.3500253e-22
9.3509009e-22
9.35277e-22
9.3638638e-22
9.3562286e-22
9.3517769e-22
9.3492497e-22
9.3479098e-22
9.3473076e-22
9.3472025e-22
9.347533e-22
9.3484309e-22
9.3503224e-22
9.3625118e-22
9.3548803e-22
9.3504329e-22
9.3479098e-22
9.3465739e-22
9.3459764e-22
9.3458778e-22
9.3462176e-22
9.3471268e-22
9.3490274e-22
9.3618927e-22
9.354266e-22
9.3498249e-22
9.3473076e-22
9.3459764e-22
9.345383e-22
9.3452889e-22
9.3456339e-22
9.3465487e-22
9.3484533e-22
9.3617567e-22
9.3541398e-22
9.3497104e-22
9.3472025e-22
9.3458778e-22
9.3452889e-22
9.3451983e-22
9.3455464e-22
9.3464641e-22
9.3483705e-22
9.3620262e-22
9.3544322e-22
9.3500253e-22
9.347533e-22
9.3462176e-22
9.3456339e-22
9.3455464e-22
9.3458967e-22
9.3468162e-22
9.3487239e-22
9.3628013e-22
9.3552669e-22
9.3509009e-22
9.3484309e-22
9.3471268e-22
9.3465487e-22
9.3464641e-22
9.3468162e-22
9.3477372e-22
9.3496468e-22
9.3644382e-22
9.3570771e-22
9.35277e-22
9.3503224e-22
9.3490274e-22
9.3484533e-22
9.3483705e-22
9.3487239e-22
9.3496468e-22
9.3515618e-22
1.7703841e-21
1.7689854e-21
1.768167e-21
1.7677009e-21
1.7674524e-21
1.7673384e-21
1.7673132e-21
1.767362e-21
1.7675019e-21
1.7677952e-21
1.7689854e-21
1.7675917e-21
1.7667752e-21
1.76631e-21
1.7660622e-21
1.7659491e-21
1.7659257e-21
1.7659787e-21
1.7661299e-21
1.7664556e-21
1.768167e-21
1.7667752e-21
1.7659599e-21
1.7654955e-21
1.7652485e-21
1.7651366e-21
1.7651154e-21
1.7651726e-21
1.7653314e-21
1.7656682e-21
1.7677009e-21
1.76631e-21
1.7654955e-21
1.7650319e-21
1.7647857e-21
1.7646748e-21
1.7646553e-21
1.7647155e-21
1.7648785e-21
1.7652194e-21
1.7674524e-21
1.7660622e-21
1.7652485e-21
1.7647857e-21
1.7645402e-21
1.7644302e-21
1.7644119e-21
1.7644738e-21
1.7646389e-21
1.7649816e-21
1.7673384e-21
1.7659491e-21
1.7651366e-21
1.7646748e-21
1.7644302e-21
1.764321e-21
1.7643036e-21
1.7643665e-21
1.7645326e-21
1.764876e-21
1.7673132e-21
1.7659257e-21
1.7651154e-21
1.7646553e-21
1.7644119e-21
1.7643036e-21
1.7642868e-21
1.7643503e-21
1.7645169e-21
1.7648606e-21
1.767362e-21
1.7659787e-21
1.7651726e-21
1.7647155e-21
1.7644738e-21
1.7643665e-21
1.7643503e-21
1.7644141e-21
1.7645811e-21
1.7649251e-21
1.7675019e-21
1.7661299e-21
1.7653314e-21
1.7648785e-21
1.7646389e-21
1.7645326e-21
1.7645169e-21
1.7645811e-21
1.7647484e-21
1.7650927e-21
1.7677952e-21
1.7664556e-21
1.7656682e-21
1.7652194e-21
1.7649816e-21
1.764876e-21
1.7648606e-21
1.7649251e-21
1.7650927e-21
1.765438e-21
3.376764e-21
3.3741906e-21
3.3726786e-21
3.3718151e-21
3.3713539e-21
3.3711421e-21
3.3710947e-21
3.3711839e-21
3.3714393e-21
3.37197e-21
3.3741906e-21
3.3716264e-21
3.3701178e-21
3.3692559e-21
3.368796e-21
3.3685859e-21
3.368542e-21
3.3686392e-21
3.3689157e-21
3.3695078e-21
3.3726786e-21
3.3701178e-21
3.3686115e-21
3.3677512e-21
3.3672928e-21
3.3670849e-21
3.367045e-21
3.3671502e-21
3.3674412e-21
3.3680541e-21
3.3718151e-21
3.3692559e-21
3.3677512e-21
3.3668922e-21
3.3664352e-21
3.3662293e-21
3.3661928e-21
3.3663035e-21
3.3666023e-21
3.3672232e-21
3.3713539e-21
3.368796e-21
3.3672928e-21
3.3664352e-21
3.3659796e-21
3.3657754e-21
3.3657412e-21
3.3658551e-21
3.3661579e-21
3.366782e-21
3.3711421e-21
3.3685859e-21
3.3670849e-21
3.3662293e-21
3.3657754e-21
3.3655726e-21
3.3655399e-21
3.3656557e-21
3.3659605e-21
3.3665859e-21
3.3710947e-21
3.368542e-21
3.367045e-21
3.3661928e-21
3.3657412e-21
3.3655399e-21
3.3655085e-21
3.3656254e-21
3.3659312e-21
3.3665573e-21
3.3711839e-21
3.3686392e-21
3.3671502e-21
3.3663035e-21
3.3658551e-21
3.3656557e-21
3.3656254e-21
3.365743e-21
3.3660494e-21
3.366676e-21
3.3714393e-21
3.3689157e-21
3.3674412e-21
3.3666023e-21
3.3661579e-21
3.3659605e-21
3.3659312e-21
3.3660494e-21
3.3663564e-21
3.3669835e-21
3.37197e-21
3.3695078e-21
3.3680541e-21
3.3672232e-21
3.366782e-21
3.3665859e-21
3.3665573e-21
3.366676e-21
3.3669835e-21
3.3676124e-21
6.5082305e-21
6.5034485e-21
6.5006272e-21
6.4990115e-21
6.4981471e-21
6.4977495e-21
6.4976599e-21
6.4978246e-21
6.4982954e-21
6.4992653e-21
6.5034485e-21
6.4986835e-21
6.4958685e-21
6.4942558e-21
6.4933938e-21
6.4929994e-21
6.4929163e-21
6.4930964e-21
6.4936075e-21
6.4946948e-21
6.5006272e-21
6.4958685e-21
6.4930577e-21
6.4914479e-21
6.4905887e-21
6.4901985e-21
6.4901232e-21
6.4903185e-21
6.4908571e-21
6.4919842e-21
6.4990115e-21
6.4942558e-21
6.4914479e-21
6.4898408e-21
6.4889842e-21
6.4885979e-21
6.4885289e-21
6.4887346e-21
6.4892882e-21
6.4904304e-21
6.4981471e-21
6.4933938e-21
6.4905887e-21
6.4889842e-21
6.4881303e-21
6.4877471e-21
6.4876825e-21
6.4878944e-21
6.4884556e-21
6.489604e-21
6.4977495e-21
6.4929994e-21
6.4901985e-21
6.4885979e-21
6.4877471e-21
6.4873667e-21
6.487305e-21
6.4875205e-21
6.4880854e-21
6.4892364e-21
6.4976599e-21
6.4929163e-21
6.4901232e-21
6.4885289e-21
6.4876825e-21
6.487305e-21
6.4872457e-21
6.4874632e-21
6.4880301e-21
6.4891824e-21
6.4978246e-21
6.4930964e-21
6.4903185e-21
6.4887346e-21
6.4878944e-21
6.4875205e-21
6.4874632e-21
6.4876823e-21
6.4882503e-21
6.4894033e-21
6.4982954e-21
6.4936075e-21
6.4908571e-21
6.4892882e-21
6.4884556e-21
6.4880854e-21
6.4880301e-21
6.4882503e-21
6.4888193e-21
6.4899735e-21
6.4992653e-21
6.4946948e-21
6.4919842e-21
6.4904304e-21
6.489604e-21
6.4892364e-21
6.4891824e-21
6.4894033e-21
6.4899735e-21
6.4911309e-21
1.267575e-20
1.2666775e-20
1.2661458e-20
1.2658405e-20
1.2656768e-20
1.2656015e-20
1.2655844e-20
1.2656151e-20
1.2657028e-20
1.2658819e-20
1.2666775e-20
1.2657831e-20
1.2652526e-20
1.2649478e-20
1.2647847e-20
1.2647099e-20
1.264694e-20
1.2647278e-20
1.2648232e-20
1.2650249e-20
1.2661458e-20
1.2652526e-20
1.2647228e-20
1.2644186e-20
1.264256e-20
1.2641821e-20
1.2641677e-20
1.2642043e-20
1.2643051e-20
1.2645145e-20
1.2658405e-20
1.2649478e-20
1.2644186e-20
1.2641149e-20
1.2639528e-20
1.2638796e-20
1.2638665e-20
1.2639051e-20
1.2640087e-20
1.264221e-20
1.2656768e-20
1.2647847e-20
1.264256e-20
1.2639528e-20
1.2637912e-20
1.2637186e-20
1.2637063e-20
1.2637461e-20
1.2638512e-20
1.2640647e-20
1.2656015e-20
1.2647099e-20
1.2641821e-20
1.2638796e-20
1.2637186e-20
1.2636465e-20
1.2636348e-20
1.2636753e-20
1.2637811e-20
1.2639951e-20
1.2655844e-20
1.264694e-20
1.2641677e-20
1.2638665e-20
1.2637063e-20
1.2636348e-20
1.2636235e-20
1.2636644e-20
1.2637706e-20
1.2639848e-20
1.2656151e-20
1.2647278e-20
1.2642043e-20
1.2639051e-20
1.2637461e-20
1.2636753e-20
1.2636644e-20
1.2637056e-20
1.263812e-20
1.2640264e-20
1.2657028e-20
1.2648232e-20
1.2643051e-20
1.2640087e-20
1.2638512e-20
1.2637811e-20
1.2637706e-20
1.263812e-20
1.2639186e-20
1.2641332e-20
1.2658819e-20
1.2650249e-20
1.2645145e-20
1.264221e-20
1.2640647e-20
1.2639951e-20
1.2639848e-20
1.2640264e-20
1.2641332e-20
1.2643484e-20
2.4948692e-20
2.4931676e-20
2.4921555e-20
2.4915728e-20
2.49126e-20
2.4911157e-20
2.4910827e-20
2.4911407e-20
2.4913056e-20
2.4916397e-20
2.4931676e-20
2.491472e-20
2.4904621e-20
2.4898805e-20
2.4895685e-20
2.4894254e-20
2.4893949e-20
2.4894586e-20
2.4896387e-20
2.4900169e-20
2.4921555e-20
2.4904621e-20
2.4894537e-20
2.4888731e-20
2.4885622e-20
2.4884207e-20
2.488393e-20
2.4884624e-20
2.4886528e-20
2.489046e-20
2.4915728e-20
2.4898805e-20
2.4888731e-20
2.4882935e-20
2.4879835e-20
2.4878434e-20
2.4878181e-20
2.4878915e-20
2.4880875e-20
2.4884863e-20
2.49126e-20
2.4895685e-20
2.4885622e-20
2.4879835e-20
2.4876746e-20
2.4875356e-20
2.487512e-20
2.4875876e-20
2.4877865e-20
2.4881876e-20
2.4911157e-20
2.4894254e-20
2.4884207e-20
2.4878434e-20
2.4875356e-20
2.4873977e-20
2.4873752e-20
2.4874522e-20
2.4876524e-20
2.4880545e-20
2.4910827e-20
2.4893949e-20
2.488393e-20
2.4878181e-20
2.487512e-20
2.4873752e-20
2.4873535e-20
2.4874313e-20
2.4876322e-20
2.4880348e-20
2.4911407e-20
2.4894586e-20
2.4884624e-20
2.4878915e-20
2.4875876e-20
2.4874522e-20
2.4874313e-20
2.4875096e-20
2.4877109e-20
2.4881138e-20
2.4913056e-20
2.4896387e-20
2.4886528e-20
2.4880875e-20
2.4877865e-20
2.4876524e-20
2.4876322e-20
2.4877109e-20
2.4879127e-20
2.488316e-20
2.4916397e-20
2.4900169e-20
2.489046e-20
2.4884863e-20
2.4881876e-20
2.4880545e-20
2.4880348e-20
2.4881138e-20
2.488316e-20
2.4887203e-20
4.9624482e-20
4.9591899e-20
4.957244e-20
4.9561208e-20
4.9555168e-20
4.955238e-20
4.9551737e-20
4.9552843e-20
4.9555978e-20
4.9562273e-20
4.9591899e-20
4.9559429e-20
4.9540012e-20
4.9528801e-20
4.9522777e-20
4.9520011e-20
4.9519417e-20
4.9520635e-20
4.9524068e-20
4.9531233e-20
4.957244e-20
4.9540012e-20
4.9520624e-20
4.9509433e-20
4.9503429e-20
4.9500694e-20
4.9500157e-20
4.9501487e-20
4.9505122e-20
4.9512581e-20
4.9561208e-20
4.9528801e-20
4.9509433e-20
4.949826e-20
4.9492275e-20
4.9489568e-20
4.9489077e-20
4.9490484e-20
4.949423e-20
4.95018e-20
4.9555168e-20
4.9522777e-20
4.9503429e-20
4.9492275e-20
4.948631e-20
4.9483626e-20
4.9483167e-20
4.9484619e-20
4.9488421e-20
4.9496037e-20
4.955238e-20
4.9520011e-20
4.9500694e-20
4.9489568e-20
4.9483626e-20
4.9480962e-20
4.9480524e-20
4.9482003e-20
4.9485832e-20
4.9493467e-20
4.9551737e-20
4.9519417e-20
4.9500157e-20
4.9489077e-20
4.9483167e-20
4.9480524e-20
4.9480104e-20
4.9481598e-20
4.9485441e-20
4.9493085e-20
4.9552843e-20
4.9520635e-20
4.9501487e-20
4.9490484e-20
4.9484619e-20
4.9482003e-20
4.9481598e-20
4.9483102e-20
4.9486954e-20
4.9494603e-20
4.9555978e-20
4.9524068e-20
4.9505122e-20
4.949423e-20
4.9488421e-20
4.9485832e-20
4.9485441e-20
4.9486954e-20
4.9490812e-20
4.949847e-20
4.9562273e-20
4.9531233e-20
4.9512581e-20
4.95018e-20
4.9496037e-20
4.9493467e-20
4.9493085e-20
4.9494603e-20
4.949847e-20
4.9506147e-20
9.9752792e-20
9.9689768e-20
9.9651983e-20
9.9630116e-20
9.9618338e-20
9.9612893e-20
9.9611631e-20
9.9613761e-20
9.9619782e-20
9.9631768e-20
9.9689768e-20
9.9626962e-20
9.9589257e-20
9.956743e-20
9.9555684e-20
9.9550285e-20
9.9549117e-20
9.9551472e-20
9.9558084e-20
9.9571798e-20
9.9651983e-20
9.9589257e-20
9.9551608e-20
9.952982e-20
9.9518113e-20
9.9512774e-20
9.951172e-20
9.9514296e-20
9.9521311e-20
9.9535609e-20
9.9630116e-20
9.956743e-20
9.952982e-20
9.9508067e-20
9.9496399e-20
9.9491115e-20
9.9490153e-20
9.949288e-20
9.9500115e-20
9.9514635e-20
9.9618338e-20
9.9555684e-20
9.9518113e-20
9.9496399e-20
9.9484768e-20
9.9479529e-20
9.9478631e-20
9.9481449e-20
9.9488794e-20
9.9503404e-20
9.9612893e-20
9.9550285e-20
9.9512774e-20
9.9491115e-20
9.9479529e-20
9.9474331e-20
9.9473476e-20
9.9476345e-20
9.9483745e-20
9.9498393e-20
9.9611631e-20
9.9549117e-20
9.951172e-20
9.9490153e-20
9.9478631e-20
9.9473476e-20
9.9472655e-20
9.9475554e-20
9.9482981e-20
9.9497648e-20
9.9613761e-20
9.9551472e-20
9.9514296e-20
9.949288e-20
9.9481449e-20
9.9476345e-20
9.9475554e-20
9.9478474e-20
9.9485918e-20
9.9500596e-20
9.9619782e-20
9.9558084e-20
9.9521311e-20
9.9500115e-20
9.9488794e-20
9.9483745e-20
9.9482981e-20
9.9485918e-20
9.9493376e-20
9.9508068e-20
9.9631768e-20
9.9571798e-20
9.9535609e-20
9.9514635e-20
9.9503404e-20
9.9498393e-20
9.9497648e-20
9.9500596e-20
9.9508068e-20
9.9522798e-20
2.0264575e-19
2.0252262e-19
2.0244851e-19
2.0240552e-19
2.0238232e-19
2.0237159e-19
2.0236909e-19
2.0237323e-19
2.0238492e-19
2.0240797e-19
2.0252262e-19
2.0239991e-19
2.0232596e-19
2.0228304e-19
2.0225991e-19
2.0224927e-19
2.0224696e-19
2.0225155e-19
2.0226442e-19
2.0229095e-19
2.0244851e-19
2.0232596e-19
2.0225212e-19
2.0220928e-19
2.0218622e-19
2.021757e-19
2.0217362e-19
2.0217866e-19
2.0219234e-19
2.0222003e-19
2.0240552e-19
2.0228304e-19
2.0220928e-19
2.0216651e-19
2.0214353e-19
2.0213312e-19
2.0213122e-19
2.0213656e-19
2.0215068e-19
2.0217882e-19
2.0238232e-19
2.0225991e-19
2.0218622e-19
2.0214353e-19
2.0212063e-19
2.021103e-19
2.0210853e-19
2.0211405e-19
2.021284e-19
2.0215672e-19
2.0237159e-19
2.0224927e-19
2.021757e-19
2.0213312e-19
2.021103e-19
2.0210006e-19
2.0209837e-19
2.02104e-19
2.0211845e-19
2.0214685e-19
2.0236909e-19
2.0224696e-19
2.0217362e-19
2.0213122e-19
2.0210853e-19
2.0209837e-19
2.0209675e-19
2.0210244e-19
2.0211695e-19
2.0214538e-19
2.0237323e-19
2.0225155e-19
2.0217866e-19
2.0213656e-19
2.0211405e-19
2.02104e-19
2.0210244e-19
2.0210817e-19
2.0212271e-19
2.0215117e-19
2.0238492e-19
2.0226442e-19
2.0219234e-19
2.0215068e-19
2.021284e-19
2.0211845e-19
2.0211695e-19
2.0212271e-19
2.0213728e-19
2.0216576e-19
2.0240797e-19
2.0229095e-19
2.0222003e-19
2.0217882e-19
2.0215672e-19
2.0214685e-19
2.0214538e-19
2.0215117e-19
2.0216576e-19
2.0219432e-19
4.1603641e-19
4.1579344e-19
4.1564665e-19
4.1556127e-19
4.1551514e-19
4.1549376e-19
4.1548876e-19
4.1549691e-19
4.1551983e-19
4.1556463e-19
4.1579344e-19
4.155513e-19
4.1540481e-19
4.1531959e-19
4.1527358e-19
4.1525239e-19
4.1524777e-19
4.1525684e-19
4.1528215e-19
4.1533399e-19
4.1564665e-19
4.1540481e-19
4.1525854e-19
4.1517346e-19
4.1512761e-19
4.1510666e-19
4.151025e-19
4.1511247e-19
4.1513942e-19
4.1519364e-19
4.1556127e-19
4.1531959e-19
4.1517346e-19
4.1508853e-19
4.1504283e-19
4.1502211e-19
4.1501832e-19
4.150289e-19
4.1505674e-19
4.1511186e-19
4.1551514e-19
4.1527358e-19
4.1512761e-19
4.1504283e-19
4.1499728e-19
4.1497674e-19
4.1497321e-19
4.1498416e-19
4.1501245e-19
4.1506794e-19
4.1549376e-19
4.1525239e-19
4.1510666e-19
4.1502211e-19
4.1497674e-19
4.1495636e-19
4.14953e-19
4.1496416e-19
4.1499267e-19
4.1504832e-19
4.1548876e-19
4.1524777e-19
4.151025e-19
4.1501832e-19
4.1497321e-19
4.14953e-19
4.1494978e-19
4.1496106e-19
4.1498969e-19
4.150454e-19
4.1549691e-19
4.1525684e-19
4.1511247e-19
4.150289e-19
4.1498416e-19
4.1496416e-19
4.1496106e-19
4.1497242e-19
4.1500112e-19
4.1505688e-19
4.1551983e-19
4.1528215e-19
4.1513942e-19
4.1505674e-19
4.1501245e-19
4.1499267e-19
4.1498969e-19
4.1500112e-19
4.1502986e-19
4.1508568e-19
4.1556463e-19
4.1533399e-19
4.1519364e-19
4.1511186e-19
4.1506794e-19
4.1504832e-19
4.150454e-19
4.1505688e-19
4.1508568e-19
4.1514163e-19
8.6317704e-19
8.626928e-19
8.6239913e-19
8.6222791e-19
8.6213525e-19
8.6209228e-19
8.6208217e-19
8.6209838e-19
8.6214378e-19
8.6223175e-19
8.626928e-19
8.6221019e-19
8.6191713e-19
8.6174621e-19
8.616538e-19
8.616112e-19
8.6160188e-19
8.6161996e-19
8.6167028e-19
8.6177266e-19
8.6239913e-19
8.6191713e-19
8.6162449e-19
8.6145388e-19
8.6136178e-19
8.6131968e-19
8.613113e-19
8.6133121e-19
8.6138488e-19
8.6149213e-19
8.6222791e-19
8.6174621e-19
8.6145388e-19
8.6128354e-19
8.6119176e-19
8.6115011e-19
8.6114249e-19
8.6116367e-19
8.6121916e-19
8.6132825e-19
8.6213525e-19
8.616538e-19
8.6136178e-19
8.6119176e-19
8.6110029e-19
8.6105901e-19
8.6105192e-19
8.6107384e-19
8.6113025e-19
8.6124009e-19
8.6209228e-19
8.616112e-19
8.6131968e-19
8.6115011e-19
8.6105901e-19
8.6101806e-19
8.6101133e-19
8.6103367e-19
8.6109053e-19
8.612007e-19
8.6208217e-19
8.6160188e-19
8.613113e-19
8.6114249e-19
8.6105192e-19
8.6101133e-19
8.6100487e-19
8.6102746e-19
8.6108455e-19
8.6119486e-19
8.6209838e-19
8.6161996e-19
8.6133121e-19
8.6116367e-19
8.6107384e-19
8.6103367e-19
8.6102746e-19
8.6105023e-19
8.6110745e-19
8.6121786e-19
8.6214378e-19
8.6167028e-19
8.6138488e-19
8.6121916e-19
8.6113025e-19
8.6109053e-19
8.6108455e-19
8.6110745e-19
8.6116478e-19
8.6127529e-19
8.6223175e-19
8.6177266e-19
8.6149213e-19
8.6132825e-19
8.6124009e-19
8.612007e-19
8.6119486e-19
8.6121786e-19
8.6127529e-19
8.6138608e-19
1.8098031e-18
1.8088284e-18
1.8082351e-18
1.8078884e-18
1.8077004e-18
1.8076132e-18
1.8075926e-18
1.8076252e-18
1.8077161e-18
1.8078905e-18
1.8088284e-18
1.807857e-18
1.8072649e-18
1.8069187e-18
1.8067313e-18
1.8066448e-18
1.8066259e-18
1.8066623e-18
1.8067634e-18
1.8069677e-18
1.8082351e-18
1.8072649e-18
1.8066736e-18
1.8063281e-18
1.8061413e-18
1.8060559e-18
1.8060388e-18
1.8060791e-18
1.806187e-18
1.8064014e-18
1.8078884e-18
1.8069187e-18
1.8063281e-18
1.8059832e-18
1.805797e-18
1.8057125e-18
1.805697e-18
1.8057399e-18
1.8058516e-18
1.8060698e-18
1.8077004e-18
1.8067313e-18
1.8061413e-18
1.805797e-18
1.8056115e-18
1.8055278e-18
1.8055134e-18
1.8055577e-18
1.8056714e-18
1.8058911e-18
1.8076132e-18
1.8066448e-18
1.8060559e-18
1.8057125e-18
1.8055278e-18
1.8054447e-18
1.8054311e-18
1.8054763e-18
1.8055908e-18
1.8058113e-18
1.8075926e-18
1.8066259e-18
1.8060388e-18
1.805697e-18
1.8055134e-18
1.8054311e-18
1.805418e-18
1.8054637e-18
1.8055788e-18
1.8057995e-18
1.8076252e-18
1.8066623e-18
1.8060791e-18
1.8057399e-18
1.8055577e-18
1.8054763e-18
1.8054637e-18
1.8055099e-18
1.8056252e-18
1.8058461e-18
1.8077161e-18
1.8067634e-18
1.806187e-18
1.8058516e-18
1.8056714e-18
1.8055908e-18
1.8055788e-18
1.8056252e-18
1.8057407e-18
1.8059618e-18
1.8078905e-18
1.8069677e-18
1.8064014e-18
1.8060698e-18
1.8058911e-18
1.8058113e-18
1.8057995e-18
1.8058461e-18
1.8059618e-18
1.8061834e-18
3.8344984e-18
3.8325171e-18
3.8313066e-18
3.8305975e-18
3.8302126e-18
3.8300338e-18
3.8299915e-18
3.8300576e-18
3.8302414e-18
3.8305911e-18
3.8325171e-18
3.8305423e-18
3.8293343e-18
3.8286264e-18
3.8282425e-18
3.8280653e-18
3.8280264e-18
3.8281006e-18
3.8283056e-18
3.8287176e-18
3.8313066e-18
3.8293343e-18
3.828128e-18
3.8274214e-18
3.8270389e-18
3.8268638e-18
3.8268289e-18
3.826911e-18
3.8271305e-18
3.8275635e-18
3.8305975e-18
3.8286264e-18
3.8274214e-18
3.826716e-18
3.8263348e-18
3.8261616e-18
3.82613e-18
3.8262175e-18
3.8264448e-18
3.8268858e-18
3.8302126e-18
3.8282425e-18
3.8270389e-18
3.8263348e-18
3.8259549e-18
3.8257833e-18
3.825754e-18
3.8258447e-18
3.826076e-18
3.8265202e-18
3.8300338e-18
3.8280653e-18
3.8268638e-18
3.8261616e-18
3.8257833e-18
3.8256132e-18
3.8255854e-18
3.8256779e-18
3.8259111e-18
3.8263567e-18
3.8299915e-18
3.8280264e-18
3.8268289e-18
3.82613e-18
3.825754e-18
3.8255854e-18
3.8255587e-18
3.8256523e-18
3.8258865e-18
3.8263327e-18
3.8300576e-18
3.8281006e-18
3.826911e-18
3.8262175e-18
3.8258447e-18
3.8256779e-18
3.8256523e-18
3.8257467e-18
3.8259815e-18
3.8264281e-18
3.8302414e-18
3.8283056e-18
3.8271305e-18
3.8264448e-18
3.826076e-18
3.8259111e-18
3.8258865e-18
3.8259815e-18
3.8262167e-18
3.8266637e-18
3.8305911e-18
3.8287176e-18
3.8275635e-18
3.8268858e-18
3.8265202e-18
3.8263567e-18
3.8263327e-18