/*--------------------------------*- C++ -*----------------------------------*\
| =========                 |                                                 |
| \\      /  F ield         | OpenFOAM: The Open Source CFD Toolbox           |
|  \\    /   O peration     | Version:  dev                                   |
|   \\  /    A nd           | Web:      www.OpenFOAM.org                      |
|    \\/     M anipulation  |                                                 |
\*---------------------------------------------------------------------------*/
FoamFile
{
    version     2.0;
    format      ascii;
    class       volScalarField;
    location    "80.995";
    object      A_0;
}
// * * * * * * * * * * * * * * * * * * * * * * * * * * * * * * * * * * * * * //

dimensions      [0 0 0 0 1 0 0];

internalField   nonuniform List<scalar> 
10000
(
3.4793749e-24
3.4756111e-24
3.4735814e-24
3.4724554e-24
3.4718642e-24
3.4715966e-24
3.4715421e-24
3.4716729e-24
3.4720486e-24
3.4728038e-24
3.4756111e-24
3.4718623e-24
3.4698379e-24
3.4687143e-24
3.4681248e-24
3.4678592e-24
3.4678086e-24
3.4679484e-24
3.4683472e-24
3.4691687e-24
3.4735814e-24
3.4698379e-24
3.4678167e-24
3.4666953e-24
3.4661076e-24
3.4658446e-24
3.4657986e-24
3.4659473e-24
3.466362e-24
3.4672064e-24
3.4724554e-24
3.4687143e-24
3.4666953e-24
3.4655756e-24
3.4649896e-24
3.4647289e-24
3.4646867e-24
3.4648415e-24
3.465265e-24
3.4661181e-24
3.4718642e-24
3.4681248e-24
3.4661076e-24
3.4649896e-24
3.4644052e-24
3.4641464e-24
3.4641068e-24
3.4642653e-24
3.4646933e-24
3.4655499e-24
3.4715966e-24
3.4678592e-24
3.4658446e-24
3.4647289e-24
3.4641464e-24
3.4638892e-24
3.4638514e-24
3.4640119e-24
3.4644422e-24
3.4653004e-24
3.4715421e-24
3.4678086e-24
3.4657986e-24
3.4646867e-24
3.4641068e-24
3.4638514e-24
3.463815e-24
3.4639768e-24
3.4644081e-24
3.4652671e-24
3.4716729e-24
3.4679484e-24
3.4659473e-24
3.4648415e-24
3.4642653e-24
3.4640119e-24
3.4639768e-24
3.4641394e-24
3.4645715e-24
3.4654311e-24
3.4720486e-24
3.4683472e-24
3.466362e-24
3.465265e-24
3.4646933e-24
3.4644422e-24
3.4644081e-24
3.4645715e-24
3.4650044e-24
3.4658648e-24
3.4728038e-24
3.4691687e-24
3.4672064e-24
3.4661181e-24
3.4655499e-24
3.4653004e-24
3.4652671e-24
3.4654311e-24
3.4658648e-24
3.4667276e-24
1.1585358e-23
1.1573307e-23
1.1566621e-23
1.1562904e-23
1.156095e-23
1.1560066e-23
1.1559885e-23
1.1560315e-23
1.1561554e-23
1.1564134e-23
1.1573307e-23
1.1561303e-23
1.1554634e-23
1.1550925e-23
1.1548977e-23
1.1548099e-23
1.1547931e-23
1.1548391e-23
1.1549706e-23
1.1552508e-23
1.1566621e-23
1.1554634e-23
1.1547976e-23
1.1544274e-23
1.1542332e-23
1.1541462e-23
1.154131e-23
1.1541799e-23
1.1543168e-23
1.1546046e-23
1.1562904e-23
1.1550925e-23
1.1544274e-23
1.1540577e-23
1.1538641e-23
1.1537779e-23
1.1537639e-23
1.1538148e-23
1.1539546e-23
1.1542453e-23
1.156095e-23
1.1548977e-23
1.1542332e-23
1.1538641e-23
1.153671e-23
1.1535854e-23
1.1535723e-23
1.1536245e-23
1.1537658e-23
1.1540576e-23
1.1560066e-23
1.1548099e-23
1.1541462e-23
1.1537779e-23
1.1535854e-23
1.1535004e-23
1.1534878e-23
1.1535407e-23
1.1536828e-23
1.1539751e-23
1.1559885e-23
1.1547931e-23
1.154131e-23
1.1537639e-23
1.1535723e-23
1.1534878e-23
1.1534758e-23
1.1535291e-23
1.1536714e-23
1.1539641e-23
1.1560315e-23
1.1548391e-23
1.1541799e-23
1.1538148e-23
1.1536245e-23
1.1535407e-23
1.1535291e-23
1.1535827e-23
1.1537253e-23
1.1540181e-23
1.1561554e-23
1.1549706e-23
1.1543168e-23
1.1539546e-23
1.1537658e-23
1.1536828e-23
1.1536714e-23
1.1537253e-23
1.1538682e-23
1.1541613e-23
1.1564134e-23
1.1552508e-23
1.1546046e-23
1.1542453e-23
1.1540576e-23
1.1539751e-23
1.1539641e-23
1.1540181e-23
1.1541613e-23
1.1544552e-23
2.3597426e-23
2.3573689e-23
2.3560326e-23
2.3552873e-23
2.3548951e-23
2.3547173e-23
2.3546807e-23
2.3547663e-23
2.3550135e-23
2.3555448e-23
2.3573689e-23
2.3550043e-23
2.3536714e-23
2.3529277e-23
2.3525366e-23
2.3523602e-23
2.3523262e-23
2.3524178e-23
2.3526806e-23
2.353257e-23
2.3560326e-23
2.3536714e-23
2.3523406e-23
2.3515982e-23
2.3512084e-23
2.3510337e-23
2.3510028e-23
2.3511003e-23
2.3513739e-23
2.3519658e-23
2.3552873e-23
2.3529277e-23
2.3515982e-23
2.350857e-23
2.3504683e-23
2.3502951e-23
2.3502668e-23
2.3503685e-23
2.350648e-23
2.3512457e-23
2.3548951e-23
2.3525366e-23
2.3512084e-23
2.3504683e-23
2.3500807e-23
2.3499088e-23
2.3498822e-23
2.3499864e-23
2.3502689e-23
2.350869e-23
2.3547173e-23
2.3523602e-23
2.3510337e-23
2.3502951e-23
2.3499088e-23
2.349738e-23
2.3497126e-23
2.3498181e-23
2.3501021e-23
2.3507033e-23
2.3546807e-23
2.3523262e-23
2.3510028e-23
2.3502668e-23
2.3498822e-23
2.3497126e-23
2.3496881e-23
2.3497945e-23
2.3500792e-23
2.3506809e-23
2.3547663e-23
2.3524178e-23
2.3511003e-23
2.3503685e-23
2.3499864e-23
2.3498181e-23
2.3497945e-23
2.3499015e-23
2.3501867e-23
2.3507887e-23
2.3550135e-23
2.3526806e-23
2.3513739e-23
2.350648e-23
2.3502689e-23
2.3501021e-23
2.3500792e-23
2.3501867e-23
2.3504725e-23
2.3510751e-23
2.3555448e-23
2.353257e-23
2.3519658e-23
2.3512457e-23
2.350869e-23
2.3507033e-23
2.3506809e-23
2.3507887e-23
2.3510751e-23
2.3516794e-23
4.3766722e-23
4.3724135e-23
4.369994e-23
4.3686403e-23
4.3679269e-23
4.3676029e-23
4.3675356e-23
4.3676893e-23
4.3681341e-23
4.3691003e-23
4.3724135e-23
4.368171e-23
4.3657575e-23
4.3644066e-23
4.3636952e-23
4.3633737e-23
4.3633111e-23
4.363476e-23
4.3639496e-23
4.3649991e-23
4.369994e-23
4.3657575e-23
4.3633479e-23
4.3619995e-23
4.3612903e-23
4.3609719e-23
4.3609151e-23
4.361091e-23
4.3615845e-23
4.3626624e-23
4.3686403e-23
4.3644066e-23
4.3619995e-23
4.3606532e-23
4.3599461e-23
4.3596306e-23
4.3595784e-23
4.3597619e-23
4.3602663e-23
4.361355e-23
4.3679269e-23
4.3636952e-23
4.3612903e-23
4.3599461e-23
4.3592409e-23
4.3589278e-23
4.3588788e-23
4.3590668e-23
4.3595768e-23
4.3606699e-23
4.3676029e-23
4.3633737e-23
4.3609719e-23
4.3596306e-23
4.3589278e-23
4.3586166e-23
4.3585699e-23
4.3587605e-23
4.3592731e-23
4.3603682e-23
4.3675356e-23
4.3633111e-23
4.3609151e-23
4.3595784e-23
4.3588788e-23
4.3585699e-23
4.3585248e-23
4.3587169e-23
4.359231e-23
4.360327e-23
4.3676893e-23
4.363476e-23
4.361091e-23
4.3597619e-23
4.3590668e-23
4.3587605e-23
4.3587169e-23
4.3589102e-23
4.3594252e-23
4.3605218e-23
4.3681341e-23
4.3639496e-23
4.3615845e-23
4.3602663e-23
4.3595768e-23
4.3592731e-23
4.359231e-23
4.3594252e-23
4.359941e-23
4.3610387e-23
4.3691003e-23
4.3649991e-23
4.3626624e-23
4.361355e-23
4.3606699e-23
4.3603682e-23
4.360327e-23
4.3605218e-23
4.3610387e-23
4.3621397e-23
7.9572157e-23
7.9497281e-23
7.9454469e-23
7.9430441e-23
7.9417755e-23
7.9411985e-23
7.9410772e-23
7.9413467e-23
7.9421262e-23
7.9438187e-23
7.9497281e-23
7.9422687e-23
7.9379979e-23
7.9356001e-23
7.934335e-23
7.9337624e-23
7.9336497e-23
7.9339393e-23
7.9347709e-23
7.9366142e-23
7.9454469e-23
7.9379979e-23
7.9337339e-23
7.9313405e-23
7.9300794e-23
7.9295125e-23
7.9294101e-23
7.9297195e-23
7.9305871e-23
7.9324818e-23
7.9430441e-23
7.9356001e-23
7.9313405e-23
7.9289508e-23
7.9276934e-23
7.9271316e-23
7.9270377e-23
7.9273608e-23
7.928248e-23
7.9301623e-23
7.9417755e-23
7.934335e-23
7.9300794e-23
7.9276934e-23
7.9264396e-23
7.925882e-23
7.9257938e-23
7.9261251e-23
7.9270223e-23
7.9289445e-23
7.9411985e-23
7.9337624e-23
7.9295125e-23
7.9271316e-23
7.925882e-23
7.925328e-23
7.9252438e-23
7.9255798e-23
7.9264819e-23
7.9284076e-23
7.9410772e-23
7.9336497e-23
7.9294101e-23
7.9270377e-23
7.9257938e-23
7.9252438e-23
7.9251627e-23
7.9255014e-23
7.926406e-23
7.9283334e-23
7.9413467e-23
7.9339393e-23
7.9297195e-23
7.9273608e-23
7.9261251e-23
7.9255798e-23
7.9255014e-23
7.9258421e-23
7.9267484e-23
7.9286769e-23
7.9421262e-23
7.9347709e-23
7.9305871e-23
7.928248e-23
7.9270223e-23
7.9264819e-23
7.926406e-23
7.9267484e-23
7.9276561e-23
7.9295866e-23
7.9438187e-23
7.9366142e-23
7.9324818e-23
7.9301623e-23
7.9289445e-23
7.9284076e-23
7.9283334e-23
7.9286769e-23
7.9295866e-23
7.9315228e-23
1.4479646e-22
1.4466475e-22
1.4458905e-22
1.4454644e-22
1.445239e-22
1.4451363e-22
1.4451145e-22
1.4451616e-22
1.4452978e-22
1.4455921e-22
1.4466475e-22
1.4453353e-22
1.4445802e-22
1.4441549e-22
1.4439301e-22
1.4438282e-22
1.4438079e-22
1.4438587e-22
1.4440044e-22
1.444326e-22
1.4458905e-22
1.4445802e-22
1.4438262e-22
1.4434017e-22
1.4431776e-22
1.4430768e-22
1.4430584e-22
1.4431127e-22
1.4432648e-22
1.4435957e-22
1.4454644e-22
1.4441549e-22
1.4434017e-22
1.4429779e-22
1.4427545e-22
1.4426545e-22
1.4426376e-22
1.4426945e-22
1.4428501e-22
1.4431846e-22
1.445239e-22
1.4439301e-22
1.4431776e-22
1.4427545e-22
1.4425317e-22
1.4424325e-22
1.4424167e-22
1.442475e-22
1.4426324e-22
1.4429683e-22
1.4451363e-22
1.4438282e-22
1.4430768e-22
1.4426545e-22
1.4424325e-22
1.442334e-22
1.4423188e-22
1.442378e-22
1.4425363e-22
1.4428728e-22
1.4451145e-22
1.4438079e-22
1.4430584e-22
1.4426376e-22
1.4424167e-22
1.4423188e-22
1.4423042e-22
1.4423639e-22
1.4425227e-22
1.4428595e-22
1.4451616e-22
1.4438587e-22
1.4431127e-22
1.4426945e-22
1.442475e-22
1.442378e-22
1.4423639e-22
1.4424239e-22
1.442583e-22
1.44292e-22
1.4452978e-22
1.4440044e-22
1.4432648e-22
1.4428501e-22
1.4426324e-22
1.4425363e-22
1.4425227e-22
1.442583e-22
1.4427424e-22
1.4430797e-22
1.4455921e-22
1.444326e-22
1.4435957e-22
1.4431846e-22
1.4429683e-22
1.4428728e-22
1.4428595e-22
1.44292e-22
1.4430797e-22
1.443418e-22
2.6541958e-22
2.651863e-22
2.650516e-22
2.6497555e-22
2.6493525e-22
2.6491686e-22
2.649129e-22
2.649212e-22
2.6494513e-22
2.6499649e-22
2.651863e-22
2.6495388e-22
2.648195e-22
2.647436e-22
2.6470341e-22
2.6468516e-22
2.6468149e-22
2.6469045e-22
2.647161e-22
2.6477243e-22
2.650516e-22
2.648195e-22
2.6468533e-22
2.6460957e-22
2.6456951e-22
2.6455144e-22
2.6454811e-22
2.6455772e-22
2.6458455e-22
2.6464257e-22
2.6497555e-22
2.647436e-22
2.6460957e-22
2.6453394e-22
2.6449399e-22
2.6447609e-22
2.6447303e-22
2.6448309e-22
2.6451056e-22
2.6456923e-22
2.6493525e-22
2.6470341e-22
2.6456951e-22
2.6449399e-22
2.6445416e-22
2.644364e-22
2.6443353e-22
2.6444385e-22
2.6447166e-22
2.6453058e-22
2.6491686e-22
2.6468516e-22
2.6455144e-22
2.6447609e-22
2.644364e-22
2.6441876e-22
2.6441602e-22
2.6442649e-22
2.6445446e-22
2.645135e-22
2.649129e-22
2.6468149e-22
2.6454811e-22
2.6447303e-22
2.6443353e-22
2.6441602e-22
2.6441338e-22
2.6442394e-22
2.6445199e-22
2.6451109e-22
2.649212e-22
2.6469045e-22
2.6455772e-22
2.6448309e-22
2.6444385e-22
2.6442649e-22
2.6442394e-22
2.6443457e-22
2.6446267e-22
2.6452181e-22
2.6494513e-22
2.647161e-22
2.6458455e-22
2.6451056e-22
2.6447166e-22
2.6445446e-22
2.6445199e-22
2.6446267e-22
2.6449082e-22
2.6455001e-22
2.6499649e-22
2.6477243e-22
2.6464257e-22
2.6456923e-22
2.6453058e-22
2.645135e-22
2.6451109e-22
2.6452181e-22
2.6455001e-22
2.6460938e-22
4.9110281e-22
4.9068591e-22
4.9044412e-22
4.9030722e-22
4.9023454e-22
4.9020131e-22
4.901941e-22
4.9020882e-22
4.9025124e-22
4.9034155e-22
4.9068591e-22
4.9027055e-22
4.9002933e-22
4.898927e-22
4.8982021e-22
4.8978725e-22
4.8978055e-22
4.8979648e-22
4.8984205e-22
4.899415e-22
4.9044412e-22
4.9002933e-22
4.8978848e-22
4.896521e-22
4.8957984e-22
4.8954722e-22
4.8954114e-22
4.8955826e-22
4.8960599e-22
4.8970855e-22
4.9030722e-22
4.898927e-22
4.896521e-22
4.8951594e-22
4.894439e-22
4.8941157e-22
4.8940599e-22
4.8942394e-22
4.8947286e-22
4.895766e-22
4.9023454e-22
4.8982021e-22
4.8957984e-22
4.894439e-22
4.8937207e-22
4.8933999e-22
4.8933476e-22
4.893532e-22
4.8940271e-22
4.8950694e-22
4.9020131e-22
4.8978725e-22
4.8954722e-22
4.8941157e-22
4.8933999e-22
4.8930814e-22
4.8930314e-22
4.8932186e-22
4.8937166e-22
4.894761e-22
4.901941e-22
4.8978055e-22
4.8954114e-22
4.8940599e-22
4.8933476e-22
4.8930314e-22
4.8929833e-22
4.8931721e-22
4.8936717e-22
4.894717e-22
4.9020882e-22
4.8979648e-22
4.8955826e-22
4.8942394e-22
4.893532e-22
4.8932186e-22
4.8931721e-22
4.8933621e-22
4.8938626e-22
4.8949086e-22
4.9025124e-22
4.8984205e-22
4.8960599e-22
4.8947286e-22
4.8940271e-22
4.8937166e-22
4.8936717e-22
4.8938626e-22
4.894364e-22
4.895411e-22
4.9034155e-22
4.899415e-22
4.8970855e-22
4.895766e-22
4.8950694e-22
4.894761e-22
4.894717e-22
4.8949086e-22
4.895411e-22
4.8964611e-22
9.1783654e-22
9.1708433e-22
9.1664617e-22
9.1639739e-22
9.1626505e-22
9.1620447e-22
9.1619119e-22
9.1621758e-22
9.1629345e-22
9.1645372e-22
9.1708433e-22
9.1633486e-22
9.1589772e-22
9.1564942e-22
9.1551744e-22
9.1545734e-22
9.1544501e-22
9.1547364e-22
9.1555536e-22
9.157326e-22
9.1664617e-22
9.1589772e-22
9.1546125e-22
9.1521341e-22
9.1508185e-22
9.1502237e-22
9.1501118e-22
9.1504202e-22
9.1512774e-22
9.1531075e-22
9.1639739e-22
9.1564942e-22
9.1521341e-22
9.1496596e-22
9.148348e-22
9.1477588e-22
9.1476561e-22
9.1479797e-22
9.1488588e-22
9.1507108e-22
9.1626505e-22
9.1551744e-22
9.1508185e-22
9.148348e-22
9.1470404e-22
9.1464557e-22
9.1463595e-22
9.1466921e-22
9.1475823e-22
9.1494432e-22
9.1620447e-22
9.1545734e-22
9.1502237e-22
9.1477588e-22
9.1464557e-22
9.1458752e-22
9.1457833e-22
9.1461211e-22
9.1470167e-22
9.1488814e-22
9.1619119e-22
9.1544501e-22
9.1501118e-22
9.1476561e-22
9.1463595e-22
9.1457833e-22
9.1456947e-22
9.1460356e-22
9.146934e-22
9.1488006e-22
9.1621758e-22
9.1547364e-22
9.1504202e-22
9.1479797e-22
9.1466921e-22
9.1461211e-22
9.1460356e-22
9.1463786e-22
9.1472788e-22
9.1491466e-22
9.1629345e-22
9.1555536e-22
9.1512774e-22
9.1488588e-22
9.1475823e-22
9.1470167e-22
9.146934e-22
9.1472788e-22
9.1481805e-22
9.1500501e-22
9.1645372e-22
9.157326e-22
9.1531075e-22
9.1507108e-22
9.1494432e-22
9.1488814e-22
9.1488006e-22
9.1491466e-22
9.1500501e-22
9.1519251e-22
1.7330677e-21
1.7316971e-21
1.7308953e-21
1.7304388e-21
1.7301955e-21
1.730084e-21
1.7300593e-21
1.7301071e-21
1.7302441e-21
1.7305313e-21
1.7316971e-21
1.7303314e-21
1.7295315e-21
1.7290758e-21
1.7288332e-21
1.7287226e-21
1.7286996e-21
1.7287516e-21
1.7288996e-21
1.7292186e-21
1.7308953e-21
1.7295315e-21
1.7287328e-21
1.7282779e-21
1.7280361e-21
1.7279266e-21
1.7279058e-21
1.7279619e-21
1.7281174e-21
1.7284472e-21
1.7304388e-21
1.7290758e-21
1.7282779e-21
1.7278239e-21
1.7275827e-21
1.7274743e-21
1.7274552e-21
1.7275142e-21
1.7276738e-21
1.7280077e-21
1.7301955e-21
1.7288332e-21
1.7280361e-21
1.7275827e-21
1.7273424e-21
1.7272348e-21
1.7272169e-21
1.7272775e-21
1.7274392e-21
1.7277748e-21
1.730084e-21
1.7287226e-21
1.7279266e-21
1.7274743e-21
1.7272348e-21
1.7271279e-21
1.7271109e-21
1.7271725e-21
1.7273352e-21
1.7276715e-21
1.7300593e-21
1.7286996e-21
1.7279058e-21
1.7274552e-21
1.7272169e-21
1.7271109e-21
1.7270945e-21
1.7271566e-21
1.7273198e-21
1.7276565e-21
1.7301071e-21
1.7287516e-21
1.7279619e-21
1.7275142e-21
1.7272775e-21
1.7271725e-21
1.7271566e-21
1.7272192e-21
1.7273827e-21
1.7277196e-21
1.7302441e-21
1.7288996e-21
1.7281174e-21
1.7276738e-21
1.7274392e-21
1.7273352e-21
1.7273198e-21
1.7273827e-21
1.7275465e-21
1.7278837e-21
1.7305313e-21
1.7292186e-21
1.7284472e-21
1.7280077e-21
1.7277748e-21
1.7276715e-21
1.7276565e-21
1.7277196e-21
1.7278837e-21
1.7282219e-21
3.3065057e-21
3.3039833e-21
3.3025015e-21
3.3016555e-21
3.3012039e-21
3.3009965e-21
3.3009502e-21
3.3010376e-21
3.3012878e-21
3.3018076e-21
3.3039833e-21
3.3014699e-21
3.2999915e-21
3.2991472e-21
3.2986967e-21
3.298491e-21
3.2984481e-21
3.2985433e-21
3.2988142e-21
3.2993942e-21
3.3025015e-21
3.2999915e-21
3.2985154e-21
3.2976725e-21
3.2972236e-21
3.29702e-21
3.2969811e-21
3.2970842e-21
3.2973692e-21
3.2979696e-21
3.3016555e-21
3.2991472e-21
3.2976725e-21
3.296831e-21
3.2963834e-21
3.2961819e-21
3.2961462e-21
3.2962546e-21
3.2965473e-21
3.2971555e-21
3.3012039e-21
3.2986967e-21
3.2972236e-21
3.2963834e-21
3.2959372e-21
3.2957373e-21
3.2957038e-21
3.2958155e-21
3.2961121e-21
3.2967235e-21
3.3009965e-21
3.298491e-21
3.29702e-21
3.2961819e-21
3.2957373e-21
3.2955387e-21
3.2955068e-21
3.2956203e-21
3.2959188e-21
3.2965315e-21
3.3009502e-21
3.2984481e-21
3.2969811e-21
3.2961462e-21
3.2957038e-21
3.2955068e-21
3.2954761e-21
3.2955906e-21
3.2958901e-21
3.2965035e-21
3.3010376e-21
3.2985433e-21
3.2970842e-21
3.2962546e-21
3.2958155e-21
3.2956203e-21
3.2955906e-21
3.2957059e-21
3.296006e-21
3.2966198e-21
3.3012878e-21
3.2988142e-21
3.2973692e-21
3.2965473e-21
3.2961121e-21
3.2959188e-21
3.2958901e-21
3.296006e-21
3.2963067e-21
3.2969211e-21
3.3018076e-21
3.2993942e-21
3.2979696e-21
3.2971555e-21
3.2967235e-21
3.2965315e-21
3.2965035e-21
3.2966198e-21
3.2969211e-21
3.2975372e-21
6.3746132e-21
6.3699247e-21
6.367159e-21
6.3655757e-21
6.3647289e-21
6.3643396e-21
6.3642519e-21
6.3644133e-21
6.3648746e-21
6.365825e-21
6.3699247e-21
6.3652528e-21
6.3624933e-21
6.360913e-21
6.3600685e-21
6.3596823e-21
6.359601e-21
6.3597776e-21
6.3602783e-21
6.3613438e-21
6.367159e-21
6.3624933e-21
6.3597381e-21
6.3581606e-21
6.3573188e-21
6.3569367e-21
6.3568631e-21
6.3570545e-21
6.3575822e-21
6.3586867e-21
6.3655757e-21
6.360913e-21
6.3581606e-21
6.3565856e-21
6.3557465e-21
6.3553681e-21
6.3553007e-21
6.3555023e-21
6.3560447e-21
6.357164e-21
6.3647289e-21
6.3600685e-21
6.3573188e-21
6.3557465e-21
6.3549099e-21
6.3545347e-21
6.3544715e-21
6.3546792e-21
6.3552291e-21
6.3563544e-21
6.3643396e-21
6.3596823e-21
6.3569367e-21
6.3553681e-21
6.3545347e-21
6.3541621e-21
6.3541018e-21
6.354313e-21
6.3548665e-21
6.3559944e-21
6.3642519e-21
6.359601e-21
6.3568631e-21
6.3553007e-21
6.3544715e-21
6.3541018e-21
6.3540439e-21
6.354257e-21
6.3548125e-21
6.3559416e-21
6.3644133e-21
6.3597776e-21
6.3570545e-21
6.3555023e-21
6.3546792e-21
6.354313e-21
6.354257e-21
6.3544717e-21
6.3550282e-21
6.3561582e-21
6.3648746e-21
6.3602783e-21
6.3575822e-21
6.3560447e-21
6.3552291e-21
6.3548665e-21
6.3548125e-21
6.3550282e-21
6.3555858e-21
6.3567168e-21
6.365825e-21
6.3613438e-21
6.3586867e-21
6.357164e-21
6.3563544e-21
6.3559944e-21
6.3559416e-21
6.3561582e-21
6.3567168e-21
6.357851e-21
1.2419061e-20
1.2410258e-20
1.2405045e-20
1.2402052e-20
1.2400448e-20
1.239971e-20
1.2399543e-20
1.2399844e-20
1.2400703e-20
1.2402459e-20
1.2410258e-20
1.2401487e-20
1.2396285e-20
1.2393298e-20
1.2391698e-20
1.2390966e-20
1.2390811e-20
1.2391142e-20
1.2392077e-20
1.2394054e-20
1.2405045e-20
1.2396285e-20
1.239109e-20
1.2388109e-20
1.2386515e-20
1.238579e-20
1.238565e-20
1.2386009e-20
1.2386996e-20
1.2389049e-20
1.2402052e-20
1.2393298e-20
1.2388109e-20
1.2385131e-20
1.2383543e-20
1.2382826e-20
1.2382697e-20
1.2383076e-20
1.2384091e-20
1.2386173e-20
1.2400448e-20
1.2391698e-20
1.2386515e-20
1.2383543e-20
1.2381959e-20
1.2381248e-20
1.2381127e-20
1.2381518e-20
1.2382548e-20
1.2384641e-20
1.239971e-20
1.2390966e-20
1.238579e-20
1.2382826e-20
1.2381248e-20
1.2380542e-20
1.2380427e-20
1.2380824e-20
1.2381861e-20
1.2383959e-20
1.2399543e-20
1.2390811e-20
1.238565e-20
1.2382697e-20
1.2381127e-20
1.2380427e-20
1.2380316e-20
1.2380717e-20
1.2381758e-20
1.2383858e-20
1.2399844e-20
1.2391142e-20
1.2386009e-20
1.2383076e-20
1.2381518e-20
1.2380824e-20
1.2380717e-20
1.2381121e-20
1.2382164e-20
1.2384266e-20
1.2400703e-20
1.2392077e-20
1.2386996e-20
1.2384091e-20
1.2382548e-20
1.2381861e-20
1.2381758e-20
1.2382164e-20
1.2383209e-20
1.2385313e-20
1.2402459e-20
1.2394054e-20
1.2389049e-20
1.2386173e-20
1.2384641e-20
1.2383959e-20
1.2383858e-20
1.2384266e-20
1.2385313e-20
1.2387422e-20
2.4450561e-20
2.4433869e-20
2.4423942e-20
2.4418228e-20
2.4415162e-20
2.4413748e-20
2.4413425e-20
2.4413994e-20
2.4415611e-20
2.4418886e-20
2.4433869e-20
2.4417234e-20
2.4407329e-20
2.4401626e-20
2.4398568e-20
2.4397166e-20
2.4396867e-20
2.4397492e-20
2.4399257e-20
2.4402966e-20
2.4423942e-20
2.4407329e-20
2.4397438e-20
2.4391746e-20
2.4388698e-20
2.4387311e-20
2.438704e-20
2.4387721e-20
2.4389588e-20
2.4393443e-20
2.4418228e-20
2.4401626e-20
2.4391746e-20
2.4386062e-20
2.4383024e-20
2.4381651e-20
2.4381404e-20
2.4382123e-20
2.4384045e-20
2.4387955e-20
2.4415162e-20
2.4398568e-20
2.4388698e-20
2.4383024e-20
2.4379995e-20
2.4378634e-20
2.4378403e-20
2.4379144e-20
2.4381094e-20
2.4385027e-20
2.4413748e-20
2.4397166e-20
2.4387311e-20
2.4381651e-20
2.4378634e-20
2.4377283e-20
2.4377062e-20
2.4377817e-20
2.437978e-20
2.4383723e-20
2.4413425e-20
2.4396867e-20
2.438704e-20
2.4381404e-20
2.4378403e-20
2.4377062e-20
2.437685e-20
2.4377613e-20
2.4379583e-20
2.438353e-20
2.4413994e-20
2.4397492e-20
2.4387721e-20
2.4382123e-20
2.4379144e-20
2.4377817e-20
2.4377613e-20
2.437838e-20
2.4380355e-20
2.4384305e-20
2.4415611e-20
2.4399257e-20
2.4389588e-20
2.4384045e-20
2.4381094e-20
2.437978e-20
2.4379583e-20
2.4380355e-20
2.4382333e-20
2.4386287e-20
2.4418886e-20
2.4402966e-20
2.4393443e-20
2.4387955e-20
2.4385027e-20
2.4383723e-20
2.438353e-20
2.4384305e-20
2.4386287e-20
2.4390252e-20
4.8647984e-20
4.8616009e-20
4.8596918e-20
4.8585901e-20
4.8579979e-20
4.8577246e-20
4.8576617e-20
4.8577701e-20
4.8580776e-20
4.858695e-20
4.8616009e-20
4.8584145e-20
4.8565096e-20
4.8554099e-20
4.8548193e-20
4.8545482e-20
4.85449e-20
4.8546096e-20
4.8549462e-20
4.8556489e-20
4.8596918e-20
4.8565096e-20
4.8546074e-20
4.8535097e-20
4.8529211e-20
4.852653e-20
4.8526004e-20
4.8527309e-20
4.8530874e-20
4.853819e-20
4.8585901e-20
4.8554099e-20
4.8535097e-20
4.8524138e-20
4.8518271e-20
4.8515617e-20
4.8515137e-20
4.8516517e-20
4.8520191e-20
4.8527615e-20
4.8579979e-20
4.8548193e-20
4.8529211e-20
4.8518271e-20
4.8512422e-20
4.8509791e-20
4.8509342e-20
4.8510766e-20
4.8514495e-20
4.8521964e-20
4.8577246e-20
4.8545482e-20
4.852653e-20
4.8515617e-20
4.8509791e-20
4.850718e-20
4.8506752e-20
4.8508202e-20
4.8511957e-20
4.8519446e-20
4.8576617e-20
4.85449e-20
4.8526004e-20
4.8515137e-20
4.8509342e-20
4.8506752e-20
4.8506341e-20
4.8507806e-20
4.8511575e-20
4.8519072e-20
4.8577701e-20
4.8546096e-20
4.8527309e-20
4.8516517e-20
4.8510766e-20
4.8508202e-20
4.8507806e-20
4.8509281e-20
4.8513058e-20
4.8520561e-20
4.8580776e-20
4.8549462e-20
4.8530874e-20
4.8520191e-20
4.8514495e-20
4.8511957e-20
4.8511575e-20
4.8513058e-20
4.8516843e-20
4.8524353e-20
4.858695e-20
4.8556489e-20
4.853819e-20
4.8527615e-20
4.8521964e-20
4.8519446e-20
4.8519072e-20
4.8520561e-20
4.8524353e-20
4.8531883e-20
9.781907e-20
9.7757205e-20
9.7720123e-20
9.7698668e-20
9.7687117e-20
9.7681779e-20
9.7680543e-20
9.7682632e-20
9.7688539e-20
9.7700297e-20
9.7757205e-20
9.7695554e-20
9.7658551e-20
9.7637135e-20
9.7625615e-20
9.7620322e-20
9.7619179e-20
9.7621489e-20
9.7627976e-20
9.764143e-20
9.7720123e-20
9.7658551e-20
9.7621601e-20
9.7600225e-20
9.7588743e-20
9.7583508e-20
9.7582477e-20
9.7585004e-20
9.7591887e-20
9.7605914e-20
9.7698668e-20
9.7637135e-20
9.7600225e-20
9.7578883e-20
9.7567438e-20
9.7562258e-20
9.7561317e-20
9.7563993e-20
9.757109e-20
9.7585335e-20
9.7687117e-20
9.7625615e-20
9.7588743e-20
9.7567438e-20
9.7556031e-20
9.7550895e-20
9.7550016e-20
9.7552781e-20
9.7559987e-20
9.757432e-20
9.7681779e-20
9.7620322e-20
9.7583508e-20
9.7562258e-20
9.7550895e-20
9.7545798e-20
9.7544962e-20
9.7547777e-20
9.7555036e-20
9.7569407e-20
9.7680543e-20
9.7619179e-20
9.7582477e-20
9.7561317e-20
9.7550016e-20
9.7544962e-20
9.7544158e-20
9.7547003e-20
9.7554289e-20
9.7568678e-20
9.7682632e-20
9.7621489e-20
9.7585004e-20
9.7563993e-20
9.7552781e-20
9.7547777e-20
9.7547003e-20
9.7549868e-20
9.7557171e-20
9.7571571e-20
9.7688539e-20
9.7627976e-20
9.7591887e-20
9.757109e-20
9.7559987e-20
9.7555036e-20
9.7554289e-20
9.7557171e-20
9.7564486e-20
9.75789e-20
9.7700297e-20
9.764143e-20
9.7605914e-20
9.7585335e-20
9.757432e-20
9.7569407e-20
9.7568678e-20
9.7571571e-20
9.75789e-20
9.7593352e-20
1.9877758e-19
1.9865668e-19
1.9858393e-19
1.9854173e-19
1.9851898e-19
1.9850845e-19
1.98506e-19
1.9851007e-19
1.9852153e-19
1.9854416e-19
1.9865668e-19
1.9853619e-19
1.984636e-19
1.9842147e-19
1.9839878e-19
1.9838834e-19
1.9838608e-19
1.9839059e-19
1.9840322e-19
1.9842925e-19
1.9858393e-19
1.984636e-19
1.983911e-19
1.9834906e-19
1.9832644e-19
1.9831612e-19
1.9831408e-19
1.9831903e-19
1.9833245e-19
1.9835963e-19
1.9854173e-19
1.9842147e-19
1.9834906e-19
1.9830708e-19
1.9828454e-19
1.9827433e-19
1.9827247e-19
1.9827771e-19
1.9829157e-19
1.9831918e-19
1.9851898e-19
1.9839878e-19
1.9832644e-19
1.9828454e-19
1.9826207e-19
1.9825194e-19
1.9825021e-19
1.9825563e-19
1.982697e-19
1.982975e-19
1.9850845e-19
1.9838834e-19
1.9831612e-19
1.9827433e-19
1.9825194e-19
1.982419e-19
1.9824025e-19
1.9824577e-19
1.9825995e-19
1.9828782e-19
1.98506e-19
1.9838608e-19
1.9831408e-19
1.9827247e-19
1.9825021e-19
1.9824025e-19
1.9823866e-19
1.9824425e-19
1.9825848e-19
1.9828639e-19
1.9851007e-19
1.9839059e-19
1.9831903e-19
1.9827771e-19
1.9825563e-19
1.9824577e-19
1.9824425e-19
1.9824987e-19
1.9826414e-19
1.9829206e-19
1.9852153e-19
1.9840322e-19
1.9833245e-19
1.9829157e-19
1.982697e-19
1.9825995e-19
1.9825848e-19
1.9826414e-19
1.9827843e-19
1.9830638e-19
1.9854416e-19
1.9842925e-19
1.9835963e-19
1.9831918e-19
1.982975e-19
1.9828782e-19
1.9828639e-19
1.9829206e-19
1.9830638e-19
1.9833441e-19
4.082202e-19
4.0798156e-19
4.078374e-19
4.0775359e-19
4.0770831e-19
4.0768734e-19
4.0768244e-19
4.0769045e-19
4.0771294e-19
4.0775692e-19
4.0798156e-19
4.0774372e-19
4.0759987e-19
4.075162e-19
4.0747105e-19
4.0745026e-19
4.0744573e-19
4.0745464e-19
4.0747949e-19
4.0753038e-19
4.078374e-19
4.0759987e-19
4.0745623e-19
4.0737271e-19
4.0732771e-19
4.0730716e-19
4.0730308e-19
4.0731287e-19
4.0733933e-19
4.0739255e-19
4.0775359e-19
4.075162e-19
4.0737271e-19
4.0728933e-19
4.0724448e-19
4.0722415e-19
4.0722044e-19
4.0723082e-19
4.0725816e-19
4.0731227e-19
4.0770831e-19
4.0747105e-19
4.0732771e-19
4.0724448e-19
4.0719978e-19
4.0717963e-19
4.0717617e-19
4.0718692e-19
4.0721469e-19
4.0726916e-19
4.0768734e-19
4.0745026e-19
4.0730716e-19
4.0722415e-19
4.0717963e-19
4.0715963e-19
4.0715635e-19
4.071673e-19
4.0719529e-19
4.0724991e-19
4.0768244e-19
4.0744573e-19
4.0730308e-19
4.0722044e-19
4.0717617e-19
4.0715635e-19
4.0715319e-19
4.0716426e-19
4.0719236e-19
4.0724706e-19
4.0769045e-19
4.0745464e-19
4.0731287e-19
4.0723082e-19
4.0718692e-19
4.071673e-19
4.0716426e-19
4.0717542e-19
4.0720358e-19
4.0725832e-19
4.0771294e-19
4.0747949e-19
4.0733933e-19
4.0725816e-19
4.0721469e-19
4.0719529e-19
4.0719236e-19
4.0720358e-19
4.072318e-19
4.0728659e-19
4.0775692e-19
4.0753038e-19
4.0739255e-19
4.0731227e-19
4.0726916e-19
4.0724991e-19
4.0724706e-19
4.0725832e-19
4.0728659e-19
4.0734152e-19
8.4722369e-19
8.4674791e-19
8.4645944e-19
8.462913e-19
8.4620033e-19
8.4615817e-19
8.4614826e-19
8.4616418e-19
8.4620876e-19
8.4629514e-19
8.4674791e-19
8.4627374e-19
8.4598587e-19
8.4581802e-19
8.457273e-19
8.456855e-19
8.4567636e-19
8.4569412e-19
8.4574353e-19
8.4584407e-19
8.4645944e-19
8.4598587e-19
8.4569841e-19
8.4553086e-19
8.4544045e-19
8.4539913e-19
8.4539092e-19
8.4541048e-19
8.4546318e-19
8.455685e-19
8.462913e-19
8.4581802e-19
8.4553086e-19
8.4536359e-19
8.4527348e-19
8.4523261e-19
8.4522515e-19
8.4524594e-19
8.4530043e-19
8.4540756e-19
8.4620033e-19
8.457273e-19
8.4544045e-19
8.4527348e-19
8.4518369e-19
8.4514318e-19
8.4513623e-19
8.4515776e-19
8.4521315e-19
8.4532101e-19
8.4615817e-19
8.456855e-19
8.4539913e-19
8.4523261e-19
8.4514318e-19
8.45103e-19
8.450964e-19
8.4511835e-19
8.4517418e-19
8.4528236e-19
8.4614826e-19
8.4567636e-19
8.4539092e-19
8.4522515e-19
8.4513623e-19
8.450964e-19
8.4509007e-19
8.4511226e-19
8.4516832e-19
8.4527665e-19
8.4616418e-19
8.4569412e-19
8.4541048e-19
8.4524594e-19
8.4515776e-19
8.4511835e-19
8.4511226e-19
8.4513463e-19
8.4519081e-19
8.4529923e-19
8.4620876e-19
8.4574353e-19
8.4546318e-19
8.4530043e-19
8.4521315e-19
8.4517418e-19
8.4516832e-19
8.4519081e-19
8.452471e-19
8.4535562e-19
8.4629514e-19
8.4584407e-19
8.455685e-19
8.4540756e-19
8.4532101e-19
8.4528236e-19
8.4527665e-19
8.4529923e-19
8.4535562e-19
8.4546441e-19
1.776914e-18
1.7759561e-18
1.7753731e-18
1.7750324e-18
1.7748479e-18
1.7747622e-18
1.7747421e-18
1.7747741e-18
1.7748633e-18
1.7750347e-18
1.7759561e-18
1.7750013e-18
1.7744195e-18
1.7740794e-18
1.7738954e-18
1.7738105e-18
1.7737919e-18
1.7738277e-18
1.773927e-18
1.7741277e-18
1.7753731e-18
1.7744195e-18
1.7738385e-18
1.7734991e-18
1.7733157e-18
1.7732318e-18
1.7732151e-18
1.7732546e-18
1.7733607e-18
1.7735713e-18
1.7750324e-18
1.7740794e-18
1.7734991e-18
1.7731602e-18
1.7729774e-18
1.7728945e-18
1.7728793e-18
1.7729214e-18
1.7730311e-18
1.7732455e-18
1.7748479e-18
1.7738954e-18
1.7733157e-18
1.7729774e-18
1.7727953e-18
1.7727131e-18
1.772699e-18
1.7727426e-18
1.7728542e-18
1.77307e-18
1.7747622e-18
1.7738105e-18
1.7732318e-18
1.7728945e-18
1.7727131e-18
1.7726315e-18
1.7726182e-18
1.7726626e-18
1.7727751e-18
1.7729916e-18
1.7747421e-18
1.7737919e-18
1.7732151e-18
1.7728793e-18
1.772699e-18
1.7726182e-18
1.7726053e-18
1.7726503e-18
1.7727633e-18
1.7729801e-18
1.7747741e-18
1.7738277e-18
1.7732546e-18
1.7729214e-18
1.7727426e-18
1.7726626e-18
1.7726503e-18
1.7726956e-18
1.7728089e-18
1.7730258e-18
1.7748633e-18
1.773927e-18
1.7733607e-18
1.7730311e-18
1.7728542e-18
1.7727751e-18
1.7727633e-18
1.7728089e-18
1.7729223e-18
1.7731395e-18
1.7750347e-18
1.7741277e-18
1.7735713e-18
1.7732455e-18
1.77307e-18
1.7729916e-18
1.7729801e-18
1.7730258e-18
1.7731395e-18
1.7733573e-18
3.7660173e-18
3.7640694e-18
3.7628796e-18
3.7621827e-18
3.7618047e-18
3.7616291e-18
3.7615876e-18
3.7616526e-18
3.7618332e-18
3.7621767e-18
3.7640694e-18
3.7621279e-18
3.7609405e-18
3.7602449e-18
3.7598678e-18
3.7596938e-18
3.7596556e-18
3.7597285e-18
3.75993e-18
3.7603348e-18
3.7628796e-18
3.7609405e-18
3.7597548e-18
3.7590604e-18
3.7586847e-18
3.7585127e-18
3.7584785e-18
3.7585592e-18
3.7587749e-18
3.7592003e-18
3.7621827e-18
3.7602449e-18
3.7590604e-18
3.7583672e-18
3.7579928e-18
3.7578228e-18
3.7577917e-18
3.7578777e-18
3.7581011e-18
3.7585344e-18
3.7618047e-18
3.7598678e-18
3.7586847e-18
3.7579928e-18
3.7576196e-18
3.7574512e-18
3.7574224e-18
3.7575115e-18
3.7577388e-18
3.7581753e-18
3.7616291e-18
3.7596938e-18
3.7585127e-18
3.7578228e-18
3.7574512e-18
3.7572841e-18
3.7572568e-18
3.7573478e-18
3.7575769e-18
3.7580147e-18
3.7615876e-18
3.7596556e-18
3.7584785e-18
3.7577917e-18
3.7574224e-18
3.7572568e-18
3.7572307e-18
3.7573227e-18
3.7575528e-18
3.7579913e-18
3.7616526e-18
3.7597285e-18
3.7585592e-18
3.7578777e-18
3.7575115e-18
3.7573478e-18
3.7573227e-18
3.7574154e-18
3.7576461e-18
3.758085e-18
3.7618332e-18
3.75993e-18
3.7587749e-18
3.7581011e-18
3.7577388e-18
3.7575769e-18
3.7575528e-18
3.7576461e-18
3.7578773e-18
3.7583165e-18
3.7621767e-18
3.7603348e-18
3.7592003e-18
3.7585344e-18
3.7581753e-18
3.7580147e-18