/*--------------------------------*- C++ -*----------------------------------*\
| =========                 |                                                 |
| \\      /  F ield         | OpenFOAM: The Open Source CFD Toolbox           |
|  \\    /   O peration     | Version:  dev                                   |
|   \\  /    A nd           | Web:      www.OpenFOAM.org                      |
|    \\/     M anipulation  |                                                 |
\*---------------------------------------------------------------------------*/
FoamFile
{
    version     2.0;
    format      ascii;
    class       volScalarField;
    location    "66.995";
    object      A_0;
}
// * * * * * * * * * * * * * * * * * * * * * * * * * * * * * * * * * * * * * //

dimensions      [0 0 0 0 1 0 0];

internalField   nonuniform List<scalar> 
10000
(
1.9741867e-27
1.9713291e-27
1.9698928e-27
1.9691761e-27
1.9688466e-27
1.9687192e-27
1.9687054e-27
1.9687878e-27
1.9690155e-27
1.9695015e-27
1.9713291e-27
1.9684842e-27
1.9670522e-27
1.9663374e-27
1.9660089e-27
1.9658827e-27
1.9658713e-27
1.9659598e-27
1.9662041e-27
1.9667388e-27
1.9698928e-27
1.9670522e-27
1.9656227e-27
1.9649092e-27
1.9645817e-27
1.9644567e-27
1.964448e-27
1.9645421e-27
1.9647975e-27
1.9653486e-27
1.9691761e-27
1.9663374e-27
1.9649092e-27
1.9641966e-27
1.9638698e-27
1.9637458e-27
1.963739e-27
1.9638367e-27
1.9640977e-27
1.9646547e-27
1.9688466e-27
1.9660089e-27
1.9645817e-27
1.9638698e-27
1.9635436e-27
1.9634203e-27
1.9634146e-27
1.9635142e-27
1.9637777e-27
1.9643369e-27
1.9687192e-27
1.9658827e-27
1.9644567e-27
1.9637458e-27
1.9634203e-27
1.9632976e-27
1.9632925e-27
1.963393e-27
1.9636576e-27
1.9642176e-27
1.9687054e-27
1.9658713e-27
1.964448e-27
1.963739e-27
1.9634146e-27
1.9632925e-27
1.9632879e-27
1.9633888e-27
1.9636538e-27
1.9642142e-27
1.9687878e-27
1.9659598e-27
1.9645421e-27
1.9638367e-27
1.9635142e-27
1.963393e-27
1.9633888e-27
1.96349e-27
1.9637553e-27
1.9643159e-27
1.9690155e-27
1.9662041e-27
1.9647975e-27
1.9640977e-27
1.9637777e-27
1.9636576e-27
1.9636538e-27
1.9637553e-27
1.964021e-27
1.9645821e-27
1.9695015e-27
1.9667388e-27
1.9653486e-27
1.9646547e-27
1.9643369e-27
1.9642176e-27
1.9642142e-27
1.9643159e-27
1.9645821e-27
1.9651448e-27
6.7629004e-27
6.7534775e-27
6.7486146e-27
6.7461828e-27
6.745064e-27
6.7446312e-27
6.744584e-27
6.7448624e-27
6.7456336e-27
6.7473413e-27
6.7534775e-27
6.7440953e-27
6.7392469e-27
6.7368214e-27
6.735706e-27
6.735277e-27
6.735238e-27
6.7355372e-27
6.7363652e-27
6.7382406e-27
6.7486146e-27
6.7392469e-27
6.7344069e-27
6.7319858e-27
6.7308736e-27
6.730449e-27
6.730419e-27
6.7307376e-27
6.7316035e-27
6.7335348e-27
6.7461828e-27
6.7368214e-27
6.7319858e-27
6.7295677e-27
6.728458e-27
6.7280368e-27
6.7280133e-27
6.7283441e-27
6.7292292e-27
6.7311807e-27
6.745064e-27
6.735706e-27
6.7308736e-27
6.728458e-27
6.7273502e-27
6.7269314e-27
6.7269117e-27
6.7272489e-27
6.7281426e-27
6.7301017e-27
6.7446312e-27
6.735277e-27
6.730449e-27
6.7280368e-27
6.7269314e-27
6.7265144e-27
6.726497e-27
6.7268372e-27
6.7277345e-27
6.7296964e-27
6.744584e-27
6.735238e-27
6.730419e-27
6.7280133e-27
6.7269117e-27
6.726497e-27
6.726481e-27
6.7268227e-27
6.7277216e-27
6.7296846e-27
6.7448624e-27
6.7355372e-27
6.7307376e-27
6.7283441e-27
6.7272489e-27
6.7268372e-27
6.7268227e-27
6.7271654e-27
6.7280652e-27
6.7300291e-27
6.7456336e-27
6.7363652e-27
6.7316035e-27
6.7292292e-27
6.7281426e-27
6.7277345e-27
6.7277216e-27
6.7280652e-27
6.7289662e-27
6.7309318e-27
6.7473413e-27
6.7382406e-27
6.7335348e-27
6.7311807e-27
6.7301017e-27
6.7296964e-27
6.7296846e-27
6.7300291e-27
6.7309318e-27
6.7329032e-27
1.4511285e-26
1.4491719e-26
1.4481492e-26
1.4476364e-26
1.4474002e-26
1.4473087e-26
1.4472985e-26
1.4473568e-26
1.4475185e-26
1.4478875e-26
1.4491719e-26
1.4472236e-26
1.4462039e-26
1.4456924e-26
1.4454569e-26
1.4453662e-26
1.4453578e-26
1.4454206e-26
1.4455944e-26
1.4459992e-26
1.4481492e-26
1.4462039e-26
1.4451859e-26
1.4446754e-26
1.4444405e-26
1.4443508e-26
1.4443443e-26
1.4444112e-26
1.4445931e-26
1.4450099e-26
1.4476364e-26
1.4456924e-26
1.4446754e-26
1.4441654e-26
1.4439311e-26
1.4438421e-26
1.443837e-26
1.4439065e-26
1.4440925e-26
1.4445136e-26
1.4474002e-26
1.4454569e-26
1.4444405e-26
1.4439311e-26
1.4436972e-26
1.4436087e-26
1.4436045e-26
1.4436753e-26
1.4438631e-26
1.4442859e-26
1.4473087e-26
1.4453662e-26
1.4443508e-26
1.4438421e-26
1.4436087e-26
1.4435206e-26
1.4435168e-26
1.4435883e-26
1.4437769e-26
1.4442003e-26
1.4472985e-26
1.4453578e-26
1.4443443e-26
1.443837e-26
1.4436045e-26
1.4435168e-26
1.4435133e-26
1.4435851e-26
1.4437741e-26
1.4441977e-26
1.4473568e-26
1.4454206e-26
1.4444112e-26
1.4439065e-26
1.4436753e-26
1.4435883e-26
1.4435851e-26
1.4436571e-26
1.4438463e-26
1.4442701e-26
1.4475185e-26
1.4455944e-26
1.4445931e-26
1.4440925e-26
1.4438631e-26
1.4437769e-26
1.4437741e-26
1.4438463e-26
1.4440357e-26
1.4444598e-26
1.4478875e-26
1.4459992e-26
1.4450099e-26
1.4445136e-26
1.4442859e-26
1.4442003e-26
1.4441977e-26
1.4442701e-26
1.4444598e-26
1.4448852e-26
2.8794384e-26
2.8756803e-26
2.8737011e-26
2.872706e-26
2.8722469e-26
2.8720689e-26
2.8720488e-26
2.8721608e-26
2.8724711e-26
2.873185e-26
2.8756803e-26
2.871938e-26
2.8699646e-26
2.8689719e-26
2.8685142e-26
2.8683377e-26
2.868321e-26
2.8684418e-26
2.8687762e-26
2.8695609e-26
2.8737011e-26
2.8699646e-26
2.8679944e-26
2.8670035e-26
2.8665471e-26
2.8663725e-26
2.8663596e-26
2.8664886e-26
2.8668389e-26
2.8676472e-26
2.872706e-26
2.8689719e-26
2.8670035e-26
2.8660139e-26
2.8655585e-26
2.8653853e-26
2.8653752e-26
2.8655092e-26
2.8658676e-26
2.8666845e-26
2.8722469e-26
2.8685142e-26
2.8665471e-26
2.8655585e-26
2.8651039e-26
2.8649317e-26
2.8649232e-26
2.8650599e-26
2.865422e-26
2.866242e-26
2.8720689e-26
2.8683377e-26
2.8663725e-26
2.8653853e-26
2.8649317e-26
2.8647603e-26
2.8647527e-26
2.8648907e-26
2.8652543e-26
2.8660755e-26
2.8720488e-26
2.868321e-26
2.8663596e-26
2.8653752e-26
2.8649232e-26
2.8647527e-26
2.8647457e-26
2.8648843e-26
2.8652485e-26
2.8660702e-26
2.8721608e-26
2.8684418e-26
2.8664886e-26
2.8655092e-26
2.8650599e-26
2.8648907e-26
2.8648843e-26
2.8650234e-26
2.865388e-26
2.86621e-26
2.8724711e-26
2.8687762e-26
2.8668389e-26
2.8658676e-26
2.865422e-26
2.8652543e-26
2.8652485e-26
2.865388e-26
2.865753e-26
2.8665757e-26
2.873185e-26
2.8695609e-26
2.8676472e-26
2.8666845e-26
2.866242e-26
2.8660755e-26
2.8660702e-26
2.86621e-26
2.8665757e-26
2.867401e-26
5.6491e-26
5.6419654e-26
5.6381879e-26
5.6362835e-26
5.6354036e-26
5.6350618e-26
5.6350225e-26
5.6352345e-26
5.6358204e-26
5.637164e-26
5.6419654e-26
5.6348604e-26
5.6310937e-26
5.6291939e-26
5.6283166e-26
5.6279779e-26
5.6279452e-26
5.6281743e-26
5.628807e-26
5.6302892e-26
5.6381879e-26
5.6310937e-26
5.6273332e-26
5.6254369e-26
5.6245621e-26
5.624227e-26
5.6242016e-26
5.6244466e-26
5.6251103e-26
5.6266386e-26
5.6362835e-26
5.6291939e-26
5.6254369e-26
5.6235429e-26
5.6226701e-26
5.6223377e-26
5.6223177e-26
5.6225726e-26
5.6232521e-26
5.624797e-26
5.6354036e-26
5.6283166e-26
5.6245621e-26
5.6226701e-26
5.6217988e-26
5.6214684e-26
5.6214514e-26
5.6217116e-26
5.6223981e-26
5.6239492e-26
5.6350618e-26
5.6279779e-26
5.624227e-26
5.6223377e-26
5.6214684e-26
5.6211395e-26
5.6211243e-26
5.6213869e-26
5.6220764e-26
5.6236298e-26
5.6350225e-26
5.6279452e-26
5.6242016e-26
5.6223177e-26
5.6214514e-26
5.6211243e-26
5.6211104e-26
5.6213742e-26
5.622065e-26
5.6236193e-26
5.6352345e-26
5.6281743e-26
5.6244466e-26
5.6225726e-26
5.6217116e-26
5.6213869e-26
5.6213742e-26
5.6216388e-26
5.6223304e-26
5.6238853e-26
5.6358204e-26
5.628807e-26
5.6251103e-26
5.6232521e-26
5.6223981e-26
5.6220764e-26
5.622065e-26
5.6223304e-26
5.6230228e-26
5.624579e-26
5.637164e-26
5.6302892e-26
5.6266386e-26
5.624797e-26
5.6239492e-26
5.6236298e-26
5.6236193e-26
5.6238853e-26
5.624579e-26
5.62614e-26
1.1142649e-25
1.1129036e-25
1.1121796e-25
1.1118137e-25
1.1116444e-25
1.1115785e-25
1.1115708e-25
1.1116111e-25
1.1117219e-25
1.1119746e-25
1.1129036e-25
1.1115479e-25
1.110826e-25
1.110461e-25
1.1102921e-25
1.1102269e-25
1.1102204e-25
1.110264e-25
1.1103841e-25
1.1106639e-25
1.1121796e-25
1.110826e-25
1.1101053e-25
1.1097409e-25
1.1095726e-25
1.109508e-25
1.109503e-25
1.1095497e-25
1.1096758e-25
1.1099647e-25
1.1118137e-25
1.110461e-25
1.1097409e-25
1.109377e-25
1.109209e-25
1.109145e-25
1.109141e-25
1.1091897e-25
1.1093189e-25
1.109611e-25
1.1116444e-25
1.1102921e-25
1.1095726e-25
1.109209e-25
1.1090413e-25
1.1089777e-25
1.1089743e-25
1.109024e-25
1.1091546e-25
1.1094479e-25
1.1115785e-25
1.1102269e-25
1.109508e-25
1.109145e-25
1.1089777e-25
1.1089143e-25
1.1089113e-25
1.1089615e-25
1.1090926e-25
1.1093864e-25
1.1115708e-25
1.1102204e-25
1.109503e-25
1.109141e-25
1.1089743e-25
1.1089113e-25
1.1089085e-25
1.1089589e-25
1.1090904e-25
1.1093843e-25
1.1116111e-25
1.110264e-25
1.1095497e-25
1.1091897e-25
1.109024e-25
1.1089615e-25
1.1089589e-25
1.1090095e-25
1.1091411e-25
1.1094351e-25
1.1117219e-25
1.1103841e-25
1.1096758e-25
1.1093189e-25
1.1091546e-25
1.1090926e-25
1.1090904e-25
1.1091411e-25
1.1092728e-25
1.1095671e-25
1.1119746e-25
1.1106639e-25
1.1099647e-25
1.109611e-25
1.1094479e-25
1.1093864e-25
1.1093843e-25
1.1094351e-25
1.1095671e-25
1.1098623e-25
2.2196458e-25
2.2170239e-25
2.2156238e-25
2.2149143e-25
2.2145854e-25
2.2144574e-25
2.214442e-25
2.2145192e-25
2.2147309e-25
2.2152093e-25
2.2170239e-25
2.2144127e-25
2.2130164e-25
2.2123087e-25
2.2119807e-25
2.2118538e-25
2.211841e-25
2.2119248e-25
2.2121547e-25
2.2126869e-25
2.2156238e-25
2.2130164e-25
2.2116225e-25
2.210916e-25
2.210589e-25
2.2104634e-25
2.2104534e-25
2.2105434e-25
2.2107852e-25
2.2113353e-25
2.2149143e-25
2.2123087e-25
2.210916e-25
2.2102103e-25
2.209884e-25
2.2097595e-25
2.2097516e-25
2.2098454e-25
2.2100933e-25
2.2106498e-25
2.2145854e-25
2.2119807e-25
2.210589e-25
2.209884e-25
2.2095584e-25
2.2094346e-25
2.2094279e-25
2.2095237e-25
2.2097744e-25
2.2103333e-25
2.2144574e-25
2.2118538e-25
2.2104634e-25
2.2097595e-25
2.2094346e-25
2.2093115e-25
2.2093054e-25
2.2094022e-25
2.209654e-25
2.2102138e-25
2.214442e-25
2.211841e-25
2.2104534e-25
2.2097516e-25
2.2094279e-25
2.2093054e-25
2.2092999e-25
2.2093971e-25
2.2096494e-25
2.2102095e-25
2.2145192e-25
2.2119248e-25
2.2105434e-25
2.2098454e-25
2.2095237e-25
2.2094022e-25
2.2093971e-25
2.2094946e-25
2.2097472e-25
2.2103075e-25
2.2147309e-25
2.2121547e-25
2.2107852e-25
2.2100933e-25
2.2097744e-25
2.209654e-25
2.2096494e-25
2.2097472e-25
2.21e-25
2.2105609e-25
2.2152093e-25
2.2126869e-25
2.2113353e-25
2.2106498e-25
2.2103333e-25
2.2102138e-25
2.2102095e-25
2.2103075e-25
2.2105609e-25
2.2111234e-25
4.470963e-25
4.4658588e-25
4.4631222e-25
4.4617321e-25
4.4610867e-25
4.460835e-25
4.4608042e-25
4.4609538e-25
4.4613622e-25
4.4622772e-25
4.4658588e-25
4.4607752e-25
4.458046e-25
4.4566592e-25
4.4560156e-25
4.4557662e-25
4.4557406e-25
4.4559033e-25
4.456348e-25
4.4573707e-25
4.4631222e-25
4.458046e-25
4.4553214e-25
4.4539369e-25
4.4532952e-25
4.4530485e-25
4.4530285e-25
4.4532035e-25
4.4536722e-25
4.4547306e-25
4.4617321e-25
4.4566592e-25
4.4539369e-25
4.4525542e-25
4.4519139e-25
4.4516693e-25
4.4516534e-25
4.4518361e-25
4.4523169e-25
4.4533882e-25
4.4610867e-25
4.4560156e-25
4.4532952e-25
4.4519139e-25
4.4512749e-25
4.4510317e-25
4.4510182e-25
4.4512049e-25
4.4516911e-25
4.4527672e-25
4.460835e-25
4.4557662e-25
4.4530485e-25
4.4516693e-25
4.4510317e-25
4.4507897e-25
4.4507776e-25
4.4509661e-25
4.4514547e-25
4.4525325e-25
4.4608042e-25
4.4557406e-25
4.4530285e-25
4.4516534e-25
4.4510182e-25
4.4507776e-25
4.4507664e-25
4.4509559e-25
4.4514454e-25
4.4525239e-25
4.4609538e-25
4.4559033e-25
4.4532035e-25
4.4518361e-25
4.4512049e-25
4.4509661e-25
4.4509559e-25
4.4511459e-25
4.451636e-25
4.452715e-25
4.4613622e-25
4.456348e-25
4.4536722e-25
4.4523169e-25
4.4516911e-25
4.4514547e-25
4.4514454e-25
4.451636e-25
4.4521267e-25
4.4532066e-25
4.4622772e-25
4.4573707e-25
4.4547306e-25
4.4533882e-25
4.4527672e-25
4.4525325e-25
4.4525239e-25
4.452715e-25
4.4532066e-25
4.4542897e-25
9.1096298e-25
9.0995828e-25
9.094175e-25
9.0914214e-25
9.0901409e-25
9.0896408e-25
9.0895787e-25
9.0898717e-25
9.0906685e-25
9.0924377e-25
9.0995828e-25
9.089576e-25
9.0841828e-25
9.0814354e-25
9.0801586e-25
9.0796631e-25
9.0796112e-25
9.0799309e-25
9.0808011e-25
9.0827882e-25
9.094175e-25
9.0841828e-25
9.0787983e-25
9.0760557e-25
9.0747825e-25
9.0742924e-25
9.074252e-25
9.0745964e-25
9.0755148e-25
9.0775743e-25
9.0914214e-25
9.0814354e-25
9.0760557e-25
9.0733164e-25
9.0720462e-25
9.0715603e-25
9.0715281e-25
9.071888e-25
9.0728309e-25
9.0749164e-25
9.0901409e-25
9.0801586e-25
9.0747825e-25
9.0720462e-25
9.0707783e-25
9.0702954e-25
9.0702681e-25
9.0706359e-25
9.0715899e-25
9.073685e-25
9.0896408e-25
9.0796631e-25
9.0742924e-25
9.0715603e-25
9.0702954e-25
9.0698149e-25
9.0697903e-25
9.0701619e-25
9.0711206e-25
9.0732192e-25
9.0895787e-25
9.0796112e-25
9.074252e-25
9.0715281e-25
9.0702681e-25
9.0697903e-25
9.0697675e-25
9.0701411e-25
9.0711016e-25
9.0732017e-25
9.0898717e-25
9.0799309e-25
9.0745964e-25
9.071888e-25
9.0706359e-25
9.0701619e-25
9.0701411e-25
9.0705158e-25
9.0714775e-25
9.0735785e-25
9.0906685e-25
9.0808011e-25
9.0755148e-25
9.0728309e-25
9.0715899e-25
9.0711206e-25
9.0711016e-25
9.0714775e-25
9.0724403e-25
9.0745431e-25
9.0924377e-25
9.0827882e-25
9.0775743e-25
9.0749164e-25
9.073685e-25
9.0732192e-25
9.0732017e-25
9.0735785e-25
9.0745431e-25
9.076652e-25
1.8777741e-24
1.8757742e-24
1.8746937e-24
1.8741421e-24
1.8738852e-24
1.8737848e-24
1.8737721e-24
1.8738302e-24
1.8739874e-24
1.8743333e-24
1.8757742e-24
1.8737823e-24
1.8727046e-24
1.8721543e-24
1.8718981e-24
1.8717986e-24
1.871788e-24
1.8718516e-24
1.8720238e-24
1.8724143e-24
1.8746937e-24
1.8727046e-24
1.8716286e-24
1.8710793e-24
1.8708239e-24
1.8707255e-24
1.8707172e-24
1.8707857e-24
1.8709678e-24
1.8713732e-24
1.8741421e-24
1.8721543e-24
1.8710793e-24
1.8705306e-24
1.8702758e-24
1.8701782e-24
1.8701716e-24
1.8702433e-24
1.8704304e-24
1.870841e-24
1.8738852e-24
1.8718981e-24
1.8708239e-24
1.8702758e-24
1.8700214e-24
1.8699245e-24
1.8699189e-24
1.8699922e-24
1.8701815e-24
1.8705942e-24
1.8737848e-24
1.8717986e-24
1.8707255e-24
1.8701782e-24
1.8699245e-24
1.869828e-24
1.8698229e-24
1.8698971e-24
1.8700873e-24
1.8705007e-24
1.8737721e-24
1.871788e-24
1.8707172e-24
1.8701716e-24
1.8699189e-24
1.8698229e-24
1.8698183e-24
1.8698928e-24
1.8700835e-24
1.8704971e-24
1.8738302e-24
1.8718516e-24
1.8707857e-24
1.8702433e-24
1.8699922e-24
1.8698971e-24
1.8698928e-24
1.8699675e-24
1.8701584e-24
1.8705722e-24
1.8739874e-24
1.8720238e-24
1.8709678e-24
1.8704304e-24
1.8701815e-24
1.8700873e-24
1.8700835e-24
1.8701584e-24
1.8703495e-24
1.8707637e-24
1.8743333e-24
1.8724143e-24
1.8713732e-24
1.870841e-24
1.8705942e-24
1.8705007e-24
1.8704971e-24
1.8705722e-24
1.8707637e-24
1.871179e-24
3.9161762e-24
3.9121506e-24
3.9099672e-24
3.9088501e-24
3.908329e-24
3.908125e-24
3.9080989e-24
3.9082153e-24
3.908529e-24
3.9092133e-24
3.9121506e-24
3.9081408e-24
3.9059631e-24
3.9048485e-24
3.9043289e-24
3.9041268e-24
3.9041049e-24
3.9042326e-24
3.9045774e-24
3.9053538e-24
3.9099672e-24
3.9059631e-24
3.9037889e-24
3.9026761e-24
3.902158e-24
3.9019582e-24
3.9019411e-24
3.9020792e-24
3.9024443e-24
3.9032514e-24
3.9088501e-24
3.9048485e-24
3.9026761e-24
3.9015647e-24
3.9010478e-24
3.9008497e-24
3.9008362e-24
3.9009807e-24
3.9013562e-24
3.9021742e-24
3.908329e-24
3.9043289e-24
3.902158e-24
3.9010478e-24
3.9005319e-24
3.9003351e-24
3.9003235e-24
3.9004715e-24
3.9008516e-24
3.9016737e-24
3.908125e-24
3.9041268e-24
3.9019582e-24
3.9008497e-24
3.9003351e-24
3.9001392e-24
3.9001288e-24
3.9002784e-24
3.9006604e-24
3.901484e-24
3.9080989e-24
3.9041049e-24
3.9019411e-24
3.9008362e-24
3.9003235e-24
3.9001288e-24
3.9001192e-24
3.9002695e-24
3.9006524e-24
3.9014766e-24
3.9082153e-24
3.9042326e-24
3.9020792e-24
3.9009807e-24
3.9004715e-24
3.9002784e-24
3.9002695e-24
3.9004204e-24
3.9008037e-24
3.9016282e-24
3.908529e-24
3.9045774e-24
3.9024443e-24
3.9013562e-24
3.9008516e-24
3.9006604e-24
3.9006524e-24
3.9008037e-24
3.9011874e-24
3.9020127e-24
3.9092133e-24
3.9053538e-24
3.9032514e-24
3.9021742e-24
3.9016737e-24
3.901484e-24
3.9014766e-24
3.9016282e-24
3.9020127e-24
3.9028402e-24
8.2638322e-24
8.2556369e-24
8.2511752e-24
8.2488871e-24
8.2478182e-24
8.2473992e-24
8.2473449e-24
8.247581e-24
8.2482145e-24
8.2495832e-24
8.2556369e-24
8.2474736e-24
8.2430234e-24
8.2407402e-24
8.2396744e-24
8.2392593e-24
8.2392139e-24
8.2394735e-24
8.2401718e-24
8.2417335e-24
8.2511752e-24
8.2430234e-24
8.2385803e-24
8.236301e-24
8.2352382e-24
8.2348278e-24
8.2347924e-24
8.2350737e-24
8.2358145e-24
8.2374402e-24
8.2488871e-24
8.2407402e-24
8.236301e-24
8.2340244e-24
8.2329641e-24
8.2325575e-24
8.2325292e-24
8.2328241e-24
8.2335864e-24
8.2352351e-24
8.2478182e-24
8.2396744e-24
8.2352382e-24
8.2329641e-24
8.2319059e-24
8.2315018e-24
8.2314778e-24
8.2317797e-24
8.2325518e-24
8.2342089e-24
8.2473992e-24
8.2392593e-24
8.2348278e-24
8.2325575e-24
8.2315018e-24
8.2310997e-24
8.2310782e-24
8.2313834e-24
8.2321595e-24
8.2338198e-24
8.2473449e-24
8.2392139e-24
8.2347924e-24
8.2325292e-24
8.2314778e-24
8.2310782e-24
8.2310582e-24
8.2313651e-24
8.2321429e-24
8.2338044e-24
8.247581e-24
8.2394735e-24
8.2350737e-24
8.2328241e-24
8.2317797e-24
8.2313834e-24
8.2313651e-24
8.231673e-24
8.2324517e-24
8.234114e-24
8.2482145e-24
8.2401718e-24
8.2358145e-24
8.2335864e-24
8.2325518e-24
8.2321595e-24
8.2321429e-24
8.2324517e-24
8.2332314e-24
8.234895e-24
8.2495832e-24
8.2417335e-24
8.2374402e-24
8.2352351e-24
8.2342089e-24
8.2338198e-24
8.2338044e-24
8.234114e-24
8.234895e-24
8.2365633e-24
1.7644942e-23
1.7628068e-23
1.7618848e-23
1.7614108e-23
1.7611891e-23
1.7611021e-23
1.7610907e-23
1.7611391e-23
1.7612685e-23
1.7615455e-23
1.7628068e-23
1.761126e-23
1.7602063e-23
1.7597334e-23
1.7595123e-23
1.7594261e-23
1.7594165e-23
1.7594699e-23
1.759613e-23
1.7599308e-23
1.7618848e-23
1.7602063e-23
1.7592881e-23
1.7588159e-23
1.7585955e-23
1.7585103e-23
1.7585028e-23
1.7585608e-23
1.7587129e-23
1.7590442e-23
1.7614108e-23
1.7597334e-23
1.7588159e-23
1.7583444e-23
1.7581244e-23
1.75804e-23
1.7580341e-23
1.7580949e-23
1.7582515e-23
1.7585877e-23
1.7611891e-23
1.7595123e-23
1.7585955e-23
1.7581244e-23
1.7579049e-23
1.757821e-23
1.757816e-23
1.7578783e-23
1.758037e-23
1.758375e-23
1.7611021e-23
1.7594261e-23
1.7585103e-23
1.75804e-23
1.757821e-23
1.7577376e-23
1.757733e-23
1.7577961e-23
1.7579556e-23
1.7582942e-23
1.7610907e-23
1.7594165e-23
1.7585028e-23
1.7580341e-23
1.757816e-23
1.757733e-23
1.7577289e-23
1.7577923e-23
1.7579521e-23
1.758291e-23
1.7611391e-23
1.7594699e-23
1.7585608e-23
1.7580949e-23
1.7578783e-23
1.7577961e-23
1.7577923e-23
1.7578559e-23
1.7580159e-23
1.758355e-23
1.7612685e-23
1.759613e-23
1.7587129e-23
1.7582515e-23
1.758037e-23
1.7579556e-23
1.7579521e-23
1.7580159e-23
1.7581762e-23
1.7585155e-23
1.7615455e-23
1.7599308e-23
1.7590442e-23
1.7585877e-23
1.758375e-23
1.7582942e-23
1.758291e-23
1.758355e-23
1.7585155e-23
1.7588558e-23
3.8123557e-23
3.808842e-23
3.806915e-23
3.8059222e-23
3.805457e-23
3.8052743e-23
3.80525e-23
3.8053506e-23
3.805618e-23
3.806185e-23
3.808842e-23
3.8053417e-23
3.8034196e-23
3.8024288e-23
3.801965e-23
3.801784e-23
3.8017638e-23
3.8018749e-23
3.8021716e-23
3.802826e-23
3.806915e-23
3.8034196e-23
3.8015003e-23
3.8005113e-23
3.8000488e-23
3.7998699e-23
3.7998542e-23
3.7999751e-23
3.8002909e-23
3.8009742e-23
3.8059222e-23
3.8024288e-23
3.8005113e-23
3.7995234e-23
3.799062e-23
3.7988848e-23
3.7988723e-23
3.7989994e-23
3.7993249e-23
3.8000185e-23
3.805457e-23
3.801965e-23
3.8000488e-23
3.799062e-23
3.7986016e-23
3.7984255e-23
3.7984149e-23
3.7985451e-23
3.798875e-23
3.7995725e-23
3.8052743e-23
3.801784e-23
3.7998699e-23
3.7988848e-23
3.7984255e-23
3.7982503e-23
3.7982408e-23
3.7983725e-23
3.7987043e-23
3.7994032e-23
3.80525e-23
3.8017638e-23
3.7998542e-23
3.7988723e-23
3.7984149e-23
3.7982408e-23
3.798232e-23
3.7983645e-23
3.798697e-23
3.7993964e-23
3.8053506e-23
3.8018749e-23
3.7999751e-23
3.7989994e-23
3.7985451e-23
3.7983725e-23
3.7983645e-23
3.7984974e-23
3.7988303e-23
3.7995301e-23
3.805618e-23
3.8021716e-23
3.8002909e-23
3.7993249e-23
3.798875e-23
3.7987043e-23
3.798697e-23
3.7988303e-23
3.7991636e-23
3.799864e-23
3.806185e-23
3.802826e-23
3.8009742e-23
3.8000185e-23
3.7995725e-23
3.7994032e-23
3.7993964e-23
3.7995301e-23
3.799864e-23
3.8005662e-23
8.3351202e-23
8.32772e-23
8.3236469e-23
8.3215438e-23
8.3205571e-23
8.320169e-23
8.3201169e-23
8.3203282e-23
8.3208871e-23
8.3220613e-23
8.32772e-23
8.3203479e-23
8.3162849e-23
8.3141861e-23
8.3132021e-23
8.3128178e-23
8.3127744e-23
8.3130086e-23
8.3136308e-23
8.3149941e-23
8.3236469e-23
8.3162849e-23
8.3122281e-23
8.3101328e-23
8.3091517e-23
8.3087719e-23
8.3087382e-23
8.3089934e-23
8.3096572e-23
8.3110829e-23
8.3215438e-23
8.3141861e-23
8.3101328e-23
8.30804e-23
8.3070612e-23
8.306685e-23
8.3066583e-23
8.3069267e-23
8.3076114e-23
8.3090596e-23
8.3205571e-23
8.3132021e-23
8.3091517e-23
8.3070612e-23
8.3060845e-23
8.3057107e-23
8.3056881e-23
8.3059634e-23
8.3066575e-23
8.308114e-23
8.320169e-23
8.3128178e-23
8.3087719e-23
8.306685e-23
8.3057107e-23
8.3053389e-23
8.3053186e-23
8.3055972e-23
8.3062952e-23
8.3077548e-23
8.3201169e-23
8.3127744e-23
8.3087382e-23
8.3066583e-23
8.3056881e-23
8.3053186e-23
8.3052999e-23
8.3055801e-23
8.3062798e-23
8.3077405e-23
8.3203282e-23
8.3130086e-23
8.3089934e-23
8.3069267e-23
8.3059634e-23
8.3055972e-23
8.3055801e-23
8.3058612e-23
8.3065618e-23
8.3080233e-23
8.3208871e-23
8.3136308e-23
8.3096572e-23
8.3076114e-23
8.3066575e-23
8.3062952e-23
8.3062798e-23
8.3065618e-23
8.3072632e-23
8.3087259e-23
8.3220613e-23
8.3149941e-23
8.3110829e-23
8.3090596e-23
8.308114e-23
8.3077548e-23
8.3077405e-23
8.3080233e-23
8.3087259e-23
8.3101923e-23
1.84409e-22
1.8425136e-22
1.841643e-22
1.8411924e-22
1.8409807e-22
1.8408974e-22
1.8408861e-22
1.840931e-22
1.8410492e-22
1.8412952e-22
1.8425136e-22
1.8409433e-22
1.8400747e-22
1.839625e-22
1.8394139e-22
1.8393314e-22
1.839322e-22
1.8393719e-22
1.839504e-22
1.8397914e-22
1.841643e-22
1.8400747e-22
1.8392075e-22
1.8387586e-22
1.8385481e-22
1.8384665e-22
1.8384593e-22
1.8385138e-22
1.8386549e-22
1.838956e-22
1.8411924e-22
1.839625e-22
1.8387586e-22
1.8383102e-22
1.8381002e-22
1.8380194e-22
1.8380137e-22
1.8380711e-22
1.8382168e-22
1.8385228e-22
1.8409807e-22
1.8394139e-22
1.8385481e-22
1.8381002e-22
1.8378907e-22
1.8378104e-22
1.8378056e-22
1.8378645e-22
1.8380123e-22
1.83832e-22
1.8408974e-22
1.8393314e-22
1.8384665e-22
1.8380194e-22
1.8378104e-22
1.8377307e-22
1.8377263e-22
1.8377859e-22
1.8379345e-22
1.838243e-22
1.8408861e-22
1.839322e-22
1.8384593e-22
1.8380137e-22
1.8378056e-22
1.8377263e-22
1.8377223e-22
1.8377822e-22
1.8379312e-22
1.8382399e-22
1.840931e-22
1.8393719e-22
1.8385138e-22
1.8380711e-22
1.8378645e-22
1.8377859e-22
1.8377822e-22
1.8378424e-22
1.8379916e-22
1.8383004e-22
1.8410492e-22
1.839504e-22
1.8386549e-22
1.8382168e-22
1.8380123e-22
1.8379345e-22
1.8379312e-22
1.8379916e-22
1.838141e-22
1.8384501e-22
1.8412952e-22
1.8397914e-22
1.838956e-22
1.8385228e-22
1.83832e-22
1.838243e-22
1.8382399e-22
1.8383004e-22
1.8384501e-22
1.8387599e-22
4.1286306e-22
4.1252347e-22
4.1233524e-22
4.1223763e-22
4.121917e-22
4.1217361e-22
4.1217113e-22
4.1218079e-22
4.122061e-22
4.1225823e-22
4.1252347e-22
4.1218515e-22
4.1199737e-22
4.1189995e-22
4.1185415e-22
4.1183624e-22
4.1183418e-22
4.1184495e-22
4.1187331e-22
4.1193461e-22
4.1233524e-22
4.1199737e-22
4.1180988e-22
4.1171262e-22
4.1166696e-22
4.1164926e-22
4.1164767e-22
4.1165945e-22
4.1168982e-22
4.1175414e-22
4.1223763e-22
4.1189995e-22
4.1171262e-22
4.1161548e-22
4.1156992e-22
4.1155239e-22
4.1155114e-22
4.1156356e-22
4.1159494e-22
4.1166035e-22
4.121917e-22
4.1185415e-22
4.1166696e-22
4.1156992e-22
4.1152447e-22
4.1150705e-22
4.11506e-22
4.1151875e-22
4.1155059e-22
4.1161639e-22
4.1217361e-22
4.1183624e-22
4.1164926e-22
4.1155239e-22
4.1150705e-22
4.1148974e-22
4.114888e-22
4.115017e-22
4.1153373e-22
4.1159968e-22
4.1217113e-22
4.1183418e-22
4.1164767e-22
4.1155114e-22
4.11506e-22
4.114888e-22
4.1148794e-22
4.1150092e-22
4.1153302e-22
4.1159903e-22
4.1218079e-22
4.1184495e-22
4.1165945e-22
4.1156356e-22
4.1151875e-22
4.115017e-22
4.1150092e-22
4.1151395e-22
4.1154609e-22
4.1161214e-22
4.122061e-22
4.1187331e-22
4.1168982e-22
4.1159494e-22
4.1155059e-22
4.1153373e-22
4.1153302e-22
4.1154609e-22
4.1157827e-22
4.1164437e-22
4.1225823e-22
4.1193461e-22
4.1175414e-22
4.1166035e-22
4.1161639e-22
4.1159968e-22
4.1159903e-22
4.1161214e-22
4.1164437e-22
4.1171063e-22
9.3536411e-22
9.3462421e-22
9.342127e-22
9.3399883e-22
9.3389808e-22
9.3385834e-22
9.3385288e-22
9.338739e-22
9.3392868e-22
9.3404048e-22
9.3462421e-22
9.3388705e-22
9.3347652e-22
9.3326307e-22
9.3316259e-22
9.3312326e-22
9.3311873e-22
9.3314222e-22
9.3320385e-22
9.3333615e-22
9.342127e-22
9.3347652e-22
9.3306659e-22
9.3285349e-22
9.3275332e-22
9.3271446e-22
9.3271098e-22
9.3273674e-22
9.3280285e-22
9.3294192e-22
9.3399883e-22
9.3326307e-22
9.3285349e-22
9.3264065e-22
9.3254072e-22
9.3250224e-22
9.3249951e-22
9.325267e-22
9.3259507e-22
9.3273656e-22
9.3389808e-22
9.3316259e-22
9.3275332e-22
9.3254072e-22
9.32441e-22
9.3240279e-22
9.3240049e-22
9.3242842e-22
9.3249781e-22
9.3264019e-22
9.3385834e-22
9.3312326e-22
9.3271446e-22
9.3250224e-22
9.3240279e-22
9.3236479e-22
9.3236274e-22
9.3239102e-22
9.3246083e-22
9.3260355e-22
9.3385288e-22
9.3311873e-22
9.3271098e-22
9.3249951e-22
9.3240049e-22
9.3236274e-22
9.3236087e-22
9.3238931e-22
9.324593e-22
9.3260215e-22
9.338739e-22
9.3314222e-22
9.3273674e-22
9.325267e-22
9.3242842e-22
9.3239102e-22
9.3238931e-22
9.3241786e-22
9.3248794e-22
9.3263086e-22
9.3392868e-22
9.3320385e-22
9.3280285e-22
9.3259507e-22
9.3249781e-22
9.3246083e-22
9.324593e-22
9.3248794e-22
9.3255811e-22
9.3270114e-22
9.3404048e-22
9.3333615e-22
9.3294192e-22
9.3273656e-22
9.3264019e-22
9.3260355e-22
9.3260215e-22
9.3263086e-22
9.3270114e-22
9.3284452e-22
2.1443616e-21
2.1427312e-21
2.1418215e-21
2.1413476e-21
2.1411241e-21
2.1410359e-21
2.1410237e-21
2.14107e-21
2.14119e-21
2.1414325e-21
2.1427312e-21
2.1411069e-21
2.1401993e-21
2.1397263e-21
2.1395035e-21
2.1394161e-21
2.1394061e-21
2.1394579e-21
2.1395934e-21
2.1398823e-21
2.1418215e-21
2.1401993e-21
2.1392929e-21
2.1388208e-21
2.1385986e-21
2.1385123e-21
2.1385046e-21
2.1385616e-21
2.1387072e-21
2.1390115e-21
2.1413476e-21
2.1397263e-21
2.1388208e-21
2.1383492e-21
2.1381276e-21
2.1380422e-21
2.1380361e-21
2.1380964e-21
2.1382471e-21
2.1385568e-21
2.1411241e-21
2.1395035e-21
2.1385986e-21
2.1381276e-21
2.1379064e-21
2.1378216e-21
2.1378165e-21
2.1378784e-21
2.1380314e-21
2.1383432e-21
2.1410359e-21
2.1394161e-21
2.1385123e-21
2.1380422e-21
2.1378216e-21
2.1377373e-21
2.1377328e-21
2.1377954e-21
2.1379494e-21
2.1382619e-21
2.1410237e-21
2.1394061e-21
2.1385046e-21
2.1380361e-21
2.1378165e-21
2.1377328e-21
2.1377287e-21
2.1377917e-21
2.1379461e-21
2.1382589e-21
2.14107e-21
2.1394579e-21
2.1385616e-21
2.1380964e-21
2.1378784e-21
2.1377954e-21
2.1377917e-21
2.137855e-21
2.1380096e-21
2.1383226e-21
2.14119e-21
2.1395934e-21
2.1387072e-21
2.1382471e-21
2.1380314e-21
2.1379494e-21
2.1379461e-21
2.1380096e-21
2.1381644e-21
2.1384776e-21
2.1414325e-21
2.1398823e-21
2.1390115e-21
2.1385568e-21
2.1383432e-21
2.1382619e-21
2.1382589e-21
2.1383226e-21
2.1384776e-21
2.1387916e-21
4.9744421e-21
4.9708094e-21
4.9687755e-21
4.967714e-21
4.9672127e-21
4.9670147e-21
4.9669872e-21
4.9670903e-21
4.9673563e-21
4.9678885e-21
4.9708094e-21
4.96719e-21
4.9651607e-21
4.9641013e-21
4.9636013e-21
4.9634054e-21
4.9633827e-21
4.9634985e-21
4.9638e-21
4.9644384e-21
4.9687755e-21
4.9651607e-21
4.9631345e-21
4.9620768e-21
4.9615783e-21
4.9613848e-21
4.9613674e-21
4.9614951e-21
4.9618197e-21
4.9624931e-21
4.967714e-21
4.9641013e-21
4.9620768e-21
4.9610203e-21
4.9605231e-21
4.9603315e-21
4.9603181e-21
4.9604531e-21
4.9607893e-21
4.9614753e-21
4.9672127e-21
4.9636013e-21
4.9615783e-21
4.9605231e-21
4.9600269e-21
4.9598367e-21
4.9598256e-21
4.9599643e-21
4.9603059e-21
4.9609965e-21
4.9670147e-21
4.9634054e-21
4.9613848e-21
4.9603315e-21
4.9598367e-21
4.9596476e-21
4.9596377e-21
4.9597783e-21
4.960122e-21
4.9608144e-21
4.9669872e-21
4.9633827e-21
4.9613674e-21
4.9603181e-21
4.9598256e-21
4.9596377e-21
4.9596287e-21
4.9597702e-21
4.9601148e-21
4.9608078e-21
4.9670903e-21
4.9634985e-21
4.9614951e-21
4.9604531e-21
4.9599643e-21
4.9597783e-21
4.9597702e-21
4.9599122e-21
4.9602573e-21
4.9609507e-21
4.9673563e-21
4.9638e-21
4.9618197e-21
4.9607893e-21
4.9603059e-21
4.960122e-21
4.9601148e-21
4.9602573e-21
4.9606028e-21
4.9612967e-21
4.9678885e-21
4.9644384e-21
4.9624931e-21
4.9614753e-21
4.9609965e-21
4.9608144e-21
4.9608078e-21
4.9609507e-21
4.9612967e-21
4.9619923e-21
1.1676171e-20
1.1667986e-20
1.1663388e-20
1.1660984e-20
1.1659847e-20
1.1659397e-20
1.1659335e-20
1.1659567e-20
1.1660164e-20
1.1661345e-20
1.1667986e-20
1.165983e-20
1.1655243e-20
1.1652843e-20
1.1651709e-20
1.1651265e-20
1.1651213e-20
1.1651475e-20
1.1652154e-20
1.1653581e-20
1.1663388e-20
1.1655243e-20
1.1650663e-20
1.1648267e-20
1.1647136e-20
1.1646697e-20
1.1646658e-20
1.1646947e-20
1.1647679e-20
1.1649188e-20
1.1660984e-20
1.1652843e-20
1.1648267e-20
1.1645874e-20
1.1644746e-20
1.1644312e-20
1.1644281e-20
1.1644587e-20
1.1645346e-20
1.1646884e-20
1.1659847e-20
1.1651709e-20
1.1647136e-20
1.1644746e-20
1.1643621e-20
1.164319e-20
1.1643165e-20
1.164348e-20
1.1644251e-20
1.1645799e-20
1.1659397e-20
1.1651265e-20
1.1646697e-20
1.1644312e-20
1.164319e-20
1.1642761e-20
1.1642739e-20
1.1643058e-20
1.1643834e-20
1.1645386e-20
1.1659335e-20
1.1651213e-20
1.1646658e-20
1.1644281e-20
1.1643165e-20
1.1642739e-20
1.1642719e-20
1.164304e-20
1.1643818e-20
1.1645372e-20
1.1659567e-20
1.1651475e-20
1.1646947e-20
1.1644587e-20
1.164348e-20
1.1643058e-20
1.164304e-20
1.1643362e-20
1.1644141e-20
1.1645696e-20
1.1660164e-20
1.1652154e-20
1.1647679e-20
1.1645346e-20
1.1644251e-20
1.1643834e-20
1.1643818e-20
1.1644141e-20
1.1644922e-20
1.1646477e-20
1.1661345e-20
1.1653581e-20
1.1649188e-20
1.1646884e-20
1.1645799e-20
1.1645386e-20
1.1645372e-20
1.1645696e-20
1.1646477e-20
1.1648037e-20
2.7729409e-20