/*--------------------------------*- C++ -*----------------------------------*\
| =========                 |                                                 |
| \\      /  F ield         | OpenFOAM: The Open Source CFD Toolbox           |
|  \\    /   O peration     | Version:  dev                                   |
|   \\  /    A nd           | Web:      www.OpenFOAM.org                      |
|    \\/     M anipulation  |                                                 |
\*---------------------------------------------------------------------------*/
FoamFile
{
    version     2.0;
    format      ascii;
    class       volScalarField;
    location    "28";
    object      A;
}
// * * * * * * * * * * * * * * * * * * * * * * * * * * * * * * * * * * * * * //

dimensions      [0 0 0 0 1 0 0];

internalField   nonuniform List<scalar> 
10000
(
1.746002e-45
1.7458775e-45
1.7458161e-45
1.7457868e-45
1.7457739e-45
1.7457689e-45
1.7457675e-45
1.745768e-45
1.7457706e-45
1.7457781e-45
1.7458775e-45
1.7457531e-45
1.7456917e-45
1.7456624e-45
1.7456496e-45
1.7456446e-45
1.7456433e-45
1.7456439e-45
1.745647e-45
1.7456561e-45
1.7458161e-45
1.7456917e-45
1.7456303e-45
1.745601e-45
1.7455882e-45
1.7455833e-45
1.745582e-45
1.7455828e-45
1.7455862e-45
1.7455959e-45
1.7457868e-45
1.7456624e-45
1.745601e-45
1.7455717e-45
1.7455589e-45
1.745554e-45
1.7455527e-45
1.7455536e-45
1.7455573e-45
1.7455671e-45
1.7457739e-45
1.7456496e-45
1.7455882e-45
1.7455589e-45
1.7455461e-45
1.7455412e-45
1.74554e-45
1.7455409e-45
1.7455446e-45
1.7455545e-45
1.7457689e-45
1.7456446e-45
1.7455833e-45
1.745554e-45
1.7455412e-45
1.7455363e-45
1.7455351e-45
1.7455361e-45
1.7455398e-45
1.7455497e-45
1.7457675e-45
1.7456433e-45
1.745582e-45
1.7455527e-45
1.74554e-45
1.7455351e-45
1.7455339e-45
1.7455349e-45
1.7455386e-45
1.7455485e-45
1.745768e-45
1.7456439e-45
1.7455828e-45
1.7455536e-45
1.7455409e-45
1.7455361e-45
1.7455349e-45
1.7455359e-45
1.7455396e-45
1.7455495e-45
1.7457706e-45
1.745647e-45
1.7455862e-45
1.7455573e-45
1.7455446e-45
1.7455398e-45
1.7455386e-45
1.7455396e-45
1.7455433e-45
1.7455532e-45
1.7457781e-45
1.7456561e-45
1.7455959e-45
1.7455671e-45
1.7455545e-45
1.7455497e-45
1.7455485e-45
1.7455495e-45
1.7455532e-45
1.7455631e-45
7.4802924e-45
7.4797758e-45
7.4795167e-45
7.4793927e-45
7.4793385e-45
7.4793174e-45
7.4793114e-45
7.4793134e-45
7.4793243e-45
7.4793569e-45
7.4797758e-45
7.4792593e-45
7.4790003e-45
7.4788763e-45
7.4788221e-45
7.4788012e-45
7.4787955e-45
7.4787983e-45
7.4788115e-45
7.478851e-45
7.4795167e-45
7.4790003e-45
7.4787413e-45
7.4786174e-45
7.4785632e-45
7.4785424e-45
7.478537e-45
7.4785404e-45
7.478555e-45
7.4785968e-45
7.4793927e-45
7.4788763e-45
7.4786174e-45
7.4784935e-45
7.4784394e-45
7.4784187e-45
7.4784134e-45
7.4784173e-45
7.4784326e-45
7.4784752e-45
7.4793385e-45
7.4788221e-45
7.4785632e-45
7.4784394e-45
7.4783853e-45
7.4783646e-45
7.4783595e-45
7.4783636e-45
7.4783792e-45
7.478422e-45
7.4793174e-45
7.4788012e-45
7.4785424e-45
7.4784187e-45
7.4783646e-45
7.478344e-45
7.4783389e-45
7.4783431e-45
7.4783588e-45
7.4784017e-45
7.4793114e-45
7.4787955e-45
7.478537e-45
7.4784134e-45
7.4783595e-45
7.4783389e-45
7.4783339e-45
7.4783381e-45
7.4783538e-45
7.4783967e-45
7.4793134e-45
7.4787983e-45
7.4785404e-45
7.4784173e-45
7.4783636e-45
7.4783431e-45
7.4783381e-45
7.4783423e-45
7.478358e-45
7.4784009e-45
7.4793243e-45
7.4788115e-45
7.478555e-45
7.4784326e-45
7.4783792e-45
7.4783588e-45
7.4783538e-45
7.478358e-45
7.4783737e-45
7.4784167e-45
7.4793569e-45
7.478851e-45
7.4785968e-45
7.4784752e-45
7.478422e-45
7.4784017e-45
7.4783967e-45
7.4784009e-45
7.4784167e-45
7.4784597e-45
2.3163065e-44
2.3161512e-44
2.3160728e-44
2.3160352e-44
2.3160187e-44
2.3160123e-44
2.3160105e-44
2.3160111e-44
2.3160144e-44
2.3160243e-44
2.3161512e-44
2.3159959e-44
2.3159175e-44
2.3158799e-44
2.3158635e-44
2.3158571e-44
2.3158554e-44
2.3158563e-44
2.3158602e-44
2.3158722e-44
2.3160728e-44
2.3159175e-44
2.3158392e-44
2.3158016e-44
2.3157852e-44
2.3157788e-44
2.3157772e-44
2.3157782e-44
2.3157826e-44
2.3157953e-44
2.3160352e-44
2.3158799e-44
2.3158016e-44
2.315764e-44
2.3157476e-44
2.3157413e-44
2.3157397e-44
2.3157409e-44
2.3157455e-44
2.3157585e-44
2.3160187e-44
2.3158635e-44
2.3157852e-44
2.3157476e-44
2.3157312e-44
2.3157249e-44
2.3157234e-44
2.3157246e-44
2.3157293e-44
2.3157423e-44
2.3160123e-44
2.3158571e-44
2.3157788e-44
2.3157413e-44
2.3157249e-44
2.3157187e-44
2.3157171e-44
2.3157184e-44
2.3157231e-44
2.3157362e-44
2.3160105e-44
2.3158554e-44
2.3157772e-44
2.3157397e-44
2.3157234e-44
2.3157171e-44
2.3157156e-44
2.3157169e-44
2.3157216e-44
2.3157347e-44
2.3160111e-44
2.3158563e-44
2.3157782e-44
2.3157409e-44
2.3157246e-44
2.3157184e-44
2.3157169e-44
2.3157182e-44
2.3157229e-44
2.3157359e-44
2.3160144e-44
2.3158602e-44
2.3157826e-44
2.3157455e-44
2.3157293e-44
2.3157231e-44
2.3157216e-44
2.3157229e-44
2.3157277e-44
2.3157407e-44
2.3160243e-44
2.3158722e-44
2.3157953e-44
2.3157585e-44
2.3157423e-44
2.3157362e-44
2.3157347e-44
2.3157359e-44
2.3157407e-44
2.3157538e-44
7.0724237e-44
7.0719635e-44
7.0717302e-44
7.0716182e-44
7.0715691e-44
7.07155e-44
7.0715445e-44
7.0715463e-44
7.071556e-44
7.0715847e-44
7.0719635e-44
7.0715036e-44
7.0712703e-44
7.0711583e-44
7.0711092e-44
7.0710902e-44
7.0710851e-44
7.0710876e-44
7.0710993e-44
7.0711344e-44
7.0717302e-44
7.0712703e-44
7.0710371e-44
7.0709251e-44
7.070876e-44
7.0708572e-44
7.0708523e-44
7.0708554e-44
7.0708685e-44
7.0709057e-44
7.0716182e-44
7.0711583e-44
7.0709251e-44
7.0708131e-44
7.0707641e-44
7.0707453e-44
7.0707406e-44
7.0707441e-44
7.0707578e-44
7.0707957e-44
7.0715691e-44
7.0711092e-44
7.070876e-44
7.0707641e-44
7.0707151e-44
7.0706964e-44
7.0706917e-44
7.0706955e-44
7.0707094e-44
7.0707476e-44
7.07155e-44
7.0710902e-44
7.0708572e-44
7.0707453e-44
7.0706964e-44
7.0706777e-44
7.0706731e-44
7.0706769e-44
7.0706909e-44
7.0707292e-44
7.0715445e-44
7.0710851e-44
7.0708523e-44
7.0707406e-44
7.0706917e-44
7.0706731e-44
7.0706686e-44
7.0706724e-44
7.0706865e-44
7.0707247e-44
7.0715463e-44
7.0710876e-44
7.0708554e-44
7.0707441e-44
7.0706955e-44
7.0706769e-44
7.0706724e-44
7.0706762e-44
7.0706903e-44
7.0707285e-44
7.071556e-44
7.0710993e-44
7.0708685e-44
7.0707578e-44
7.0707094e-44
7.0706909e-44
7.0706865e-44
7.0706903e-44
7.0707044e-44
7.0707427e-44
7.0715847e-44
7.0711344e-44
7.0709057e-44
7.0707957e-44
7.0707476e-44
7.0707292e-44
7.0707247e-44
7.0707285e-44
7.0707427e-44
7.070781e-44
2.1904386e-43
2.1903004e-43
2.19023e-43
2.1901962e-43
2.1901813e-43
2.1901755e-43
2.1901739e-43
2.1901744e-43
2.1901773e-43
2.1901857e-43
2.1903004e-43
2.1901622e-43
2.1900919e-43
2.190058e-43
2.1900432e-43
2.1900374e-43
2.1900359e-43
2.1900366e-43
2.1900401e-43
2.1900505e-43
2.19023e-43
2.1900919e-43
2.1900215e-43
2.1899877e-43
2.1899728e-43
2.1899671e-43
2.1899657e-43
2.1899666e-43
2.1899705e-43
2.1899816e-43
2.1901962e-43
2.190058e-43
2.1899877e-43
2.1899538e-43
2.189939e-43
2.1899333e-43
2.1899319e-43
2.189933e-43
2.1899371e-43
2.1899483e-43
2.1901813e-43
2.1900432e-43
2.1899728e-43
2.189939e-43
2.1899242e-43
2.1899185e-43
2.1899171e-43
2.1899183e-43
2.1899225e-43
2.1899338e-43
2.1901755e-43
2.1900374e-43
2.1899671e-43
2.1899333e-43
2.1899185e-43
2.1899129e-43
2.1899115e-43
2.1899126e-43
2.1899169e-43
2.1899282e-43
2.1901739e-43
2.1900359e-43
2.1899657e-43
2.1899319e-43
2.1899171e-43
2.1899115e-43
2.1899101e-43
2.1899113e-43
2.1899155e-43
2.1899269e-43
2.1901744e-43
2.1900366e-43
2.1899666e-43
2.189933e-43
2.1899183e-43
2.1899126e-43
2.1899113e-43
2.1899124e-43
2.1899167e-43
2.189928e-43
2.1901773e-43
2.1900401e-43
2.1899705e-43
2.1899371e-43
2.1899225e-43
2.1899169e-43
2.1899155e-43
2.1899167e-43
2.1899209e-43
2.1899323e-43
2.1901857e-43
2.1900505e-43
2.1899816e-43
2.1899483e-43
2.1899338e-43
2.1899282e-43
2.1899269e-43
2.189928e-43
2.1899323e-43
2.1899436e-43
6.9031152e-43
6.9026929e-43
6.902477e-43
6.9023729e-43
6.9023272e-43
6.9023094e-43
6.9023044e-43
6.902306e-43
6.9023147e-43
6.9023399e-43
6.9026929e-43
6.9022708e-43
6.9020549e-43
6.9019509e-43
6.9019052e-43
6.9018875e-43
6.9018827e-43
6.9018851e-43
6.9018958e-43
6.901927e-43
6.902477e-43
6.9020549e-43
6.9018391e-43
6.9017351e-43
6.9016895e-43
6.9016719e-43
6.9016674e-43
6.9016703e-43
6.9016823e-43
6.9017155e-43
6.9023729e-43
6.9019509e-43
6.9017351e-43
6.9016311e-43
6.9015855e-43
6.901568e-43
6.9015636e-43
6.9015669e-43
6.9015795e-43
6.9016134e-43
6.9023272e-43
6.9019052e-43
6.9016895e-43
6.9015855e-43
6.9015399e-43
6.9015224e-43
6.9015182e-43
6.9015216e-43
6.9015345e-43
6.9015686e-43
6.9023094e-43
6.9018875e-43
6.9016719e-43
6.901568e-43
6.9015224e-43
6.9015051e-43
6.9015008e-43
6.9015044e-43
6.9015173e-43
6.9015515e-43
6.9023044e-43
6.9018827e-43
6.9016674e-43
6.9015636e-43
6.9015182e-43
6.9015008e-43
6.9014966e-43
6.9015002e-43
6.9015131e-43
6.9015473e-43
6.902306e-43
6.9018851e-43
6.9016703e-43
6.9015669e-43
6.9015216e-43
6.9015044e-43
6.9015002e-43
6.9015038e-43
6.9015167e-43
6.9015509e-43
6.9023147e-43
6.9018958e-43
6.9016823e-43
6.9015795e-43
6.9015345e-43
6.9015173e-43
6.9015131e-43
6.9015167e-43
6.9015297e-43
6.9015639e-43
6.9023399e-43
6.901927e-43
6.9017155e-43
6.9016134e-43
6.9015686e-43
6.9015515e-43
6.9015473e-43
6.9015509e-43
6.9015639e-43
6.9015982e-43
2.2145329e-42
2.2144016e-42
2.2143342e-42
2.2143017e-42
2.2142874e-42
2.2142818e-42
2.2142802e-42
2.2142807e-42
2.2142834e-42
2.214291e-42
2.2144016e-42
2.2142704e-42
2.214203e-42
2.2141705e-42
2.2141562e-42
2.2141506e-42
2.2141491e-42
2.2141499e-42
2.2141532e-42
2.2141627e-42
2.2143342e-42
2.214203e-42
2.2141356e-42
2.2141031e-42
2.2140888e-42
2.2140833e-42
2.2140819e-42
2.2140828e-42
2.2140866e-42
2.2140967e-42
2.2143017e-42
2.2141705e-42
2.2141031e-42
2.2140706e-42
2.2140563e-42
2.2140508e-42
2.2140495e-42
2.2140505e-42
2.2140544e-42
2.2140648e-42
2.2142874e-42
2.2141562e-42
2.2140888e-42
2.2140563e-42
2.214042e-42
2.2140366e-42
2.2140352e-42
2.2140363e-42
2.2140403e-42
2.2140508e-42
2.2142818e-42
2.2141506e-42
2.2140833e-42
2.2140508e-42
2.2140366e-42
2.2140311e-42
2.2140298e-42
2.2140309e-42
2.214035e-42
2.2140455e-42
2.2142802e-42
2.2141491e-42
2.2140819e-42
2.2140495e-42
2.2140352e-42
2.2140298e-42
2.2140285e-42
2.2140296e-42
2.2140337e-42
2.2140442e-42
2.2142807e-42
2.2141499e-42
2.2140828e-42
2.2140505e-42
2.2140363e-42
2.2140309e-42
2.2140296e-42
2.2140308e-42
2.2140348e-42
2.2140453e-42
2.2142834e-42
2.2141532e-42
2.2140866e-42
2.2140544e-42
2.2140403e-42
2.214035e-42
2.2140337e-42
2.2140348e-42
2.2140388e-42
2.2140493e-42
2.214291e-42
2.2141627e-42
2.2140967e-42
2.2140648e-42
2.2140508e-42
2.2140455e-42
2.2140442e-42
2.2140453e-42
2.2140493e-42
2.2140599e-42
7.2324352e-42
7.2320199e-42
7.2318059e-42
7.2317024e-42
7.2316568e-42
7.231639e-42
7.231634e-42
7.2316356e-42
7.2316441e-42
7.2316677e-42
7.2320199e-42
7.2316048e-42
7.2313908e-42
7.2312873e-42
7.2312418e-42
7.2312241e-42
7.2312194e-42
7.2312217e-42
7.2312322e-42
7.231262e-42
7.2318059e-42
7.2313908e-42
7.2311769e-42
7.2310734e-42
7.2310279e-42
7.2310104e-42
7.2310059e-42
7.2310088e-42
7.2310206e-42
7.2310524e-42
7.2317024e-42
7.2312873e-42
7.2310734e-42
7.2309699e-42
7.2309244e-42
7.230907e-42
7.2309026e-42
7.230906e-42
7.2309184e-42
7.2309509e-42
7.2316568e-42
7.2312418e-42
7.2310279e-42
7.2309244e-42
7.230879e-42
7.2308616e-42
7.2308574e-42
7.2308609e-42
7.2308735e-42
7.2309063e-42
7.231639e-42
7.2312241e-42
7.2310104e-42
7.230907e-42
7.2308616e-42
7.2308443e-42
7.2308401e-42
7.2308436e-42
7.2308564e-42
7.2308893e-42
7.231634e-42
7.2312194e-42
7.2310059e-42
7.2309026e-42
7.2308574e-42
7.2308401e-42
7.2308359e-42
7.2308395e-42
7.2308523e-42
7.2308851e-42
7.2316356e-42
7.2312217e-42
7.2310088e-42
7.230906e-42
7.2308609e-42
7.2308436e-42
7.2308395e-42
7.2308431e-42
7.2308559e-42
7.2308888e-42
7.2316441e-42
7.2312322e-42
7.2310206e-42
7.2309184e-42
7.2308735e-42
7.2308564e-42
7.2308523e-42
7.2308559e-42
7.2308687e-42
7.2309016e-42
7.2316677e-42
7.231262e-42
7.2310524e-42
7.2309509e-42
7.2309063e-42
7.2308893e-42
7.2308851e-42
7.2308888e-42
7.2309016e-42
7.2309345e-42
2.4047946e-41
2.4046609e-41
2.4045917e-41
2.4045582e-41
2.4045435e-41
2.4045377e-41
2.4045361e-41
2.4045366e-41
2.4045393e-41
2.4045467e-41
2.4046609e-41
2.4045273e-41
2.4044581e-41
2.4044246e-41
2.4044098e-41
2.4044041e-41
2.4044026e-41
2.4044033e-41
2.4044067e-41
2.4044162e-41
2.4045917e-41
2.4044581e-41
2.404389e-41
2.4043555e-41
2.4043407e-41
2.4043351e-41
2.4043336e-41
2.4043346e-41
2.4043384e-41
2.4043485e-41
2.4045582e-41
2.4044246e-41
2.4043555e-41
2.404322e-41
2.4043072e-41
2.4043016e-41
2.4043002e-41
2.4043013e-41
2.4043053e-41
2.4043156e-41
2.4045435e-41
2.4044098e-41
2.4043407e-41
2.4043072e-41
2.4042925e-41
2.4042869e-41
2.4042855e-41
2.4042866e-41
2.4042907e-41
2.4043012e-41
2.4045377e-41
2.4044041e-41
2.4043351e-41
2.4043016e-41
2.4042869e-41
2.4042813e-41
2.4042799e-41
2.4042811e-41
2.4042852e-41
2.4042957e-41
2.4045361e-41
2.4044026e-41
2.4043336e-41
2.4043002e-41
2.4042855e-41
2.4042799e-41
2.4042786e-41
2.4042797e-41
2.4042839e-41
2.4042943e-41
2.4045366e-41
2.4044033e-41
2.4043346e-41
2.4043013e-41
2.4042866e-41
2.4042811e-41
2.4042797e-41
2.4042809e-41
2.404285e-41
2.4042955e-41
2.4045393e-41
2.4044067e-41
2.4043384e-41
2.4043053e-41
2.4042907e-41
2.4042852e-41
2.4042839e-41
2.404285e-41
2.4042892e-41
2.4042997e-41
2.4045467e-41
2.4044162e-41
2.4043485e-41
2.4043156e-41
2.4043012e-41
2.4042957e-41
2.4042943e-41
2.4042955e-41
2.4042997e-41
2.4043101e-41
8.1410889e-41
8.1406508e-41
8.1404234e-41
8.1403129e-41
8.1402642e-41
8.1402453e-41
8.1402399e-41
8.1402416e-41
8.1402505e-41
8.1402743e-41
8.1406508e-41
8.1402129e-41
8.1399855e-41
8.1398751e-41
8.1398265e-41
8.1398076e-41
8.1398025e-41
8.1398051e-41
8.1398161e-41
8.1398467e-41
8.1404234e-41
8.1399855e-41
8.1397582e-41
8.1396477e-41
8.1395992e-41
8.1395805e-41
8.1395757e-41
8.1395788e-41
8.1395913e-41
8.1396242e-41
8.1403129e-41
8.1398751e-41
8.1396477e-41
8.1395373e-41
8.1394888e-41
8.1394702e-41
8.1394655e-41
8.1394691e-41
8.1394823e-41
8.1395159e-41
8.1402642e-41
8.1398265e-41
8.1395992e-41
8.1394888e-41
8.1394402e-41
8.1394217e-41
8.1394172e-41
8.1394209e-41
8.1394344e-41
8.1394683e-41
8.1402453e-41
8.1398076e-41
8.1395805e-41
8.1394702e-41
8.1394217e-41
8.1394032e-41
8.1393987e-41
8.1394026e-41
8.1394162e-41
8.1394501e-41
8.1402399e-41
8.1398025e-41
8.1395757e-41
8.1394655e-41
8.1394172e-41
8.1393987e-41
8.1393943e-41
8.1393982e-41
8.1394118e-41
8.1394457e-41
8.1402416e-41
8.1398051e-41
8.1395788e-41
8.1394691e-41
8.1394209e-41
8.1394026e-41
8.1393982e-41
8.1394021e-41
8.1394157e-41
8.1394497e-41
8.1402505e-41
8.1398161e-41
8.1395913e-41
8.1394823e-41
8.1394344e-41
8.1394162e-41
8.1394118e-41
8.1394157e-41
8.1394293e-41
8.1394633e-41
8.1402743e-41
8.1398467e-41
8.1396242e-41
8.1395159e-41
8.1394683e-41
8.1394501e-41
8.1394457e-41
8.1394497e-41
8.1394633e-41
8.1394973e-41
2.8061666e-40
2.8060205e-40
2.8059444e-40
2.8059074e-40
2.805891e-40
2.8058847e-40
2.8058829e-40
2.8058835e-40
2.8058864e-40
2.8058942e-40
2.8060205e-40
2.8058745e-40
2.8057984e-40
2.8057614e-40
2.8057451e-40
2.8057388e-40
2.8057371e-40
2.8057379e-40
2.8057416e-40
2.8057517e-40
2.8059444e-40
2.8057984e-40
2.8057223e-40
2.8056853e-40
2.805669e-40
2.8056627e-40
2.8056611e-40
2.8056622e-40
2.8056664e-40
2.8056772e-40
2.8059074e-40
2.8057614e-40
2.8056853e-40
2.8056483e-40
2.805632e-40
2.8056258e-40
2.8056242e-40
2.8056254e-40
2.8056298e-40
2.8056409e-40
2.805891e-40
2.8057451e-40
2.805669e-40
2.805632e-40
2.8056157e-40
2.8056095e-40
2.805608e-40
2.8056093e-40
2.8056138e-40
2.805625e-40
2.8058847e-40
2.8057388e-40
2.8056627e-40
2.8056258e-40
2.8056095e-40
2.8056033e-40
2.8056018e-40
2.8056031e-40
2.8056076e-40
2.8056189e-40
2.8058829e-40
2.8057371e-40
2.8056611e-40
2.8056242e-40
2.805608e-40
2.8056018e-40
2.8056003e-40
2.8056016e-40
2.8056062e-40
2.8056174e-40
2.8058835e-40
2.8057379e-40
2.8056622e-40
2.8056254e-40
2.8056093e-40
2.8056031e-40
2.8056016e-40
2.805603e-40
2.8056075e-40
2.8056187e-40
2.8058864e-40
2.8057416e-40
2.8056664e-40
2.8056298e-40
2.8056138e-40
2.8056076e-40
2.8056062e-40
2.8056075e-40
2.8056121e-40
2.8056233e-40
2.8058942e-40
2.8057517e-40
2.8056772e-40
2.8056409e-40
2.805625e-40
2.8056189e-40
2.8056174e-40
2.8056187e-40
2.8056233e-40
2.8056345e-40
9.8487577e-40
9.848262e-40
9.8480028e-40
9.8478765e-40
9.8478206e-40
9.847799e-40
9.8477928e-40
9.8477948e-40
9.8478047e-40
9.8478305e-40
9.848262e-40
9.8477665e-40
9.8475073e-40
9.847381e-40
9.8473253e-40
9.8473037e-40
9.8472979e-40
9.8473008e-40
9.8473133e-40
9.8473472e-40
9.8480028e-40
9.8475073e-40
9.8472482e-40
9.8471219e-40
9.8470662e-40
9.8470448e-40
9.8470393e-40
9.847043e-40
9.8470573e-40
9.8470937e-40
9.8478765e-40
9.847381e-40
9.8471219e-40
9.8469956e-40
9.84694e-40
9.8469187e-40
9.8469134e-40
9.8469176e-40
9.8469326e-40
9.84697e-40
9.8478206e-40
9.8473253e-40
9.8470662e-40
9.84694e-40
9.8468844e-40
9.8468631e-40
9.846858e-40
9.8468624e-40
9.8468777e-40
9.8469154e-40
9.847799e-40
9.8473037e-40
9.8470448e-40
9.8469187e-40
9.8468631e-40
9.8468419e-40
9.8468368e-40
9.8468413e-40
9.8468569e-40
9.8468946e-40
9.8477928e-40
9.8472979e-40
9.8470393e-40
9.8469134e-40
9.846858e-40
9.8468368e-40
9.8468318e-40
9.8468364e-40
9.8468519e-40
9.8468897e-40
9.8477948e-40
9.8473008e-40
9.847043e-40
9.8469176e-40
9.8468624e-40
9.8468413e-40
9.8468364e-40
9.8468409e-40
9.8468565e-40
9.8468943e-40
9.8478047e-40
9.8473133e-40
9.8470573e-40
9.8469326e-40
9.8468777e-40
9.8468569e-40
9.8468519e-40
9.8468565e-40
9.846872e-40
9.8469098e-40
9.8478305e-40
9.8473472e-40
9.8470937e-40
9.84697e-40
9.8469154e-40
9.8468946e-40
9.8468897e-40
9.8468943e-40
9.8469098e-40
9.8469477e-40
3.5195902e-39
3.519419e-39
3.5193291e-39
3.5192853e-39
3.5192659e-39
3.5192584e-39
3.5192562e-39
3.5192569e-39
3.5192603e-39
3.5192691e-39
3.519419e-39
3.5192479e-39
3.519158e-39
3.5191142e-39
3.5190948e-39
3.5190873e-39
3.5190853e-39
3.5190863e-39
3.5190907e-39
3.5191022e-39
3.5193291e-39
3.519158e-39
3.5190682e-39
3.5190244e-39
3.519005e-39
3.5189976e-39
3.5189957e-39
3.518997e-39
3.5190019e-39
3.5190144e-39
3.5192853e-39
3.5191142e-39
3.5190244e-39
3.5189805e-39
3.5189612e-39
3.5189538e-39
3.518952e-39
3.5189535e-39
3.5189587e-39
3.5189715e-39
3.5192659e-39
3.5190948e-39
3.519005e-39
3.5189612e-39
3.5189419e-39
3.5189345e-39
3.5189327e-39
3.5189343e-39
3.5189396e-39
3.5189525e-39
3.5192584e-39
3.5190873e-39
3.5189976e-39
3.5189538e-39
3.5189345e-39
3.5189271e-39
3.5189254e-39
3.518927e-39
3.5189324e-39
3.5189453e-39
3.5192562e-39
3.5190853e-39
3.5189957e-39
3.518952e-39
3.5189327e-39
3.5189254e-39
3.5189237e-39
3.5189252e-39
3.5189307e-39
3.5189436e-39
3.5192569e-39
3.5190863e-39
3.518997e-39
3.5189535e-39
3.5189343e-39
3.518927e-39
3.5189252e-39
3.5189268e-39
3.5189323e-39
3.5189452e-39
3.5192603e-39
3.5190907e-39
3.5190019e-39
3.5189587e-39
3.5189396e-39
3.5189324e-39
3.5189307e-39
3.5189323e-39
3.5189376e-39
3.5189506e-39
3.5192691e-39
3.5191022e-39
3.5190144e-39
3.5189715e-39
3.5189525e-39
3.5189453e-39
3.5189436e-39
3.5189452e-39
3.5189506e-39
3.5189636e-39
1.2806951e-38
1.2806349e-38
1.2806033e-38
1.2805878e-38
1.2805809e-38
1.2805782e-38
1.2805775e-38
1.2805777e-38
1.2805789e-38
1.2805819e-38
1.2806349e-38
1.2805748e-38
1.2805431e-38
1.2805276e-38
1.2805208e-38
1.2805181e-38
1.2805174e-38
1.2805178e-38
1.2805193e-38
1.2805233e-38
1.2806033e-38
1.2805431e-38
1.2805114e-38
1.2804959e-38
1.2804891e-38
1.2804865e-38
1.2804858e-38
1.2804863e-38
1.280488e-38
1.2804924e-38
1.2805878e-38
1.2805276e-38
1.2804959e-38
1.2804805e-38
1.2804736e-38
1.280471e-38
1.2804704e-38
1.2804709e-38
1.2804727e-38
1.2804772e-38
1.2805809e-38
1.2805208e-38
1.2804891e-38
1.2804736e-38
1.2804668e-38
1.2804642e-38
1.2804636e-38
1.2804641e-38
1.280466e-38
1.2804705e-38
1.2805782e-38
1.2805181e-38
1.2804865e-38
1.280471e-38
1.2804642e-38
1.2804616e-38
1.280461e-38
1.2804615e-38
1.2804634e-38
1.280468e-38
1.2805775e-38
1.2805174e-38
1.2804858e-38
1.2804704e-38
1.2804636e-38
1.280461e-38
1.2804604e-38
1.2804609e-38
1.2804628e-38
1.2804674e-38
1.2805777e-38
1.2805178e-38
1.2804863e-38
1.2804709e-38
1.2804641e-38
1.2804615e-38
1.2804609e-38
1.2804615e-38
1.2804634e-38
1.2804679e-38
1.2805789e-38
1.2805193e-38
1.280488e-38
1.2804727e-38
1.280466e-38
1.2804634e-38
1.2804628e-38
1.2804634e-38
1.2804653e-38
1.2804698e-38
1.2805819e-38
1.2805233e-38
1.2804924e-38
1.2804772e-38
1.2804705e-38
1.280468e-38
1.2804674e-38
1.2804679e-38
1.2804698e-38
1.2804744e-38
4.7450119e-38
4.7447966e-38
4.7446829e-38
4.7446272e-38
4.7446026e-38
4.744593e-38
4.7445903e-38
4.7445912e-38
4.7445955e-38
4.744606e-38
4.7447966e-38
4.7445815e-38
4.7444678e-38
4.7444121e-38
4.7443875e-38
4.744378e-38
4.7443754e-38
4.7443767e-38
4.7443822e-38
4.7443965e-38
4.7446829e-38
4.7444678e-38
4.7443541e-38
4.7442985e-38
4.7442739e-38
4.7442644e-38
4.744262e-38
4.7442637e-38
4.74427e-38
4.7442854e-38
4.7446272e-38
4.7444121e-38
4.7442985e-38
4.7442428e-38
4.7442182e-38
4.7442088e-38
4.7442065e-38
4.7442084e-38
4.7442151e-38
4.744231e-38
4.7446026e-38
4.7443875e-38
4.7442739e-38
4.7442182e-38
4.7441937e-38
4.7441843e-38
4.744182e-38
4.744184e-38
4.7441908e-38
4.7442069e-38
4.744593e-38
4.744378e-38
4.7442644e-38
4.7442088e-38
4.7441843e-38
4.7441749e-38
4.7441727e-38
4.7441747e-38
4.7441816e-38
4.7441977e-38
4.7445903e-38
4.7443754e-38
4.744262e-38
4.7442065e-38
4.744182e-38
4.7441727e-38
4.7441705e-38
4.7441726e-38
4.7441795e-38
4.7441955e-38
4.7445912e-38
4.7443767e-38
4.7442637e-38
4.7442084e-38
4.744184e-38
4.7441747e-38
4.7441726e-38
4.7441747e-38
4.7441815e-38
4.7441977e-38
4.7445955e-38
4.7443822e-38
4.74427e-38
4.7442151e-38
4.7441908e-38
4.7441816e-38
4.7441795e-38
4.7441815e-38
4.7441884e-38
4.7442045e-38
4.744606e-38
4.7443965e-38
4.7442854e-38
4.744231e-38
4.7442069e-38
4.7441977e-38
4.7441955e-38
4.7441977e-38
4.7442045e-38
4.7442207e-38
1.7900118e-37
1.7899335e-37
1.789892e-37
1.7898716e-37
1.7898626e-37
1.7898591e-37
1.7898581e-37
1.7898584e-37
1.78986e-37
1.7898637e-37
1.7899335e-37
1.7898552e-37
1.7898137e-37
1.7897933e-37
1.7897843e-37
1.7897808e-37
1.7897799e-37
1.7897804e-37
1.7897824e-37
1.7897875e-37
1.789892e-37
1.7898137e-37
1.7897722e-37
1.7897518e-37
1.7897428e-37
1.7897393e-37
1.7897385e-37
1.7897391e-37
1.7897414e-37
1.789747e-37
1.7898716e-37
1.7897933e-37
1.7897518e-37
1.7897314e-37
1.7897225e-37
1.789719e-37
1.7897182e-37
1.7897189e-37
1.7897213e-37
1.7897271e-37
1.7898626e-37
1.7897843e-37
1.7897428e-37
1.7897225e-37
1.7897135e-37
1.78971e-37
1.7897092e-37
1.7897099e-37
1.7897124e-37
1.7897183e-37
1.7898591e-37
1.7897808e-37
1.7897393e-37
1.789719e-37
1.78971e-37
1.7897066e-37
1.7897058e-37
1.7897065e-37
1.7897091e-37
1.7897149e-37
1.7898581e-37
1.7897799e-37
1.7897385e-37
1.7897182e-37
1.7897092e-37
1.7897058e-37
1.789705e-37
1.7897058e-37
1.7897083e-37
1.7897141e-37
1.7898584e-37
1.7897804e-37
1.7897391e-37
1.7897189e-37
1.7897099e-37
1.7897065e-37
1.7897058e-37
1.7897065e-37
1.7897091e-37
1.7897149e-37
1.78986e-37
1.7897824e-37
1.7897414e-37
1.7897213e-37
1.7897124e-37
1.7897091e-37
1.7897083e-37
1.7897091e-37
1.7897116e-37
1.7897174e-37
1.7898637e-37
1.7897875e-37
1.789747e-37
1.7897271e-37
1.7897183e-37
1.7897149e-37
1.7897141e-37
1.7897149e-37
1.7897174e-37
1.7897233e-37
6.8751901e-37
6.8748999e-37
6.8747456e-37
6.8746698e-37
6.8746362e-37
6.8746232e-37
6.8746195e-37
6.8746207e-37
6.8746265e-37
6.8746402e-37
6.8748999e-37
6.8746099e-37
6.8744556e-37
6.8743798e-37
6.8743462e-37
6.8743333e-37
6.8743298e-37
6.8743316e-37
6.8743391e-37
6.8743581e-37
6.8747456e-37
6.8744556e-37
6.8743014e-37
6.8742256e-37
6.8741921e-37
6.8741792e-37
6.8741759e-37
6.8741783e-37
6.8741869e-37
6.8742075e-37
6.8746698e-37
6.8743798e-37
6.8742256e-37
6.8741498e-37
6.8741163e-37
6.8741035e-37
6.8741004e-37
6.8741031e-37
6.8741122e-37
6.8741334e-37
6.8746362e-37
6.8743462e-37
6.8741921e-37
6.8741163e-37
6.8740829e-37
6.8740701e-37
6.874067e-37
6.8740698e-37
6.8740791e-37
6.8741006e-37
6.8746232e-37
6.8743333e-37
6.8741792e-37
6.8741035e-37
6.8740701e-37
6.8740573e-37
6.8740543e-37
6.8740572e-37
6.8740666e-37
6.8740881e-37
6.8746195e-37
6.8743298e-37
6.8741759e-37
6.8741004e-37
6.874067e-37
6.8740543e-37
6.8740514e-37
6.8740543e-37
6.8740637e-37
6.8740852e-37
6.8746207e-37
6.8743316e-37
6.8741783e-37
6.8741031e-37
6.8740698e-37
6.8740572e-37
6.8740543e-37
6.8740572e-37
6.8740666e-37
6.8740881e-37
6.8746265e-37
6.8743391e-37
6.8741869e-37
6.8741122e-37
6.8740791e-37
6.8740666e-37
6.8740637e-37
6.8740666e-37
6.874076e-37
6.8740975e-37
6.8746402e-37
6.8743581e-37
6.8742075e-37
6.8741334e-37
6.8741006e-37
6.8740881e-37
6.8740852e-37
6.8740881e-37
6.8740975e-37
6.8741191e-37
2.6884414e-36
2.6883321e-36
2.6882738e-36
2.6882451e-36
2.6882323e-36
2.6882274e-36
2.688226e-36
2.6882265e-36
2.6882286e-36
2.6882337e-36
2.6883321e-36
2.6882228e-36
2.6881645e-36
2.6881358e-36
2.6881231e-36
2.6881181e-36
2.6881168e-36
2.6881175e-36
2.6881204e-36
2.6881275e-36
2.6882738e-36
2.6881645e-36
2.6881062e-36
2.6880775e-36
2.6880648e-36
2.6880599e-36
2.6880587e-36
2.6880596e-36
2.6880628e-36
2.6880706e-36
2.6882451e-36
2.6881358e-36
2.6880775e-36
2.6880488e-36
2.6880361e-36
2.6880312e-36
2.6880301e-36
2.6880311e-36
2.6880346e-36
2.6880425e-36
2.6882323e-36
2.6881231e-36
2.6880648e-36
2.6880361e-36
2.6880234e-36
2.6880186e-36
2.6880174e-36
2.6880185e-36
2.688022e-36
2.6880301e-36
2.6882274e-36
2.6881181e-36
2.6880599e-36
2.6880312e-36
2.6880186e-36
2.6880137e-36
2.6880126e-36
2.6880137e-36
2.6880173e-36
2.6880254e-36
2.688226e-36
2.6881168e-36
2.6880587e-36
2.6880301e-36
2.6880174e-36
2.6880126e-36
2.6880115e-36
2.6880126e-36
2.6880162e-36
2.6880243e-36
2.6882265e-36
2.6881175e-36
2.6880596e-36
2.6880311e-36
2.6880185e-36
2.6880137e-36
2.6880126e-36
2.6880137e-36
2.6880173e-36
2.6880254e-36
2.6882286e-36
2.6881204e-36
2.6880628e-36
2.6880346e-36
2.688022e-36
2.6880173e-36
2.6880162e-36
2.6880173e-36
2.6880209e-36
2.688029e-36
2.6882337e-36
2.6881275e-36
2.6880706e-36
2.6880425e-36
2.6880301e-36
2.6880254e-36
2.6880243e-36
2.6880254e-36
2.688029e-36
2.6880371e-36
1.0702218e-35
1.0701799e-35
1.0701575e-35
1.0701464e-35
1.0701415e-35
1.0701396e-35
1.0701391e-35
1.0701393e-35
1.0701401e-35
1.070142e-35
1.0701799e-35
1.070138e-35
1.0701156e-35
1.0701045e-35
1.0700996e-35
1.0700977e-35
1.0700972e-35
1.0700975e-35
1.0700986e-35
1.0701013e-35
1.0701575e-35
1.0701156e-35
1.0700932e-35
1.0700821e-35
1.0700772e-35
1.0700753e-35
1.0700749e-35
1.0700752e-35
1.0700765e-35
1.0700794e-35
1.0701464e-35
1.0701045e-35
1.0700821e-35
1.0700711e-35
1.0700662e-35
1.0700643e-35
1.0700638e-35
1.0700642e-35
1.0700656e-35
1.0700686e-35
1.0701415e-35
1.0700996e-35
1.0700772e-35
1.0700662e-35
1.0700613e-35
1.0700594e-35
1.070059e-35
1.0700594e-35
1.0700608e-35
1.0700639e-35
1.0701396e-35
1.0700977e-35
1.0700753e-35
1.0700643e-35
1.0700594e-35
1.0700575e-35
1.0700571e-35
1.0700576e-35
1.0700589e-35
1.070062e-35
1.0701391e-35
1.0700972e-35
1.0700749e-35
1.0700638e-35
1.070059e-35
1.0700571e-35
1.0700567e-35
1.0700571e-35
1.0700585e-35
1.0700616e-35
1.0701393e-35
1.0700975e-35
1.0700752e-35
1.0700642e-35
1.0700594e-35
1.0700576e-35
1.0700571e-35
1.0700576e-35
1.070059e-35
1.0700621e-35
1.0701401e-35
1.0700986e-35
1.0700765e-35
1.0700656e-35
1.0700608e-35
1.0700589e-35
1.0700585e-35
1.070059e-35
1.0700603e-35
1.0700634e-35
1.070142e-35
1.0701013e-35
1.0700794e-35
1.0700686e-35
1.0700639e-35
1.070062e-35
1.0700616e-35
1.0700621e-35
1.0700634e-35
1.0700665e-35
4.3367839e-35
4.3366203e-35
4.3365326e-35
4.3364893e-35
4.33647e-35
4.3364626e-35
4.3364605e-35
4.3364613e-35
4.3364645e-35
4.3364719e-35
4.3366203e-35
4.3364569e-35
4.3363692e-35
4.3363259e-35
4.3363067e-35
4.3362992e-35
4.3362973e-35
4.3362984e-35
4.3363027e-35
4.3363132e-35
4.3365326e-35
4.3363692e-35
4.3362815e-35
4.3362382e-35
4.336219e-35
4.3362116e-35
4.3362098e-35
4.3362112e-35
4.3362162e-35
4.3362277e-35
4.3364893e-35
4.3363259e-35
4.3362382e-35
4.3361949e-35
4.3361757e-35
4.3361684e-35
4.3361667e-35
4.3361682e-35
4.3361735e-35
4.3361854e-35
4.33647e-35
4.3363067e-35
4.336219e-35
4.3361757e-35
4.3361566e-35
4.3361493e-35
4.3361476e-35
4.3361493e-35
4.3361546e-35
4.3361667e-35
4.3364626e-35
4.3362992e-35
4.3362116e-35
4.3361684e-35
4.3361493e-35
4.3361419e-35
4.3361403e-35
4.336142e-35
4.3361474e-35
4.3361595e-35
4.3364605e-35
4.3362973e-35
4.3362098e-35
4.3361667e-35
4.3361476e-35
4.3361403e-35
4.3361386e-35
4.3361404e-35
4.3361458e-35
4.3361579e-35
4.3364613e-35
4.3362984e-35
4.3362112e-35
4.3361682e-35
4.3361493e-35
4.336142e-35
4.3361404e-35
4.3361421e-35
4.3361476e-35
4.3361597e-35
4.3364645e-35
4.3363027e-35
4.3362162e-35
4.3361735e-35
4.3361546e-35
4.3361474e-35
4.3361458e-35
4.3361476e-35
4.336153e-35
4.3361651e-35
4.3364719e-35
4.3363132e-35
4.3362277e-35
4.3361854e-35
4.3361667e-35
4.3361595e-35
4.3361579e-35
4.3361597e-35
4.3361651e-35
4.3361772e-35
1.7887047e-34
1.7886399e-34
1.7886049e-34
1.7885877e-34
1.78858e-34
1.788577e-34
1.7885762e-34
1.7885765e-34
1.7885778e-34
1.7885807e-34
1.7886399e-34
1.788575e-34
1.7885401e-34
1.7885229e-34
1.7885152e-34
1.7885123e-34
1.7885115e-34
1.7885119e-34
1.7885136e-34
1.7885178e-34
1.7886049e-34
1.7885401e-34
1.7885052e-34
1.788488e-34
1.7884803e-34
1.7884774e-34
1.7884767e-34
1.7884772e-34
1.7884792e-34
1.7884838e-34
1.7885877e-34
1.7885229e-34
1.788488e-34
1.7884707e-34
1.7884631e-34
1.7884602e-34
1.7884595e-34
1.7884601e-34
1.7884622e-34
1.788467e-34
1.78858e-34
1.7885152e-34
1.7884803e-34
1.7884631e-34
1.7884555e-34
1.7884525e-34
1.7884519e-34
1.7884526e-34
1.7884547e-34
1.7884595e-34
1.788577e-34
1.7885123e-34
1.7884774e-34
1.7884602e-34
1.7884525e-34
1.7884496e-34
1.788449e-34
1.7884497e-34
1.7884518e-34
1.7884566e-34
1.7885762e-34
1.7885115e-34
1.7884767e-34
1.7884595e-34
1.7884519e-34
1.788449e-34
1.7884483e-34
1.788449e-34
1.7884512e-34
1.788456e-34
1.7885765e-34
1.7885119e-34
1.7884772e-34
1.7884601e-34
1.7884526e-34
1.7884497e-34
1.788449e-34
1.7884497e-34
1.7884519e-34
1.7884567e-34
1.7885778e-34
1.7885136e-34
1.7884792e-34
1.7884622e-34
1.7884547e-34
1.7884518e-34
1.7884512e-34
1.7884519e-34
1.7884541e-34
1.7884589e-34
1.7885807e-34
1.7885178e-34
1.7884838e-34
1.788467e-34
1.7884595e-34
1.7884566e-34