/*--------------------------------*- C++ -*----------------------------------*\
| =========                 |                                                 |
| \\      /  F ield         | OpenFOAM: The Open Source CFD Toolbox           |
|  \\    /   O peration     | Version:  dev                                   |
|   \\  /    A nd           | Web:      www.OpenFOAM.org                      |
|    \\/     M anipulation  |                                                 |
\*---------------------------------------------------------------------------*/
FoamFile
{
    version     2.0;
    format      ascii;
    class       volScalarField;
    location    "28";
    object      A_0;
}
// * * * * * * * * * * * * * * * * * * * * * * * * * * * * * * * * * * * * * //

dimensions      [0 0 0 0 1 0 0];

internalField   nonuniform List<scalar> 
10000
(
1.7293239e-45
1.7292006e-45
1.7291398e-45
1.7291107e-45
1.729098e-45
1.7290931e-45
1.7290916e-45
1.7290921e-45
1.7290947e-45
1.7291021e-45
1.7292006e-45
1.7290774e-45
1.7290165e-45
1.7289875e-45
1.7289748e-45
1.7289699e-45
1.7289685e-45
1.7289692e-45
1.7289723e-45
1.7289813e-45
1.7291398e-45
1.7290165e-45
1.7289557e-45
1.7289266e-45
1.728914e-45
1.7289091e-45
1.7289078e-45
1.7289086e-45
1.728912e-45
1.7289216e-45
1.7291107e-45
1.7289875e-45
1.7289266e-45
1.7288976e-45
1.7288849e-45
1.7288801e-45
1.7288788e-45
1.7288798e-45
1.7288833e-45
1.728893e-45
1.729098e-45
1.7289748e-45
1.728914e-45
1.7288849e-45
1.7288723e-45
1.7288674e-45
1.7288662e-45
1.7288672e-45
1.7288708e-45
1.7288806e-45
1.7290931e-45
1.7289699e-45
1.7289091e-45
1.7288801e-45
1.7288674e-45
1.7288626e-45
1.7288614e-45
1.7288624e-45
1.728866e-45
1.7288758e-45
1.7290916e-45
1.7289685e-45
1.7289078e-45
1.7288788e-45
1.7288662e-45
1.7288614e-45
1.7288602e-45
1.7288612e-45
1.7288649e-45
1.7288747e-45
1.7290921e-45
1.7289692e-45
1.7289086e-45
1.7288798e-45
1.7288672e-45
1.7288624e-45
1.7288612e-45
1.7288622e-45
1.7288659e-45
1.7288756e-45
1.7290947e-45
1.7289723e-45
1.728912e-45
1.7288833e-45
1.7288708e-45
1.728866e-45
1.7288649e-45
1.7288659e-45
1.7288696e-45
1.7288793e-45
1.7291021e-45
1.7289813e-45
1.7289216e-45
1.728893e-45
1.7288806e-45
1.7288758e-45
1.7288747e-45
1.7288756e-45
1.7288793e-45
1.7288891e-45
7.4093171e-45
7.4088053e-45
7.4085486e-45
7.4084258e-45
7.408372e-45
7.4083512e-45
7.4083452e-45
7.4083472e-45
7.408358e-45
7.4083903e-45
7.4088053e-45
7.4082936e-45
7.4080369e-45
7.4079141e-45
7.4078604e-45
7.4078397e-45
7.4078341e-45
7.4078368e-45
7.4078499e-45
7.407889e-45
7.4085486e-45
7.4080369e-45
7.4077803e-45
7.4076576e-45
7.4076039e-45
7.4075833e-45
7.4075779e-45
7.4075814e-45
7.4075958e-45
7.4076372e-45
7.4084258e-45
7.4079141e-45
7.4076576e-45
7.4075349e-45
7.4074813e-45
7.4074607e-45
7.4074555e-45
7.4074594e-45
7.4074745e-45
7.4075167e-45
7.408372e-45
7.4078604e-45
7.4076039e-45
7.4074813e-45
7.4074277e-45
7.4074072e-45
7.4074021e-45
7.4074061e-45
7.4074216e-45
7.407464e-45
7.4083512e-45
7.4078397e-45
7.4075833e-45
7.4074607e-45
7.4074072e-45
7.4073868e-45
7.4073817e-45
7.4073859e-45
7.4074014e-45
7.4074439e-45
7.4083452e-45
7.4078341e-45
7.4075779e-45
7.4074555e-45
7.4074021e-45
7.4073817e-45
7.4073767e-45
7.4073809e-45
7.4073964e-45
7.407439e-45
7.4083472e-45
7.4078368e-45
7.4075814e-45
7.4074594e-45
7.4074061e-45
7.4073859e-45
7.4073809e-45
7.407385e-45
7.4074006e-45
7.4074431e-45
7.408358e-45
7.4078499e-45
7.4075958e-45
7.4074745e-45
7.4074216e-45
7.4074014e-45
7.4073964e-45
7.4074006e-45
7.4074162e-45
7.4074587e-45
7.4083903e-45
7.407889e-45
7.4076372e-45
7.4075167e-45
7.407464e-45
7.4074439e-45
7.407439e-45
7.4074431e-45
7.4074587e-45
7.4075013e-45
2.2945524e-44
2.2943985e-44
2.2943208e-44
2.2942836e-44
2.2942673e-44
2.294261e-44
2.2942591e-44
2.2942597e-44
2.294263e-44
2.2942728e-44
2.2943985e-44
2.2942446e-44
2.294167e-44
2.2941298e-44
2.2941135e-44
2.2941072e-44
2.2941055e-44
2.2941063e-44
2.2941102e-44
2.2941221e-44
2.2943208e-44
2.294167e-44
2.2940893e-44
2.2940521e-44
2.2940358e-44
2.2940296e-44
2.294028e-44
2.294029e-44
2.2940334e-44
2.2940459e-44
2.2942836e-44
2.2941298e-44
2.2940521e-44
2.2940149e-44
2.2939987e-44
2.2939924e-44
2.2939908e-44
2.293992e-44
2.2939966e-44
2.2940094e-44
2.2942673e-44
2.2941135e-44
2.2940358e-44
2.2939987e-44
2.2939824e-44
2.2939762e-44
2.2939746e-44
2.2939759e-44
2.2939805e-44
2.2939934e-44
2.294261e-44
2.2941072e-44
2.2940296e-44
2.2939924e-44
2.2939762e-44
2.29397e-44
2.2939685e-44
2.2939697e-44
2.2939744e-44
2.2939873e-44
2.2942591e-44
2.2941055e-44
2.294028e-44
2.2939908e-44
2.2939746e-44
2.2939685e-44
2.2939669e-44
2.2939682e-44
2.2939729e-44
2.2939858e-44
2.2942597e-44
2.2941063e-44
2.294029e-44
2.293992e-44
2.2939759e-44
2.2939697e-44
2.2939682e-44
2.2939695e-44
2.2939742e-44
2.2939871e-44
2.294263e-44
2.2941102e-44
2.2940334e-44
2.2939966e-44
2.2939805e-44
2.2939744e-44
2.2939729e-44
2.2939742e-44
2.2939789e-44
2.2939918e-44
2.2942728e-44
2.2941221e-44
2.2940459e-44
2.2940094e-44
2.2939934e-44
2.2939873e-44
2.2939858e-44
2.2939871e-44
2.2939918e-44
2.2940047e-44
7.0067557e-44
7.0062997e-44
7.0060685e-44
7.0059575e-44
7.0059088e-44
7.0058899e-44
7.0058845e-44
7.0058862e-44
7.0058958e-44
7.0059243e-44
7.0062997e-44
7.0058438e-44
7.0056127e-44
7.0055017e-44
7.005453e-44
7.0054342e-44
7.0054291e-44
7.0054316e-44
7.0054432e-44
7.005478e-44
7.0060685e-44
7.0056127e-44
7.0053816e-44
7.0052706e-44
7.005222e-44
7.0052033e-44
7.0051984e-44
7.0052016e-44
7.0052145e-44
7.0052513e-44
7.0059575e-44
7.0055017e-44
7.0052706e-44
7.0051596e-44
7.0051111e-44
7.0050925e-44
7.0050878e-44
7.0050913e-44
7.0051048e-44
7.0051424e-44
7.0059088e-44
7.005453e-44
7.005222e-44
7.0051111e-44
7.0050625e-44
7.0050439e-44
7.0050394e-44
7.0050431e-44
7.0050569e-44
7.0050947e-44
7.0058899e-44
7.0054342e-44
7.0052033e-44
7.0050925e-44
7.0050439e-44
7.0050255e-44
7.0050209e-44
7.0050247e-44
7.0050386e-44
7.0050765e-44
7.0058845e-44
7.0054291e-44
7.0051984e-44
7.0050878e-44
7.0050394e-44
7.0050209e-44
7.0050164e-44
7.0050202e-44
7.0050341e-44
7.005072e-44
7.0058862e-44
7.0054316e-44
7.0052016e-44
7.0050913e-44
7.0050431e-44
7.0050247e-44
7.0050202e-44
7.005024e-44
7.0050379e-44
7.0050758e-44
7.0058958e-44
7.0054432e-44
7.0052145e-44
7.0051048e-44
7.0050569e-44
7.0050386e-44
7.0050341e-44
7.0050379e-44
7.0050519e-44
7.0050898e-44
7.0059243e-44
7.005478e-44
7.0052513e-44
7.0051424e-44
7.0050947e-44
7.0050765e-44
7.005072e-44
7.0050758e-44
7.0050898e-44
7.0051278e-44
2.1703403e-43
2.1702033e-43
2.1701336e-43
2.1701e-43
2.1700853e-43
2.1700796e-43
2.1700779e-43
2.1700785e-43
2.1700813e-43
2.1700897e-43
2.1702033e-43
2.1700664e-43
2.1699966e-43
2.1699631e-43
2.1699484e-43
2.1699427e-43
2.1699411e-43
2.1699419e-43
2.1699454e-43
2.1699557e-43
2.1701336e-43
2.1699966e-43
2.1699269e-43
2.1698934e-43
2.1698787e-43
2.169873e-43
2.1698716e-43
2.1698725e-43
2.1698764e-43
2.1698873e-43
2.1701e-43
2.1699631e-43
2.1698934e-43
2.1698598e-43
2.1698452e-43
2.1698395e-43
2.1698381e-43
2.1698392e-43
2.1698432e-43
2.1698544e-43
2.1700853e-43
2.1699484e-43
2.1698787e-43
2.1698452e-43
2.1698305e-43
2.1698248e-43
2.1698235e-43
2.1698246e-43
2.1698287e-43
2.16984e-43
2.1700796e-43
2.1699427e-43
2.169873e-43
2.1698395e-43
2.1698248e-43
2.1698192e-43
2.1698179e-43
2.169819e-43
2.1698232e-43
2.1698344e-43
2.1700779e-43
2.1699411e-43
2.1698716e-43
2.1698381e-43
2.1698235e-43
2.1698179e-43
2.1698165e-43
2.1698177e-43
2.1698219e-43
2.1698331e-43
2.1700785e-43
2.1699419e-43
2.1698725e-43
2.1698392e-43
2.1698246e-43
2.169819e-43
2.1698177e-43
2.1698188e-43
2.169823e-43
2.1698343e-43
2.1700813e-43
2.1699454e-43
2.1698764e-43
2.1698432e-43
2.1698287e-43
2.1698232e-43
2.1698219e-43
2.169823e-43
2.1698272e-43
2.1698385e-43
2.1700897e-43
2.1699557e-43
2.1698873e-43
2.1698544e-43
2.16984e-43
2.1698344e-43
2.1698331e-43
2.1698343e-43
2.1698385e-43
2.1698497e-43
6.8405431e-43
6.8401245e-43
6.8399106e-43
6.8398074e-43
6.8397621e-43
6.8397445e-43
6.8397395e-43
6.8397411e-43
6.8397497e-43
6.8397747e-43
6.8401245e-43
6.8397061e-43
6.8394922e-43
6.8393891e-43
6.8393438e-43
6.8393263e-43
6.8393215e-43
6.8393238e-43
6.8393344e-43
6.8393654e-43
6.8399106e-43
6.8394922e-43
6.8392783e-43
6.8391752e-43
6.8391299e-43
6.8391125e-43
6.8391081e-43
6.839111e-43
6.8391228e-43
6.8391557e-43
6.8398074e-43
6.8393891e-43
6.8391752e-43
6.8390721e-43
6.8390269e-43
6.8390096e-43
6.8390052e-43
6.8390085e-43
6.8390209e-43
6.8390545e-43
6.8397621e-43
6.8393438e-43
6.8391299e-43
6.8390269e-43
6.8389817e-43
6.8389644e-43
6.8389602e-43
6.8389636e-43
6.8389763e-43
6.8390102e-43
6.8397445e-43
6.8393263e-43
6.8391125e-43
6.8390096e-43
6.8389644e-43
6.8389472e-43
6.838943e-43
6.8389465e-43
6.8389593e-43
6.8389932e-43
6.8397395e-43
6.8393215e-43
6.8391081e-43
6.8390052e-43
6.8389602e-43
6.838943e-43
6.8389389e-43
6.8389424e-43
6.8389552e-43
6.8389891e-43
6.8397411e-43
6.8393238e-43
6.839111e-43
6.8390085e-43
6.8389636e-43
6.8389465e-43
6.8389424e-43
6.8389459e-43
6.8389588e-43
6.8389927e-43
6.8397497e-43
6.8393344e-43
6.8391228e-43
6.8390209e-43
6.8389763e-43
6.8389593e-43
6.8389552e-43
6.8389588e-43
6.8389716e-43
6.8390055e-43
6.8397747e-43
6.8393654e-43
6.8391557e-43
6.8390545e-43
6.8390102e-43
6.8389932e-43
6.8389891e-43
6.8389927e-43
6.8390055e-43
6.8390395e-43
2.1947087e-42
2.1945786e-42
2.1945118e-42
2.1944795e-42
2.1944654e-42
2.1944598e-42
2.1944583e-42
2.1944588e-42
2.1944614e-42
2.194469e-42
2.1945786e-42
2.1944485e-42
2.1943817e-42
2.1943495e-42
2.1943353e-42
2.1943298e-42
2.1943283e-42
2.1943291e-42
2.1943323e-42
2.1943418e-42
2.1945118e-42
2.1943817e-42
2.194315e-42
2.1942827e-42
2.1942686e-42
2.1942631e-42
2.1942617e-42
2.1942626e-42
2.1942663e-42
2.1942764e-42
2.1944795e-42
2.1943495e-42
2.1942827e-42
2.1942505e-42
2.1942363e-42
2.1942309e-42
2.1942295e-42
2.1942306e-42
2.1942344e-42
2.1942448e-42
2.1944654e-42
2.1943353e-42
2.1942686e-42
2.1942363e-42
2.1942222e-42
2.1942168e-42
2.1942154e-42
2.1942165e-42
2.1942205e-42
2.1942309e-42
2.1944598e-42
2.1943298e-42
2.1942631e-42
2.1942309e-42
2.1942168e-42
2.1942114e-42
2.1942101e-42
2.1942112e-42
2.1942152e-42
2.1942256e-42
2.1944583e-42
2.1943283e-42
2.1942617e-42
2.1942295e-42
2.1942154e-42
2.1942101e-42
2.1942088e-42
2.1942099e-42
2.1942139e-42
2.1942243e-42
2.1944588e-42
2.1943291e-42
2.1942626e-42
2.1942306e-42
2.1942165e-42
2.1942112e-42
2.1942099e-42
2.194211e-42
2.194215e-42
2.1942254e-42
2.1944614e-42
2.1943323e-42
2.1942663e-42
2.1942344e-42
2.1942205e-42
2.1942152e-42
2.1942139e-42
2.194215e-42
2.194219e-42
2.1942294e-42
2.194469e-42
2.1943418e-42
2.1942764e-42
2.1942448e-42
2.1942309e-42
2.1942256e-42
2.1942243e-42
2.1942254e-42
2.1942294e-42
2.1942398e-42
7.1685145e-42
7.1681027e-42
7.1678906e-42
7.1677879e-42
7.1677427e-42
7.1677252e-42
7.1677202e-42
7.1677218e-42
7.1677302e-42
7.1677536e-42
7.1681027e-42
7.1676911e-42
7.167479e-42
7.1673764e-42
7.1673313e-42
7.1673138e-42
7.1673091e-42
7.1673114e-42
7.1673218e-42
7.1673513e-42
7.1678906e-42
7.167479e-42
7.1672669e-42
7.1671643e-42
7.1671193e-42
7.1671019e-42
7.1670974e-42
7.1671004e-42
7.167112e-42
7.1671436e-42
7.1677879e-42
7.1673764e-42
7.1671643e-42
7.1670617e-42
7.1670167e-42
7.1669994e-42
7.1669951e-42
7.1669984e-42
7.1670107e-42
7.1670429e-42
7.1677427e-42
7.1673313e-42
7.1671193e-42
7.1670167e-42
7.1669716e-42
7.1669544e-42
7.1669502e-42
7.1669537e-42
7.1669662e-42
7.1669987e-42
7.1677252e-42
7.1673138e-42
7.1671019e-42
7.1669994e-42
7.1669544e-42
7.1669372e-42
7.1669331e-42
7.1669366e-42
7.1669493e-42
7.1669818e-42
7.1677202e-42
7.1673091e-42
7.1670974e-42
7.1669951e-42
7.1669502e-42
7.1669331e-42
7.166929e-42
7.1669325e-42
7.1669452e-42
7.1669777e-42
7.1677218e-42
7.1673114e-42
7.1671004e-42
7.1669984e-42
7.1669537e-42
7.1669366e-42
7.1669325e-42
7.1669361e-42
7.1669488e-42
7.1669813e-42
7.1677302e-42
7.1673218e-42
7.167112e-42
7.1670107e-42
7.1669662e-42
7.1669493e-42
7.1669452e-42
7.1669488e-42
7.1669615e-42
7.1669941e-42
7.1677536e-42
7.1673513e-42
7.1671436e-42
7.1670429e-42
7.1669987e-42
7.1669818e-42
7.1669777e-42
7.1669813e-42
7.1669941e-42
7.1670267e-42
2.3838176e-41
2.383685e-41
2.3836164e-41
2.3835832e-41
2.3835685e-41
2.3835628e-41
2.3835612e-41
2.3835617e-41
2.3835644e-41
2.3835718e-41
2.383685e-41
2.3835525e-41
2.3834839e-41
2.3834507e-41
2.3834361e-41
2.3834304e-41
2.3834289e-41
2.3834296e-41
2.383433e-41
2.3834423e-41
2.3836164e-41
2.3834839e-41
2.3834154e-41
2.3833821e-41
2.3833675e-41
2.3833619e-41
2.3833605e-41
2.3833614e-41
2.3833652e-41
2.3833752e-41
2.3835832e-41
2.3834507e-41
2.3833821e-41
2.3833489e-41
2.3833343e-41
2.3833287e-41
2.3833273e-41
2.3833284e-41
2.3833324e-41
2.3833426e-41
2.3835685e-41
2.3834361e-41
2.3833675e-41
2.3833343e-41
2.3833197e-41
2.3833141e-41
2.3833128e-41
2.3833139e-41
2.383318e-41
2.3833283e-41
2.3835628e-41
2.3834304e-41
2.3833619e-41
2.3833287e-41
2.3833141e-41
2.3833086e-41
2.3833072e-41
2.3833084e-41
2.3833125e-41
2.3833228e-41
2.3835612e-41
2.3834289e-41
2.3833605e-41
2.3833273e-41
2.3833128e-41
2.3833072e-41
2.3833059e-41
2.3833071e-41
2.3833112e-41
2.3833215e-41
2.3835617e-41
2.3834296e-41
2.3833614e-41
2.3833284e-41
2.3833139e-41
2.3833084e-41
2.3833071e-41
2.3833082e-41
2.3833123e-41
2.3833227e-41
2.3835644e-41
2.383433e-41
2.3833652e-41
2.3833324e-41
2.383318e-41
2.3833125e-41
2.3833112e-41
2.3833123e-41
2.3833164e-41
2.3833268e-41
2.3835718e-41
2.3834423e-41
2.3833752e-41
2.3833426e-41
2.3833283e-41
2.3833228e-41
2.3833215e-41
2.3833227e-41
2.3833268e-41
2.3833372e-41
8.071021e-41
8.0705866e-41
8.0703611e-41
8.0702516e-41
8.0702033e-41
8.0701845e-41
8.0701792e-41
8.0701809e-41
8.0701897e-41
8.0702133e-41
8.0705866e-41
8.0701524e-41
8.0699269e-41
8.0698174e-41
8.0697692e-41
8.0697505e-41
8.0697455e-41
8.069748e-41
8.0697589e-41
8.0697893e-41
8.0703611e-41
8.0699269e-41
8.0697014e-41
8.0695919e-41
8.0695438e-41
8.0695252e-41
8.0695205e-41
8.0695236e-41
8.069536e-41
8.0695686e-41
8.0702516e-41
8.0698174e-41
8.0695919e-41
8.0694825e-41
8.0694343e-41
8.0694159e-41
8.0694113e-41
8.0694149e-41
8.0694279e-41
8.0694612e-41
8.0702033e-41
8.0697692e-41
8.0695438e-41
8.0694343e-41
8.0693862e-41
8.0693678e-41
8.0693633e-41
8.0693671e-41
8.0693804e-41
8.069414e-41
8.0701845e-41
8.0697505e-41
8.0695252e-41
8.0694159e-41
8.0693678e-41
8.0693494e-41
8.069345e-41
8.0693488e-41
8.0693623e-41
8.069396e-41
8.0701792e-41
8.0697455e-41
8.0695205e-41
8.0694113e-41
8.0693633e-41
8.069345e-41
8.0693407e-41
8.0693445e-41
8.069358e-41
8.0693916e-41
8.0701809e-41
8.069748e-41
8.0695236e-41
8.0694149e-41
8.0693671e-41
8.0693488e-41
8.0693445e-41
8.0693484e-41
8.0693619e-41
8.0693956e-41
8.0701897e-41
8.0697589e-41
8.069536e-41
8.0694279e-41
8.0693804e-41
8.0693623e-41
8.069358e-41
8.0693619e-41
8.0693754e-41
8.0694091e-41
8.0702133e-41
8.0697893e-41
8.0695686e-41
8.0694612e-41
8.069414e-41
8.069396e-41
8.0693916e-41
8.0693956e-41
8.0694091e-41
8.0694428e-41
2.7823447e-40
2.7821999e-40
2.7821244e-40
2.7820877e-40
2.7820715e-40
2.7820652e-40
2.7820634e-40
2.782064e-40
2.7820669e-40
2.7820746e-40
2.7821999e-40
2.7820551e-40
2.7819796e-40
2.7819429e-40
2.7819267e-40
2.7819204e-40
2.7819187e-40
2.7819196e-40
2.7819232e-40
2.7819332e-40
2.7821244e-40
2.7819796e-40
2.7819041e-40
2.7818674e-40
2.7818513e-40
2.781845e-40
2.7818434e-40
2.7818445e-40
2.7818486e-40
2.7818594e-40
2.7820877e-40
2.7819429e-40
2.7818674e-40
2.7818307e-40
2.7818145e-40
2.7818084e-40
2.7818068e-40
2.781808e-40
2.7818124e-40
2.7818234e-40
2.7820715e-40
2.7819267e-40
2.7818513e-40
2.7818145e-40
2.7817984e-40
2.7817922e-40
2.7817907e-40
2.781792e-40
2.7817965e-40
2.7818076e-40
2.7820652e-40
2.7819204e-40
2.781845e-40
2.7818084e-40
2.7817922e-40
2.7817861e-40
2.7817846e-40
2.7817859e-40
2.7817904e-40
2.7818015e-40
2.7820634e-40
2.7819187e-40
2.7818434e-40
2.7818068e-40
2.7817907e-40
2.7817846e-40
2.7817831e-40
2.7817844e-40
2.781789e-40
2.7818001e-40
2.782064e-40
2.7819196e-40
2.7818445e-40
2.781808e-40
2.781792e-40
2.7817859e-40
2.7817844e-40
2.7817857e-40
2.7817903e-40
2.7818014e-40
2.7820669e-40
2.7819232e-40
2.7818486e-40
2.7818124e-40
2.7817965e-40
2.7817904e-40
2.781789e-40
2.7817903e-40
2.7817948e-40
2.7818059e-40
2.7820746e-40
2.7819332e-40
2.7818594e-40
2.7818234e-40
2.7818076e-40
2.7818015e-40
2.7818001e-40
2.7818014e-40
2.7818059e-40
2.7818171e-40
9.7663208e-40
9.7658291e-40
9.765572e-40
9.7654467e-40
9.7653913e-40
9.7653699e-40
9.7653638e-40
9.7653657e-40
9.7653756e-40
9.7654011e-40
9.7658291e-40
9.7653376e-40
9.7650805e-40
9.7649553e-40
9.7649e-40
9.7648786e-40
9.7648729e-40
9.7648757e-40
9.7648882e-40
9.7649217e-40
9.765572e-40
9.7650805e-40
9.7648235e-40
9.7646982e-40
9.7646431e-40
9.7646218e-40
9.7646164e-40
9.76462e-40
9.7646342e-40
9.7646703e-40
9.7654467e-40
9.7649553e-40
9.7646982e-40
9.764573e-40
9.7645178e-40
9.7644967e-40
9.7644915e-40
9.7644956e-40
9.7645105e-40
9.7645476e-40
9.7653913e-40
9.7649e-40
9.7646431e-40
9.7645178e-40
9.7644627e-40
9.7644416e-40
9.7644365e-40
9.7644409e-40
9.7644561e-40
9.7644935e-40
9.7653699e-40
9.7648786e-40
9.7646218e-40
9.7644967e-40
9.7644416e-40
9.7644206e-40
9.7644155e-40
9.76442e-40
9.7644354e-40
9.7644729e-40
9.7653638e-40
9.7648729e-40
9.7646164e-40
9.7644915e-40
9.7644365e-40
9.7644155e-40
9.7644106e-40
9.7644151e-40
9.7644305e-40
9.7644679e-40
9.7653657e-40
9.7648757e-40
9.76462e-40
9.7644956e-40
9.7644409e-40
9.76442e-40
9.7644151e-40
9.7644196e-40
9.764435e-40
9.7644725e-40
9.7653756e-40
9.7648882e-40
9.7646342e-40
9.7645105e-40
9.7644561e-40
9.7644354e-40
9.7644305e-40
9.764435e-40
9.7644504e-40
9.7644879e-40
9.7654011e-40
9.7649217e-40
9.7646703e-40
9.7645476e-40
9.7644935e-40
9.7644729e-40
9.7644679e-40
9.7644725e-40
9.7644879e-40
9.7645255e-40
3.4905528e-39
3.4903829e-39
3.4902938e-39
3.4902503e-39
3.4902311e-39
3.4902236e-39
3.4902215e-39
3.4902222e-39
3.4902256e-39
3.4902342e-39
3.4903829e-39
3.4902132e-39
3.4901241e-39
3.4900806e-39
3.4900614e-39
3.4900539e-39
3.4900519e-39
3.490053e-39
3.4900573e-39
3.4900687e-39
3.4902938e-39
3.4901241e-39
3.490035e-39
3.4899915e-39
3.4899723e-39
3.4899649e-39
3.489963e-39
3.4899643e-39
3.4899692e-39
3.4899816e-39
3.4902503e-39
3.4900806e-39
3.4899915e-39
3.489948e-39
3.4899288e-39
3.4899215e-39
3.4899197e-39
3.4899211e-39
3.4899263e-39
3.489939e-39
3.4902311e-39
3.4900614e-39
3.4899723e-39
3.4899288e-39
3.4899097e-39
3.4899024e-39
3.4899006e-39
3.4899021e-39
3.4899074e-39
3.4899202e-39
3.4902236e-39
3.4900539e-39
3.4899649e-39
3.4899215e-39
3.4899024e-39
3.489895e-39
3.4898933e-39
3.4898949e-39
3.4899002e-39
3.4899131e-39
3.4902215e-39
3.4900519e-39
3.489963e-39
3.4899197e-39
3.4899006e-39
3.4898933e-39
3.4898916e-39
3.4898932e-39
3.4898985e-39
3.4899114e-39
3.4902222e-39
3.490053e-39
3.4899643e-39
3.4899211e-39
3.4899021e-39
3.4898949e-39
3.4898932e-39
3.4898948e-39
3.4899001e-39
3.489913e-39
3.4902256e-39
3.4900573e-39
3.4899692e-39
3.4899263e-39
3.4899074e-39
3.4899002e-39
3.4898985e-39
3.4899001e-39
3.4899055e-39
3.4899183e-39
3.4902342e-39
3.4900687e-39
3.4899816e-39
3.489939e-39
3.4899202e-39
3.4899131e-39
3.4899114e-39
3.489913e-39
3.4899183e-39
3.4899312e-39
1.2702844e-38
1.2702247e-38
1.2701933e-38
1.2701779e-38
1.2701711e-38
1.2701685e-38
1.2701677e-38
1.270168e-38
1.2701692e-38
1.2701721e-38
1.2702247e-38
1.270165e-38
1.2701336e-38
1.2701182e-38
1.2701115e-38
1.2701088e-38
1.2701081e-38
1.2701085e-38
1.27011e-38
1.270114e-38
1.2701933e-38
1.2701336e-38
1.2701022e-38
1.2700868e-38
1.27008e-38
1.2700774e-38
1.2700768e-38
1.2700772e-38
1.270079e-38
1.2700833e-38
1.2701779e-38
1.2701182e-38
1.2700868e-38
1.2700715e-38
1.2700647e-38
1.2700621e-38
1.2700614e-38
1.270062e-38
1.2700638e-38
1.2700682e-38
1.2701711e-38
1.2701115e-38
1.27008e-38
1.2700647e-38
1.2700579e-38
1.2700553e-38
1.2700547e-38
1.2700552e-38
1.2700571e-38
1.2700616e-38
1.2701685e-38
1.2701088e-38
1.2700774e-38
1.2700621e-38
1.2700553e-38
1.2700527e-38
1.2700521e-38
1.2700527e-38
1.2700546e-38
1.2700591e-38
1.2701677e-38
1.2701081e-38
1.2700768e-38
1.2700614e-38
1.2700547e-38
1.2700521e-38
1.2700515e-38
1.2700521e-38
1.270054e-38
1.2700585e-38
1.270168e-38
1.2701085e-38
1.2700772e-38
1.270062e-38
1.2700552e-38
1.2700527e-38
1.2700521e-38
1.2700526e-38
1.2700545e-38
1.270059e-38
1.2701692e-38
1.27011e-38
1.270079e-38
1.2700638e-38
1.2700571e-38
1.2700546e-38
1.270054e-38
1.2700545e-38
1.2700564e-38
1.2700609e-38
1.2701721e-38
1.270114e-38
1.2700833e-38
1.2700682e-38
1.2700616e-38
1.2700591e-38
1.2700585e-38
1.270059e-38
1.2700609e-38
1.2700654e-38
4.7070212e-38
4.7068076e-38
4.7066948e-38
4.7066395e-38
4.7066151e-38
4.7066056e-38
4.7066029e-38
4.7066038e-38
4.706608e-38
4.7066185e-38
4.7068076e-38
4.7065942e-38
4.7064813e-38
4.7064261e-38
4.7064017e-38
4.7063922e-38
4.7063897e-38
4.706391e-38
4.7063964e-38
4.7064106e-38
4.7066948e-38
4.7064813e-38
4.7063685e-38
4.7063133e-38
4.7062889e-38
4.7062795e-38
4.7062771e-38
4.7062788e-38
4.706285e-38
4.7063004e-38
4.7066395e-38
4.7064261e-38
4.7063133e-38
4.7062581e-38
4.7062337e-38
4.7062244e-38
4.7062221e-38
4.706224e-38
4.7062306e-38
4.7062463e-38
4.7066151e-38
4.7064017e-38
4.7062889e-38
4.7062337e-38
4.7062093e-38
4.7062e-38
4.7061978e-38
4.7061998e-38
4.7062065e-38
4.7062224e-38
4.7066056e-38
4.7063922e-38
4.7062795e-38
4.7062244e-38
4.7062e-38
4.7061907e-38
4.7061885e-38
4.7061906e-38
4.7061974e-38
4.7062133e-38
4.7066029e-38
4.7063897e-38
4.7062771e-38
4.7062221e-38
4.7061978e-38
4.7061885e-38
4.7061864e-38
4.7061884e-38
4.7061952e-38
4.7062112e-38
4.7066038e-38
4.706391e-38
4.7062788e-38
4.706224e-38
4.7061998e-38
4.7061906e-38
4.7061884e-38
4.7061905e-38
4.7061973e-38
4.7062133e-38
4.706608e-38
4.7063964e-38
4.706285e-38
4.7062306e-38
4.7062065e-38
4.7061974e-38
4.7061952e-38
4.7061973e-38
4.7062041e-38
4.7062201e-38
4.7066185e-38
4.7064106e-38
4.7063004e-38
4.7062463e-38
4.7062224e-38
4.7062133e-38
4.7062112e-38
4.7062133e-38
4.7062201e-38
4.7062361e-38
1.7759016e-37
1.7758239e-37
1.7757827e-37
1.7757625e-37
1.7757535e-37
1.77575e-37
1.775749e-37
1.7757494e-37
1.7757509e-37
1.7757547e-37
1.7758239e-37
1.7757462e-37
1.775705e-37
1.7756848e-37
1.7756758e-37
1.7756724e-37
1.7756714e-37
1.7756719e-37
1.7756739e-37
1.775679e-37
1.7757827e-37
1.775705e-37
1.7756638e-37
1.7756436e-37
1.7756346e-37
1.7756312e-37
1.7756303e-37
1.7756309e-37
1.7756332e-37
1.7756388e-37
1.7757625e-37
1.7756848e-37
1.7756436e-37
1.7756234e-37
1.7756144e-37
1.775611e-37
1.7756102e-37
1.7756109e-37
1.7756133e-37
1.775619e-37
1.7757535e-37
1.7756758e-37
1.7756346e-37
1.7756144e-37
1.7756055e-37
1.7756021e-37
1.7756013e-37
1.775602e-37
1.7756045e-37
1.7756103e-37
1.77575e-37
1.7756724e-37
1.7756312e-37
1.775611e-37
1.7756021e-37
1.7755987e-37
1.7755979e-37
1.7755987e-37
1.7756012e-37
1.7756069e-37
1.775749e-37
1.7756714e-37
1.7756303e-37
1.7756102e-37
1.7756013e-37
1.7755979e-37
1.7755971e-37
1.7755979e-37
1.7756004e-37
1.7756062e-37
1.7757494e-37
1.7756719e-37
1.7756309e-37
1.7756109e-37
1.775602e-37
1.7755987e-37
1.7755979e-37
1.7755986e-37
1.7756011e-37
1.7756069e-37
1.7757509e-37
1.7756739e-37
1.7756332e-37
1.7756133e-37
1.7756045e-37
1.7756012e-37
1.7756004e-37
1.7756011e-37
1.7756036e-37
1.7756094e-37
1.7757547e-37
1.775679e-37
1.7756388e-37
1.775619e-37
1.7756103e-37
1.7756069e-37
1.7756062e-37
1.7756069e-37
1.7756094e-37
1.7756152e-37
6.8218532e-37
6.8215652e-37
6.821412e-37
6.8213368e-37
6.8213035e-37
6.8212905e-37
6.8212869e-37
6.8212881e-37
6.8212938e-37
6.8213074e-37
6.8215652e-37
6.8212773e-37
6.8211242e-37
6.821049e-37
6.8210157e-37
6.8210028e-37
6.8209994e-37
6.8210012e-37
6.8210086e-37
6.8210274e-37
6.821412e-37
6.8211242e-37
6.8209711e-37
6.8208959e-37
6.8208626e-37
6.8208499e-37
6.8208466e-37
6.820849e-37
6.8208575e-37
6.820878e-37
6.8213368e-37
6.821049e-37
6.8208959e-37
6.8208207e-37
6.8207875e-37
6.8207748e-37
6.8207717e-37
6.8207743e-37
6.8207834e-37
6.8208044e-37
6.8213035e-37
6.8210157e-37
6.8208626e-37
6.8207875e-37
6.8207543e-37
6.8207416e-37
6.8207386e-37
6.8207414e-37
6.8207506e-37
6.8207719e-37
6.8212905e-37
6.8210028e-37
6.8208499e-37
6.8207748e-37
6.8207416e-37
6.8207289e-37
6.820726e-37
6.8207288e-37
6.8207381e-37
6.8207595e-37
6.8212869e-37
6.8209994e-37
6.8208466e-37
6.8207717e-37
6.8207386e-37
6.820726e-37
6.820723e-37
6.8207259e-37
6.8207353e-37
6.8207566e-37
6.8212881e-37
6.8210012e-37
6.820849e-37
6.8207743e-37
6.8207414e-37
6.8207288e-37
6.8207259e-37
6.8207288e-37
6.8207382e-37
6.8207595e-37
6.8212938e-37
6.8210086e-37
6.8208575e-37
6.8207834e-37
6.8207506e-37
6.8207381e-37
6.8207353e-37
6.8207382e-37
6.8207475e-37
6.8207689e-37
6.8213074e-37
6.8210274e-37
6.820878e-37
6.8208044e-37
6.8207719e-37
6.8207595e-37
6.8207566e-37
6.8207595e-37
6.8207689e-37
6.8207903e-37
2.6679237e-36
2.6678151e-36
2.6677573e-36
2.6677288e-36
2.6677161e-36
2.6677112e-36
2.6677098e-36
2.6677103e-36
2.6677125e-36
2.6677175e-36
2.6678151e-36
2.6677067e-36
2.6676488e-36
2.6676203e-36
2.6676077e-36
2.6676028e-36
2.6676015e-36
2.6676022e-36
2.667605e-36
2.667612e-36
2.6677573e-36
2.6676488e-36
2.6675909e-36
2.6675624e-36
2.6675498e-36
2.667545e-36
2.6675438e-36
2.6675447e-36
2.6675479e-36
2.6675556e-36
2.6677288e-36
2.6676203e-36
2.6675624e-36
2.667534e-36
2.6675214e-36
2.6675165e-36
2.6675154e-36
2.6675164e-36
2.6675198e-36
2.6675277e-36
2.6677161e-36
2.6676077e-36
2.6675498e-36
2.6675214e-36
2.6675088e-36
2.667504e-36
2.6675028e-36
2.6675039e-36
2.6675074e-36
2.6675154e-36
2.6677112e-36
2.6676028e-36
2.667545e-36
2.6675165e-36
2.667504e-36
2.6674992e-36
2.6674981e-36
2.6674991e-36
2.6675027e-36
2.6675107e-36
2.6677098e-36
2.6676015e-36
2.6675438e-36
2.6675154e-36
2.6675028e-36
2.6674981e-36
2.667497e-36
2.6674981e-36
2.6675016e-36
2.6675096e-36
2.6677103e-36
2.6676022e-36
2.6675447e-36
2.6675164e-36
2.6675039e-36
2.6674991e-36
2.6674981e-36
2.6674992e-36
2.6675027e-36
2.6675108e-36
2.6677125e-36
2.667605e-36
2.6675479e-36
2.6675198e-36
2.6675074e-36
2.6675027e-36
2.6675016e-36
2.6675027e-36
2.6675063e-36
2.6675143e-36
2.6677175e-36
2.667612e-36
2.6675556e-36
2.6675277e-36
2.6675154e-36
2.6675107e-36
2.6675096e-36
2.6675108e-36
2.6675143e-36
2.6675224e-36
1.0621902e-35
1.0621486e-35
1.0621263e-35
1.0621153e-35
1.0621105e-35
1.0621086e-35
1.0621081e-35
1.0621082e-35
1.0621091e-35
1.062111e-35
1.0621486e-35
1.062107e-35
1.0620847e-35
1.0620738e-35
1.0620689e-35
1.062067e-35
1.0620665e-35
1.0620668e-35
1.0620679e-35
1.0620706e-35
1.0621263e-35
1.0620847e-35
1.0620625e-35
1.0620515e-35
1.0620466e-35
1.0620448e-35
1.0620443e-35
1.0620447e-35
1.0620459e-35
1.0620488e-35
1.0621153e-35
1.0620738e-35
1.0620515e-35
1.0620405e-35
1.0620357e-35
1.0620338e-35
1.0620334e-35
1.0620338e-35
1.0620351e-35
1.0620381e-35
1.0621105e-35
1.0620689e-35
1.0620466e-35
1.0620357e-35
1.0620308e-35
1.062029e-35
1.0620285e-35
1.062029e-35
1.0620303e-35
1.0620334e-35
1.0621086e-35
1.062067e-35
1.0620448e-35
1.0620338e-35
1.062029e-35
1.0620271e-35
1.0620267e-35
1.0620271e-35
1.0620285e-35
1.0620316e-35
1.0621081e-35
1.0620665e-35
1.0620443e-35
1.0620334e-35
1.0620285e-35
1.0620267e-35
1.0620263e-35
1.0620267e-35
1.0620281e-35
1.0620312e-35
1.0621082e-35
1.0620668e-35
1.0620447e-35
1.0620338e-35
1.062029e-35
1.0620271e-35
1.0620267e-35
1.0620271e-35
1.0620285e-35
1.0620316e-35
1.0621091e-35
1.0620679e-35
1.0620459e-35
1.0620351e-35
1.0620303e-35
1.0620285e-35
1.0620281e-35
1.0620285e-35
1.0620299e-35
1.062033e-35
1.062111e-35
1.0620706e-35
1.0620488e-35
1.0620381e-35
1.0620334e-35
1.0620316e-35
1.0620312e-35
1.0620316e-35
1.062033e-35
1.062036e-35
4.3047945e-35
4.3046321e-35
4.304545e-35
4.304502e-35
4.3044829e-35
4.3044755e-35
4.3044734e-35
4.3044742e-35
4.3044774e-35
4.3044847e-35
4.3046321e-35
4.3044698e-35
4.3043827e-35
4.3043398e-35
4.3043207e-35
4.3043133e-35
4.3043113e-35
4.3043124e-35
4.3043167e-35
4.3043272e-35
4.304545e-35
4.3043827e-35
4.3042956e-35
4.3042527e-35
4.3042336e-35
4.3042263e-35
4.3042245e-35
4.3042259e-35
4.3042308e-35
4.3042423e-35
4.304502e-35
4.3043398e-35
4.3042527e-35
4.3042097e-35
4.3041907e-35
4.3041834e-35
4.3041817e-35
4.3041832e-35
4.3041885e-35
4.3042003e-35
4.3044829e-35
4.3043207e-35
4.3042336e-35
4.3041907e-35
4.3041717e-35
4.3041644e-35
4.3041627e-35
4.3041644e-35
4.3041697e-35
4.3041817e-35
4.3044755e-35
4.3043133e-35
4.3042263e-35
4.3041834e-35
4.3041644e-35
4.3041571e-35
4.3041555e-35
4.3041572e-35
4.3041626e-35
4.3041746e-35
4.3044734e-35
4.3043113e-35
4.3042245e-35
4.3041817e-35
4.3041627e-35
4.3041555e-35
4.3041539e-35
4.3041556e-35
4.304161e-35
4.304173e-35
4.3044742e-35
4.3043124e-35
4.3042259e-35
4.3041832e-35
4.3041644e-35
4.3041572e-35
4.3041556e-35
4.3041573e-35
4.3041627e-35
4.3041747e-35
4.3044774e-35
4.3043167e-35
4.3042308e-35
4.3041885e-35
4.3041697e-35
4.3041626e-35
4.304161e-35
4.3041627e-35
4.3041681e-35
4.3041801e-35
4.3044847e-35
4.3043272e-35
4.3042423e-35
4.3042003e-35
4.3041817e-35
4.3041746e-35
4.304173e-35
4.3041747e-35
4.3041801e-35
4.3041921e-35
1.7757423e-34
1.7756779e-34
1.7756432e-34
1.7756261e-34
1.7756185e-34
1.7756155e-34
1.7756147e-34
1.775615e-34
1.7756163e-34
1.7756192e-34
1.7756779e-34
1.7756135e-34
1.7755788e-34
1.7755617e-34
1.7755541e-34
1.7755512e-34
1.7755504e-34
1.7755508e-34
1.7755525e-34
1.7755567e-34
1.7756432e-34
1.7755788e-34
1.7755442e-34
1.7755271e-34
1.7755195e-34
1.7755165e-34
1.7755158e-34
1.7755164e-34
1.7755184e-34
1.7755229e-34
1.7756261e-34
1.7755617e-34
1.7755271e-34
1.7755099e-34
1.7755023e-34
1.7754994e-34
1.7754988e-34
1.7754994e-34
1.7755015e-34
1.7755062e-34
1.7756185e-34
1.7755541e-34
1.7755195e-34
1.7755023e-34
1.7754948e-34
1.7754919e-34
1.7754912e-34
1.7754919e-34
1.775494e-34
1.7754988e-34
1.7756155e-34
1.7755512e-34
1.7755165e-34
1.7754994e-34
1.7754919e-34
1.775489e-34
1.7754883e-34
1.775489e-34
1.7754912e-34
1.7754959e-34
1.7756147e-34
1.7755504e-34
1.7755158e-34
1.7754988e-34
1.7754912e-34
1.7754883e-34
1.7754877e-34
1.7754884e-34
1.7754905e-34
1.7754953e-34
1.775615e-34
1.7755508e-34
1.7755164e-34
1.7754994e-34
1.7754919e-34
1.775489e-34
1.7754884e-34
1.7754891e-34
1.7754913e-34
1.775496e-34
1.7756163e-34
1.7755525e-34
1.7755184e-34
1.7755015e-34
1.775494e-34
1.7754912e-34
1.7754905e-34
1.7754913e-34
1.7754934e-34
1.7754982e-34
1.7756192e-34
1.7755567e-34
1.7755229e-34
1.7755062e-34
1.7754988e-34
1.7754959e-34
1.7754953e-34
1.775496e-34