/*--------------------------------*- C++ -*----------------------------------*\
| =========                 |                                                 |
| \\      /  F ield         | OpenFOAM: The Open Source CFD Toolbox           |
|  \\    /   O peration     | Version:  dev                                   |
|   \\  /    A nd           | Web:      www.OpenFOAM.org                      |
|    \\/     M anipulation  |                                                 |
\*---------------------------------------------------------------------------*/
FoamFile
{
    version     2.0;
    format      ascii;
    class       volScalarField;
    location    "6";
    object      A;
}
// * * * * * * * * * * * * * * * * * * * * * * * * * * * * * * * * * * * * * //

dimensions      [0 0 0 0 1 0 0];

internalField   nonuniform List<scalar> 
10000
(
0.99968092
0.99968158
0.99968224
0.99968284
0.99968335
0.99968374
0.999684
0.99968416
0.99968426
0.9996844
0.99968158
0.99968239
0.99968317
0.99968386
0.99968443
0.99968485
0.99968512
0.99968527
0.9996853
0.99968534
0.99968224
0.99968317
0.99968408
0.99968487
0.9996855
0.99968596
0.99968623
0.99968633
0.99968628
0.99968619
0.99968284
0.99968386
0.99968487
0.99968574
0.99968644
0.99968692
0.99968718
0.99968722
0.99968708
0.99968692
0.99968335
0.99968443
0.9996855
0.99968644
0.99968716
0.99968765
0.9996879
0.9996879
0.9996877
0.99968748
0.99968374
0.99968485
0.99968596
0.99968692
0.99968765
0.99968814
0.99968838
0.99968836
0.99968812
0.99968787
0.999684
0.99968512
0.99968623
0.99968718
0.9996879
0.99968838
0.9996886
0.99968858
0.99968834
0.99968807
0.99968416
0.99968527
0.99968633
0.99968722
0.9996879
0.99968836
0.99968858
0.99968857
0.99968836
0.99968811
0.99968426
0.9996853
0.99968628
0.99968708
0.9996877
0.99968812
0.99968834
0.99968836
0.9996882
0.999688
0.9996844
0.99968534
0.99968619
0.99968692
0.99968748
0.99968787
0.99968807
0.99968811
0.999688
0.99968786
0.99903384
0.99903574
0.99903772
0.99903955
0.99904109
0.99904226
0.99904305
0.99904352
0.99904379
0.99904413
0.99903574
0.99903813
0.99904047
0.99904256
0.99904427
0.99904554
0.99904637
0.9990468
0.99904689
0.99904689
0.99903772
0.99904047
0.9990432
0.9990456
0.99904752
0.99904889
0.99904972
0.99905001
0.99904981
0.99904947
0.99903955
0.99904256
0.9990456
0.99904825
0.99905034
0.9990518
0.99905258
0.99905271
0.99905226
0.99905166
0.99904109
0.99904427
0.99904752
0.99905034
0.99905255
0.99905403
0.99905477
0.99905478
0.99905414
0.99905336
0.99904226
0.99904554
0.99904889
0.9990518
0.99905403
0.99905552
0.99905622
0.99905615
0.99905541
0.99905452
0.99904305
0.99904637
0.99904972
0.99905258
0.99905477
0.99905622
0.99905691
0.99905682
0.99905606
0.99905514
0.99904352
0.9990468
0.99905001
0.99905271
0.99905478
0.99905615
0.99905682
0.99905679
0.99905612
0.99905524
0.99904379
0.99904689
0.99904981
0.99905226
0.99905414
0.99905541
0.99905606
0.99905612
0.99905561
0.99905489
0.99904413
0.99904689
0.99904947
0.99905166
0.99905336
0.99905452
0.99905514
0.99905524
0.99905489
0.99905438
0.99837043
0.99837343
0.99837671
0.99837978
0.99838236
0.99838432
0.99838565
0.99838641
0.99838677
0.99838714
0.99837343
0.99837722
0.99838112
0.99838463
0.99838751
0.99838965
0.99839103
0.99839172
0.99839177
0.99839155
0.99837671
0.99838112
0.99838569
0.99838972
0.99839295
0.99839527
0.99839665
0.9983971
0.99839667
0.99839584
0.99837978
0.99838463
0.99838972
0.9983942
0.99839773
0.99840017
0.99840148
0.99840166
0.99840079
0.99839951
0.99838236
0.99838751
0.99839295
0.99839773
0.99840144
0.99840395
0.99840517
0.99840514
0.99840395
0.99840237
0.99838432
0.99838965
0.99839527
0.99840017
0.99840395
0.99840645
0.99840762
0.99840746
0.99840608
0.99840432
0.99838565
0.99839103
0.99839665
0.99840148
0.99840517
0.99840761
0.99840875
0.99840857
0.99840717
0.99840535
0.99838641
0.99839172
0.9983971
0.99840166
0.99840514
0.99840746
0.99840857
0.99840848
0.99840723
0.99840548
0.99838677
0.99839177
0.99839667
0.99840079
0.99840395
0.99840608
0.99840717
0.99840723
0.99840628
0.99840482
0.99838714
0.99839155
0.99839584
0.99839951
0.99840237
0.99840432
0.99840534
0.99840548
0.99840482
0.99840377
0.99769051
0.99769443
0.99769897
0.99770327
0.9977069
0.99770965
0.99771149
0.9977125
0.99771285
0.99771303
0.99769443
0.99769942
0.99770485
0.99770978
0.99771384
0.99771685
0.99771877
0.99771967
0.99771956
0.99771888
0.99769897
0.99770485
0.99771121
0.9977169
0.99772147
0.99772474
0.99772664
0.9977272
0.99772639
0.99772484
0.99770327
0.99770978
0.9977169
0.99772322
0.99772822
0.99773166
0.99773347
0.99773364
0.99773219
0.99772999
0.9977069
0.99771384
0.99772147
0.99772822
0.99773347
0.997737
0.9977387
0.99773855
0.99773664
0.99773401
0.99770965
0.99771685
0.99772474
0.99773166
0.997737
0.99774053
0.99774214
0.99774182
0.99773964
0.99773676
0.99771149
0.99771877
0.99772664
0.99773347
0.9977387
0.99774214
0.99774369
0.99774335
0.99774115
0.99773817
0.9977125
0.99771967
0.9977272
0.99773363
0.99773855
0.99774182
0.99774335
0.99774314
0.99774116
0.9977383
0.99771285
0.99771956
0.99772639
0.99773219
0.99773664
0.99773964
0.99774115
0.99774116
0.99773963
0.99773722
0.99771303
0.99771888
0.99772484
0.99772999
0.99773401
0.99773676
0.99773817
0.9977383
0.99773722
0.99773547
0.99699378
0.99699846
0.99700419
0.9970097
0.99701437
0.9970179
0.99702021
0.9970214
0.9970216
0.99702144
0.99699846
0.99700446
0.99701134
0.99701769
0.99702292
0.99702679
0.99702921
0.99703023
0.99702981
0.99702851
0.99700419
0.99701134
0.99701945
0.99702679
0.99703269
0.9970369
0.99703929
0.99703985
0.99703849
0.99703604
0.9970097
0.99701769
0.99702679
0.99703496
0.99704142
0.99704586
0.99704812
0.99704816
0.99704596
0.99704266
0.99701437
0.99702292
0.99703269
0.99704142
0.99704823
0.99705278
0.99705489
0.99705453
0.99705172
0.99704784
0.9970179
0.9970268
0.9970369
0.99704586
0.99705278
0.99705732
0.99705932
0.99705873
0.99705557
0.99705136
0.99702021
0.99702921
0.99703929
0.99704812
0.99705489
0.99705932
0.99706125
0.99706064
0.99705745
0.99705313
0.9970214
0.99703023
0.99703985
0.99704816
0.99705453
0.99705872
0.99706064
0.99706021
0.99705733
0.99705319
0.9970216
0.99702981
0.99703849
0.99704596
0.99705171
0.99705557
0.99705745
0.99705733
0.99705508
0.99705157
0.99702144
0.99702851
0.99703604
0.99704266
0.99704784
0.99705136
0.99705312
0.99705318
0.99705157
0.99704902
0.99627987
0.99628519
0.99629203
0.99629872
0.99630441
0.99630868
0.99631141
0.99631268
0.99631261
0.99631197
0.99628519
0.99629205
0.99630028
0.99630801
0.99631441
0.9963191
0.99632196
0.99632299
0.9963221
0.99632006
0.99629203
0.99630028
0.99631004
0.996319
0.99632623
0.99633135
0.99633416
0.9963346
0.99633254
0.99632906
0.99629872
0.99630801
0.996319
0.996329
0.99633692
0.99634232
0.99634496
0.99634476
0.99634163
0.99633709
0.99630441
0.99631441
0.99632624
0.99633692
0.99634528
0.99635081
0.99635326
0.99635255
0.99634866
0.99634341
0.99630868
0.9963191
0.99633135
0.99634232
0.99635081
0.99635634
0.99635865
0.99635766
0.99635335
0.99634767
0.99631141
0.99632196
0.99633416
0.99634496
0.99635326
0.99635865
0.9963609
0.99635988
0.99635554
0.99634974
0.99631268
0.99632299
0.9963346
0.99634476
0.99635255
0.99635766
0.99635988
0.99635912
0.99635518
0.99634964
0.99631261
0.9963221
0.99633254
0.99634163
0.99634866
0.99635335
0.99635554
0.99635518
0.99635208
0.9963474
0.99631197
0.99632006
0.99632906
0.99633709
0.9963434
0.99634767
0.99634974
0.99634964
0.9963474
0.99634401
0.99554837
0.99555425
0.99556212
0.99556994
0.9955766
0.99558158
0.99558465
0.99558589
0.99558543
0.99558423
0.99555425
0.99556183
0.99557133
0.99558038
0.9955879
0.99559337
0.99559658
0.9955975
0.99559601
0.99559314
0.99556212
0.99557133
0.99558263
0.99559316
0.99560168
0.99560765
0.99561079
0.99561098
0.99560806
0.9956035
0.99556994
0.99558039
0.99559316
0.99560494
0.99561429
0.99562059
0.99562352
0.99562293
0.99561873
0.99561288
0.9955766
0.9955879
0.99560169
0.99561429
0.99562416
0.99563062
0.99563332
0.99563211
0.99562699
0.99562028
0.99558158
0.99559337
0.99560765
0.99562059
0.99563062
0.99563708
0.99563961
0.99563807
0.99563245
0.99562524
0.99558465
0.99559658
0.99561079
0.99562352
0.99563332
0.99563961
0.99564207
0.99564052
0.99563489
0.99562756
0.99558589
0.9955975
0.99561098
0.99562293
0.99563211
0.99563807
0.99564052
0.99563929
0.99563418
0.99562722
0.99558543
0.99559601
0.99560806
0.99561873
0.99562699
0.99563245
0.99563489
0.99563418
0.99563012
0.99562426
0.99558422
0.99559314
0.9956035
0.99561288
0.99562028
0.99562524
0.99562756
0.99562722
0.99562426
0.99562004
0.99479886
0.99480523
0.99481405
0.99482293
0.99483052
0.99483613
0.99483947
0.99484057
0.99483961
0.99483779
0.99480523
0.99481344
0.9948241
0.99483441
0.99484299
0.99484917
0.99485264
0.99485331
0.9948511
0.99484739
0.99481405
0.9948241
0.99483684
0.99484886
0.99485861
0.99486536
0.99486872
0.99486852
0.99486463
0.99485897
0.99482294
0.99483441
0.99484887
0.99486234
0.99487306
0.99488019
0.99488329
0.99488216
0.99487677
0.99486962
0.99483053
0.99484299
0.99485861
0.99487306
0.99488437
0.99489169
0.99489453
0.99489267
0.9948862
0.99487804
0.99483613
0.99484917
0.99486536
0.99488019
0.99489169
0.99489901
0.99490165
0.99489941
0.99489237
0.99488364
0.99483947
0.99485264
0.99486872
0.99488329
0.99489453
0.99490165
0.99490422
0.99490199
0.99489496
0.99488612
0.99484057
0.99485331
0.99486852
0.99488216
0.99489267
0.99489941
0.99490199
0.99490017
0.9948938
0.99488544
0.99483961
0.9948511
0.99486463
0.99487677
0.9948862
0.99489237
0.99489496
0.9948938
0.99488872
0.99488173
0.99483779
0.99484739
0.99485897
0.99486961
0.99487804
0.99488364
0.99488612
0.99488544
0.99488173
0.9948767
0.99403087
0.99403768
0.99404738
0.99405726
0.99406571
0.99407188
0.99407538
0.99407624
0.99407468
0.99407223
0.99403768
0.99404645
0.99405818
0.99406967
0.99407924
0.99408604
0.99408965
0.99408996
0.99408694
0.99408238
0.99404738
0.99405818
0.99407224
0.99408567
0.99409657
0.994104
0.99410747
0.99410674
0.99410179
0.99409504
0.99405726
0.99406967
0.99408567
0.99410076
0.99411275
0.99412062
0.99412377
0.99412197
0.99411529
0.99410686
0.99406571
0.99407924
0.99409657
0.99411275
0.99412543
0.99413351
0.99413635
0.99413371
0.99412582
0.99411624
0.99407188
0.99408604
0.99410401
0.99412062
0.99413351
0.99414158
0.99414421
0.99414114
0.99413261
0.9941224
0.99407538
0.99408965
0.99410747
0.99412377
0.99413635
0.99414421
0.99414677
0.99414374
0.99413526
0.99412496
0.99407624
0.99408996
0.99410674
0.99412197
0.99413371
0.99414114
0.99414374
0.99414122
0.99413354
0.99412387
0.99407468
0.99408694
0.99410179
0.99411529
0.99412582
0.99413261
0.99413526
0.99413354
0.99412741
0.99411937
0.99407223
0.99408238
0.99409504
0.99410686
0.99411624
0.9941224
0.99412496
0.99412387
0.99411937
0.99411361
0.99324392
0.99325114
0.99326165
0.99327245
0.99328168
0.99328832
0.99329189
0.99329239
0.99329018
0.9932871
0.99325114
0.99326041
0.99327312
0.99328569
0.99329617
0.99330349
0.99330714
0.99330696
0.99330307
0.99329769
0.99326165
0.99327312
0.99328839
0.99330313
0.99331508
0.99332309
0.99332653
0.99332516
0.99331909
0.99331131
0.99327245
0.99328569
0.99330313
0.99331971
0.99333288
0.99334136
0.99334444
0.99334183
0.99333383
0.99332418
0.99328168
0.99329617
0.99331508
0.99333288
0.99334681
0.99335553
0.99335825
0.99335471
0.99334534
0.99333442
0.99328832
0.9933035
0.99332309
0.99334136
0.99335553
0.99336424
0.99336674
0.99336272
0.99335267
0.99334106
0.99329189
0.99330714
0.99332654
0.99334444
0.99335825
0.99336674
0.99336917
0.99336523
0.99335527
0.99334362
0.99329239
0.99330696
0.99332516
0.99334183
0.99335471
0.99336272
0.99336523
0.9933619
0.99335292
0.99334205
0.99329018
0.99330307
0.99331909
0.99333383
0.99334534
0.99335267
0.99335527
0.99335292
0.99334573
0.99333675
0.9932871
0.99329769
0.99331131
0.99332418
0.99333442
0.99334106
0.99334362
0.99334205
0.99333675
0.99333032
0.99243751
0.99244511
0.99245635
0.99246799
0.99247792
0.99248494
0.99248848
0.99248853
0.99248562
0.99248192
0.99244511
0.99245485
0.99246844
0.99248201
0.99249328
0.99250103
0.9925046
0.99250383
0.99249903
0.99249287
0.99245635
0.99246844
0.99248482
0.99250075
0.99251363
0.99252211
0.99252541
0.99252327
0.99251606
0.99250731
0.99246799
0.99248201
0.99250075
0.99251869
0.99253292
0.9925419
0.99254477
0.99254126
0.99253191
0.99252112
0.99247792
0.99249328
0.99251363
0.99253292
0.99254798
0.99255721
0.99255969
0.99255514
0.99254429
0.99253212
0.99248494
0.99250103
0.99252211
0.9925419
0.99255721
0.99256643
0.99256867
0.99256361
0.99255204
0.99253915
0.99248848
0.9925046
0.99252541
0.99254477
0.99255969
0.99256866
0.99257085
0.99256592
0.9925545
0.99254162
0.99248853
0.99250383
0.99252327
0.99254126
0.99255514
0.99256361
0.99256592
0.99256172
0.99255145
0.99253951
0.99248562
0.99249903
0.99251605
0.99253191
0.99254429
0.99255204
0.9925545
0.99255145
0.99254323
0.99253343
0.99248192
0.99249287
0.99250731
0.99252112
0.99253212
0.99253914
0.99254162
0.99253951
0.99253343
0.99252641
0.99161109
0.99161906
0.99163097
0.99164336
0.9916539
0.9916612
0.99166461
0.99166414
0.99166049
0.9916562
0.99161906
0.99162924
0.99164364
0.9916581
0.99167007
0.99167812
0.99168149
0.99168005
0.99167432
0.99166744
0.99163097
0.99164364
0.99166102
0.99167802
0.99169172
0.99170053
0.99170357
0.99170058
0.99169222
0.99168258
0.99164336
0.9916581
0.99167802
0.99169719
0.99171234
0.99172168
0.99172423
0.99171972
0.99170904
0.99169721
0.9916539
0.99167007
0.99169172
0.99171234
0.99172839
0.99173799
0.9917401
0.99173447
0.99172217
0.99170886
0.9916612
0.99167812
0.99170053
0.99172168
0.99173799
0.99174759
0.99174944
0.99174328
0.99173023
0.99171617
0.99166461
0.9916815
0.99170357
0.99172423
0.9917401
0.99174944
0.99175127
0.99174528
0.99173246
0.99171848
0.99166414
0.99168005
0.99170058
0.99171972
0.99173447
0.99174328
0.99174528
0.99174016
0.99172866
0.99171579
0.99166049
0.99167432
0.99169222
0.99170904
0.99172217
0.99173023
0.99173246
0.99172866
0.99171946
0.99170895
0.9916562
0.99166744
0.99168258
0.99169721
0.99170886
0.99171617
0.99171848
0.99171579
0.99170895
0.99170143
0.99076413
0.99077244
0.99078497
0.99079803
0.99080907
0.99081655
0.99081974
0.99081868
0.99081428
0.99080943
0.99077244
0.99078304
0.99079818
0.99081342
0.99082597
0.99083421
0.9908373
0.99083511
0.99082846
0.9908209
0.99078497
0.99079818
0.99081646
0.9908344
0.99084879
0.99085781
0.99086047
0.99085658
0.99084708
0.99083663
0.99079803
0.99081342
0.9908344
0.99085467
0.99087059
0.99088016
0.99088227
0.99087671
0.99086473
0.99085196
0.99080907
0.99082597
0.99084879
0.99087059
0.99088748
0.99089731
0.99089894
0.99089218
0.99087847
0.99086414
0.99081655
0.99083421
0.99085781
0.99088016
0.99089731
0.99090715
0.99090851
0.99090121
0.99088673
0.99087163
0.99081974
0.9908373
0.99086047
0.99088227
0.99089894
0.99090851
0.99090987
0.9909028
0.99088864
0.9908737
0.99081868
0.99083511
0.99085658
0.99087671
0.99089218
0.9909012
0.9909028
0.99089673
0.99088407
0.9908704
0.99081428
0.99082846
0.99084708
0.99086473
0.99087847
0.99088673
0.99088864
0.99088407
0.99087395
0.99086285
0.99080943
0.9908209
0.99083663
0.99085195
0.99086414
0.99087163
0.9908737
0.9908704
0.99086285
0.9908549
0.98989605
0.98990468
0.98991776
0.9899314
0.98994285
0.98995042
0.98995331
0.98995161
0.98994646
0.98994109
0.98990468
0.98991569
0.98993148
0.9899474
0.98996043
0.98996875
0.98997145
0.98996847
0.98996091
0.98995273
0.98991777
0.98993148
0.98995058
0.98996934
0.98998428
0.98999339
0.98999558
0.98999073
0.98998014
0.98996894
0.98993141
0.9899474
0.98996934
0.98999056
0.99000711
0.99001677
0.99001834
0.9900117
0.98999847
0.98998484
0.98994286
0.98996043
0.98998428
0.99000711
0.99002468
0.99003461
0.99003566
0.99002774
0.99001269
0.98999744
0.98995042
0.98996875
0.98999339
0.99001677
0.99003461
0.99004455
0.99004532
0.99003685
0.99002103
0.99000503
0.98995331
0.98997145
0.98999558
0.99001834
0.99003566
0.99004532
0.99004614
0.99003797
0.99002256
0.99000679
0.98995161
0.98996847
0.98999073
0.9900117
0.99002774
0.99003685
0.99003797
0.99003093
0.9900172
0.99000287
0.98994646
0.98996091
0.98998014
0.98999846
0.99001269
0.99002103
0.99002256
0.9900172
0.99000623
0.98999465
0.98994109
0.98995273
0.98996894
0.98998484
0.98999744
0.99000503
0.99000679
0.99000287
0.98999464
0.98998632
0.98900626
0.9890152
0.98902877
0.98904291
0.98905467
0.98906223
0.98906474
0.98906236
0.98905648
0.98905062
0.9890152
0.98902658
0.98904297
0.98905947
0.98907285
0.98908115
0.98908339
0.98907958
0.98907113
0.98906239
0.98902877
0.98904297
0.98906279
0.98908225
0.98909762
0.98910669
0.98910832
0.98910249
0.98909085
0.98907899
0.98904291
0.98905947
0.98908225
0.98910428
0.98912132
0.98913094
0.98913188
0.98912414
0.98910972
0.98909534
0.98905467
0.98907285
0.98909762
0.98912132
0.98913941
0.98914931
0.9891497
0.9891406
0.9891243
0.98910825
0.98906223
0.98908115
0.98910669
0.98913094
0.98914931
0.98915921
0.98915933
0.98914969
0.98913262
0.98911583
0.98906474
0.98908339
0.98910832
0.98913188
0.9891497
0.98915933
0.98915952
0.98915026
0.9891337
0.98911723
0.98906236
0.98907959
0.98910249
0.98912414
0.9891406
0.98914969
0.98915026
0.98914227
0.98912756
0.98911268
0.98905648
0.98907113
0.98909085
0.98910972
0.9891243
0.98913262
0.98913369
0.98912756
0.98911581
0.98910383
0.98905062
0.98906239
0.98907898
0.98909534
0.98910825
0.98911583
0.98911723
0.98911268
0.98910383
0.9890952
0.98809414
0.98810337
0.98811738
0.98813193
0.98814391
0.98815138
0.98815344
0.98815036
0.98814376
0.98813745
0.98810337
0.98811511
0.98813202
0.98814901
0.98816264
0.98817082
0.98817252
0.98816788
0.98815857
0.98814932
0.98811738
0.98813202
0.98815248
0.98817253
0.9881882
0.98819713
0.98819813
0.98819132
0.98817867
0.98816621
0.98813193
0.98814901
0.98817253
0.98819523
0.98821262
0.98822209
0.98822234
0.98821349
0.98819796
0.9881829
0.98814391
0.98816264
0.9881882
0.98821262
0.98823109
0.98824084
0.98824049
0.98823024
0.98821277
0.98819601
0.98815138
0.98817082
0.98819713
0.98822209
0.98824084
0.98825058
0.98824997
0.98823919
0.98822097
0.9882035
0.98815345
0.98817252
0.98819813
0.98822234
0.98824049
0.98824997
0.98824948
0.98823915
0.98822154
0.98820449
0.98815037
0.98816788
0.98819132
0.98821349
0.98823024
0.98823919
0.98823915
0.98823024
0.98821465
0.98819932
0.98814376
0.98815857
0.98817867
0.98819796
0.98821277
0.98822097
0.98822154
0.98821465
0.98820219
0.9881899
0.98813745
0.98814932
0.98816621
0.9881829
0.98819601
0.9882035
0.98820449
0.98819932
0.9881899
0.98818102
0.98715907
0.98716856
0.98718296
0.98719784
0.98720995
0.98721725
0.98721882
0.98721503
0.98720773
0.98720099
0.98716856
0.98718064
0.98719801
0.98721539
0.98722917
0.98723715
0.98723826
0.98723278
0.98722266
0.98721293
0.98718296
0.98719801
0.98721903
0.98723955
0.98725541
0.9872641
0.98726442
0.98725663
0.98724304
0.98723003
0.98719784
0.98721539
0.98723955
0.9872628
0.98728041
0.98728962
0.98728912
0.9872792
0.98726262
0.98724697
0.98720996
0.98722918
0.98725541
0.98728041
0.98729912
0.9873086
0.98730747
0.9872961
0.98727755
0.98726017
0.98721725
0.98723715
0.9872641
0.98728962
0.9873086
0.98731808
0.9873167
0.98730481
0.98728554
0.98726749
0.98721882
0.98723826
0.98726442
0.98728912
0.98730747
0.9873167
0.98731548
0.98730413
0.98728558
0.98726804
0.98721503
0.98723278
0.98725663
0.9872792
0.9872961
0.98730481
0.98730413
0.98729433
0.98727794
0.98726226
0.98720773
0.98722266
0.98724304
0.98726262
0.98727754
0.98728554
0.98728558
0.98727794
0.98726486
0.98725232
0.98720099
0.98721293
0.98723003
0.98724697
0.98726017
0.98726749
0.98726804
0.98726225
0.98725231
0.98724322
0.98620039
0.98621012
0.98622485
0.98623999
0.98625215
0.98625921
0.98626025
0.98625575
0.98624778
0.98624065
0.98621012
0.98622251
0.98624028
0.98625797
0.98627181
0.9862795
0.98627999
0.98627368
0.98626279
0.98625263
0.98622485
0.98624028
0.98626179
0.98628268
0.98629862
0.98630698
0.98630659
0.98629784
0.98628336
0.98626988
0.98623999
0.98625797
0.98628268
0.98630635
0.98632406
0.98633293
0.98633164
0.98632067
0.98630313
0.98628695
0.98625216
0.98627182
0.98629862
0.98632406
0.98634288
0.986352
0.98635007
0.98633761
0.98631806
0.98630016
0.98625921
0.9862795
0.98630699
0.98633293
0.986352
0.98636113
0.98635895
0.986346
0.98632578
0.98630724
0.98626026
0.98628
0.98630659
0.98633164
0.98635007
0.98635895
0.98635698
0.98634465
0.98632525
0.98630732
0.98625575
0.98627368
0.98629783
0.98632067
0.9863376
0.986346
0.98634465
0.986334
0.98631691
0.98630094
0.98624778
0.98626278
0.98628336
0.98630313
0.98631806
0.98632578
0.98632525
0.98631691
0.98630326
0.98629052
0.98624065
0.98625263
0.98626987
0.98628695
0.98630015
0.98630724
0.98630732
0.98630094
0.98629052
0.98628125
0.98521743
0.98522738
0.98524239
0.98525772
0.98526986
0.98527662
0.98527711
0.9852719
0.98526329
0.98525581
0.98522738
0.98524006
0.98525817
0.98527608
0.98528991
0.98529725
0.98529709
0.98528996
0.98527834
0.98526779
0.98524239
0.98525817
0.98528009
0.98530126
0.98531718
0.98532516
0.98532403
0.98531434
0.98529905
0.98528512
0.98525772
0.98527608
0.98530126
0.98532525
0.98534295
0.9853514
0.98534931
0.98533733
0.9853189
0.98530226
0.98526987
0.98528991
0.98531718
0.98534295
0.98536177
0.98537046
0.98536769
0.98535419
0.98533375
0.98531538
0.98527663
0.98529725
0.98532516
0.9853514
0.98537046
0.98537915
0.98537615
0.98536219
0.98534113
0.98532217
0.98527711
0.9852971
0.98532403
0.98534931
0.98536769
0.98537615
0.98537342
0.98536017
0.98534001
0.98532175
0.9852719
0.98528996
0.98531434
0.98533732
0.98535419
0.98536219
0.98536017
0.98534871
0.98533099
0.98531481
0.98526329
0.98527834
0.98529904
0.9853189
0.98533375
0.98534112
0.98534001
0.98533099
0.98531684
0.98530396
0.98525581
0.98526779
0.98528512
0.98530226
0.98531538
0.98532217
0.98532175
0.98531481
0.98530396
0.98529454
0.98420952
0.98421966
0.9842349
0.98425035
0.98426241
0.98426883
0.98426874
0.98426284
0.98425363
0.98424581
0.98421966
0.98423259
0.98425099
0.98426906
0.98428279
0.98428974
0.98428892
0.984281
0.9842687
0.98425779
0.9842349
0.98425099
0.98427326
0.98429463
0.98431045
0.98431798
0.9843161
0.98430551
0.98428946
0.98427514
0.98425035
0.98426906
0.98429463
0.98431883
0.98433644
0.9843444
0.9843415
0.98432856
0.98430932
0.98429227
0.98426242
0.98428279
0.98431045
0.98433644
0.98435515
0.98436334
0.98435974
0.98434526
0.98432401
0.98430524
0.98426883
0.98428974
0.98431798
0.98434441
0.98436334
0.98437155
0.98436773
0.98435282
0.98433099
0.98431169
0.98426874
0.98428892
0.9843161
0.9843415
0.98435974
0.98436773
0.98436423
0.98435011
0.98432929
0.98431077
0.98426284
0.984281
0.98430551
0.98432855
0.98434526
0.98435282
0.98435011
0.9843379
0.98431964
0.98430328
0.98425363
0.9842687
0.98428946
0.98430932
0.984324
0.98433099
0.98432929
0.98431963
0.98430504
0.98429204
0.98424581
0.98425779
0.98427514
0.98429226
0.98430523
0.98431169
0.98431076
0.98430327
0.98429204
0.9842825
0.98317595
0.98318625
0.98320167
0.9832172
0.98322912
0.98323516
0.98323448
0.98322792
0.98321814
0.98321001
0.98318625
0.98319941
0.98321805
0.98323621
0.98324978
0.9832563
0.98325482
0.98324613
0.9832332
0.98322196
0.98320168
0.98321805
0.98324061
0.98326209
0.98327775
0.98328479
0.98328216
0.98327073
0.98325397
0.9832393
0.9832172
0.98323621
0.98326209
0.98328642
0.98330386
0.9833113
0.98330759
0.98329374
0.98327376
0.98325634
0.98322913
0.98324979
0.98327775
0.98330386
0.98332238
0.98333004
0.98332561
0.98331021
0.98328822
0.9832691
0.98323516
0.9832563
0.98328479
0.9833113
0.98333004
0.9833377
0.98333308
0.98331729
0.98329477
0.98327518
0.98323449
0.98325482
0.98328216
0.98330759
0.98332561
0.98333308
0.98332883
0.9833139
0.98329249
0.98327375
0.98322792
0.98324614
0.98327073
0.98329374
0.98331021
0.98331729
0.9833139
0.98330098
0.98328224
0.98326574
0.98321814
0.9832332
0.98325397
0.98327376
0.98328822
0.98329477
0.98329248
0.98328224
0.98326724
0.98325415
0.98321001
0.98322196
0.9832393
0.98325634
0.9832691
0.98327518
0.98327375
0.98326574
0.98325415
0.98324451
0.982116
0.98212645
0.98214201
0.98215755
0.9821693
0.98217493
0.98217367
0.98216646
0.98215616
0.98214774
0.98212645
0.98213981
0.98215863
0.98217682
0.9821902
0.98219626
0.98219412
0.98218471
0.98217119
0.98215965
0.98214201
0.98215863
0.98218142
0.98220295
0.98221839
0.98222493
0.98222156
0.98220932
0.98219192
0.98217693
0.98215756
0.98217682
0.98220295
0.98222734
0.98224455
0.98225144
0.98224694
0.98223224
0.98221159
0.98219384
0.9821693
0.9821902
0.98221839
0.98224455
0.98226282
0.98226991
0.98226468
0.98224842
0.98222576
0.98220635
0.98217493
0.98219626
0.98222493
0.98225144
0.98226991
0.98227701
0.9822716
0.98225499
0.98223186
0.98221202
0.98217367
0.98219412
0.98222156
0.98224694
0.98226468
0.9822716
0.98226661
0.98225094
0.982229
0.98221009
0.98216647
0.98218471
0.98220932
0.98223224
0.98224842
0.98225498
0.98225093
0.98223737
0.98221819
0.98220159
0.98215616
0.98217119
0.98219192
0.98221159
0.98222576
0.98223186
0.982229
0.98221819
0.98220284
0.98218967
0.98214774
0.98215965
0.98217692
0.98219384
0.98220634
0.98221202
0.98221008
0.98220159
0.98218967
0.98217994
0.98102895
0.98103952
0.98105519
0.9810707
0.98108223
0.98108744
0.98108561
0.98107779
0.98106699
0.98105831
0.98103952
0.98105305
0.98107202
0.98109019
0.98110333
0.98110892
0.98110613
0.98109605
0.98108199
0.98107016
0.98105519
0.98107202
0.98109499
0.98111652
0.9811317
0.9811377
0.98113362
0.98112063
0.98110264
0.98108735
0.98107071
0.9810902
0.98111652
0.9811409
0.98115782
0.98116416
0.9811589
0.98114339
0.98112213
0.9811041
0.98108223
0.98110334
0.9811317
0.98115782
0.9811758
0.98118231
0.9811763
0.98115924
0.98113599
0.98111631
0.98108744
0.98110892
0.98113771
0.98116416
0.98118231
0.98118882
0.98118265
0.98116528
0.98114161
0.98112156
0.98108561
0.98110614
0.98113362
0.9811589
0.9811763
0.98118265
0.98117695
0.98116059
0.98113819
0.98111914
0.9810778
0.98109605
0.98112063
0.98114339
0.98115924
0.98116528
0.98116059
0.98114642
0.98112687
0.98111018
0.98106699
0.98108199
0.98110264
0.98112213
0.98113599
0.98114161
0.98113819
0.98112687
0.9811112
0.98109797
0.98105831
0.98107016
0.98108735
0.9811041
0.98111631
0.98112156
0.98111913
0.98111018
0.98109797
0.98108816
0.97991406
0.97992473
0.97994046
0.97995592
0.9799672
0.97997198
0.9799696
0.9799612
0.97994994
0.97994102
0.97992473
0.9799384
0.97995747
0.9799756
0.97998847
0.97999358
0.97999017
0.97997945
0.97996488
0.97995281
0.97994047
0.97995747
0.97998058
0.98000206
0.98001695
0.98002243
0.98001765
0.98000396
0.97998543
0.97996988
0.97995592
0.9799756
0.98000206
0.98002639
0.980043
0.98004877
0.98004277
0.98002654
0.98000472
0.97998643
0.97996721
0.97998847
0.98001695
0.980043
0.98006064
0.98006656
0.98005981
0.98004202
0.98001823
0.97999832
0.97997198
0.97999358
0.98002243
0.98004877
0.98006656
0.98007249
0.9800656
0.98004753
0.98002338
0.98000315
0.9799696
0.97999018
0.98001765
0.98004277
0.98005981
0.9800656
0.98005922
0.98004223
0.98001942
0.98000024
0.97996121
0.97997945
0.98000396
0.98002654
0.98004202
0.98004753
0.98004223
0.9800275
0.98000761
0.97999086
0.97994994
0.97996488
0.97998543
0.98000472
0.98001823
0.98002338
0.98001941
0.98000761
0.97999165
0.97997837
0.97994102
0.97995281
0.97996988
0.97998642
0.97999832
0.98000314
0.98000024
0.97999085
0.97997837
0.97996849
0.97877058
0.97878132
0.9787971
0.97881246
0.97882348
0.97882783
0.97882491
0.97881598
0.97880429
0.97879515
0.97878132
0.97879511
0.97881426
0.97883229
0.97884488
0.97884952
0.97884552
0.9788342
0.97881917
0.97880686
0.9787971
0.97881426
0.97883746
0.97885885
0.97887343
0.97887839
0.97887296
0.97885862
0.97883959
0.9788238
0.97881247
0.9788323
0.97885885
0.97888309
0.97889936
0.97890457
0.97889789
0.97888097
0.97885865
0.97884013
0.97882349
0.97884488
0.97887343
0.97889936
0.97891664
0.97892199
0.97891454
0.97889607
0.97887181
0.97885169
0.97882784
0.97884952
0.97887839
0.97890457
0.97892199
0.97892734
0.97891977
0.97890106
0.97887648
0.97885609
0.97882492
0.97884552
0.97887296
0.97889789
0.97891454
0.97891977
0.97891275
0.97889518
0.978872
0.97885272
0.97881598
0.9788342
0.97885862
0.97888097
0.97889607
0.97890106
0.97889518
0.97887994
0.97885975
0.97884294
0.97880429
0.97881917
0.97883959
0.97885865
0.9788718
0.97887648
0.978872
0.97885975
0.97884353
0.97883021
0.97879515
0.97880686
0.9788238
0.97884012
0.97885169
0.97885608
0.97885272
0.97884293
0.97883021
0.97882026
0.97759775
0.97760854
0.97762433
0.97763958
0.97765033
0.97765426
0.97765083
0.97764139
0.97762931
0.97761997
0.97760854
0.97762242
0.97764161
0.97765954
0.97767183
0.977676
0.97767144
0.97765957
0.97764412
0.9776316
0.97762433
0.97764161
0.97766487
0.97768616
0.97770041
0.97770486
0.97769882
0.97768388
0.97766441
0.9776484
0.97763958
0.97765954
0.97768616
0.97771027
0.9777262
0.97773087
0.97772353
0.977706
0.97768322
0.97766449
0.97765033
0.97767183
0.97770042
0.9777262
0.97774311
0.9777479
0.97773979
0.97772071
0.97769601
0.97767571
0.97765426
0.977676
0.97770486
0.97773087
0.9777479
0.97775269
0.97774448
0.97772519
0.97770022
0.97767969
0.97765083
0.97767145
0.97769882
0.97772353
0.97773979
0.97774447
0.97773686
0.97771876
0.97769526
0.97767588
0.97764139
0.97765958
0.97768388
0.977706
0.97772071
0.97772519
0.97771876
0.97770306
0.97768259
0.97766572
0.97762931
0.97764412
0.97766441
0.97768322
0.97769601
0.97770022
0.97769526
0.97768259
0.97766614
0.97765277
0.97761997
0.9776316
0.9776484
0.97766448
0.97767571
0.97767969
0.97767588
0.97766572
0.97765277
0.97764276
0.97639478
0.97640561
0.97642139
0.97643652
0.97644698
0.97645051
0.9764466
0.9764367
0.97642425
0.97641472
0.97640561
0.97641956
0.97643877
0.97645657
0.97646857
0.97647229
0.97646721
0.97645483
0.97643899
0.97642628
0.97642139
0.97643877
0.97646207
0.97648322
0.97649715
0.97650111
0.9764945
0.97647902
0.97645913
0.97644293
0.97643652
0.97645657
0.97648322
0.97650719
0.97652277
0.97652692
0.97651898
0.97650088
0.9764777
0.97645877
0.97644699
0.97646857
0.97649716
0.97652277
0.97653932
0.97654357
0.97653485
0.97651521
0.97649012
0.97646966
0.97645051
0.97647229
0.97650112
0.97652692
0.97654357
0.97654782
0.97653902
0.97651921
0.97649389
0.97647323
0.9764466
0.97646721
0.9764945
0.97651898
0.97653485
0.97653902
0.97653084
0.97651226
0.97648847
0.97646901
0.9764367
0.97645483
0.97647902
0.97650088
0.97651521
0.9765192