/*--------------------------------*- C++ -*----------------------------------*\
| =========                 |                                                 |
| \\      /  F ield         | OpenFOAM: The Open Source CFD Toolbox           |
|  \\    /   O peration     | Version:  dev                                   |
|   \\  /    A nd           | Web:      www.OpenFOAM.org                      |
|    \\/     M anipulation  |                                                 |
\*---------------------------------------------------------------------------*/
FoamFile
{
    version     2.0;
    format      ascii;
    class       volScalarField;
    location    "6";
    object      A_0;
}
// * * * * * * * * * * * * * * * * * * * * * * * * * * * * * * * * * * * * * //

dimensions      [0 0 0 0 1 0 0];

internalField   nonuniform List<scalar> 
10000
(
0.99968038
0.99968104
0.9996817
0.99968231
0.99968282
0.99968321
0.99968347
0.99968363
0.99968372
0.99968387
0.99968104
0.99968186
0.99968264
0.99968333
0.9996839
0.99968432
0.99968459
0.99968474
0.99968477
0.99968481
0.9996817
0.99968264
0.99968355
0.99968434
0.99968497
0.99968543
0.9996857
0.9996858
0.99968575
0.99968567
0.99968231
0.99968333
0.99968434
0.99968522
0.99968591
0.99968639
0.99968665
0.9996867
0.99968656
0.99968639
0.99968282
0.9996839
0.99968497
0.99968591
0.99968664
0.99968713
0.99968737
0.99968738
0.99968718
0.99968696
0.99968321
0.99968432
0.99968543
0.99968639
0.99968713
0.99968762
0.99968785
0.99968783
0.9996876
0.99968734
0.99968347
0.99968459
0.9996857
0.99968665
0.99968737
0.99968785
0.99968808
0.99968806
0.99968782
0.99968755
0.99968363
0.99968474
0.9996858
0.9996867
0.99968738
0.99968783
0.99968806
0.99968805
0.99968784
0.99968758
0.99968372
0.99968477
0.99968575
0.99968656
0.99968718
0.9996876
0.99968782
0.99968784
0.99968768
0.99968747
0.99968387
0.99968481
0.99968567
0.99968639
0.99968696
0.99968734
0.99968755
0.99968758
0.99968747
0.99968733
0.99903221
0.99903412
0.9990361
0.99903793
0.99903947
0.99904065
0.99904144
0.99904191
0.99904218
0.99904252
0.99903412
0.99903651
0.99903886
0.99904095
0.99904266
0.99904393
0.99904477
0.99904519
0.99904528
0.99904529
0.9990361
0.99903886
0.99904159
0.99904399
0.99904591
0.99904729
0.99904812
0.99904841
0.99904821
0.99904787
0.99903793
0.99904095
0.99904399
0.99904665
0.99904875
0.9990502
0.99905099
0.99905112
0.99905067
0.99905006
0.99903947
0.99904266
0.99904591
0.99904875
0.99905095
0.99905244
0.99905318
0.99905319
0.99905255
0.99905176
0.99904065
0.99904393
0.99904729
0.9990502
0.99905244
0.99905393
0.99905464
0.99905457
0.99905382
0.99905293
0.99904144
0.99904477
0.99904812
0.99905099
0.99905318
0.99905464
0.99905532
0.99905524
0.99905447
0.99905355
0.99904191
0.99904519
0.99904841
0.99905112
0.99905319
0.99905457
0.99905524
0.99905521
0.99905453
0.99905365
0.99904218
0.99904528
0.99904821
0.99905067
0.99905255
0.99905382
0.99905447
0.99905453
0.99905402
0.9990533
0.99904252
0.99904529
0.99904787
0.99905006
0.99905177
0.99905293
0.99905355
0.99905365
0.9990533
0.99905279
0.99836769
0.99837069
0.99837398
0.99837705
0.99837964
0.9983816
0.99838293
0.99838369
0.99838406
0.99838442
0.99837069
0.99837448
0.9983784
0.99838191
0.99838479
0.99838694
0.99838833
0.99838901
0.99838907
0.99838884
0.99837398
0.9983784
0.99838297
0.99838701
0.99839025
0.99839257
0.99839395
0.9983944
0.99839397
0.99839313
0.99837705
0.99838191
0.99838701
0.99839149
0.99839503
0.99839748
0.99839879
0.99839897
0.9983981
0.99839681
0.99837964
0.99838479
0.99839025
0.99839503
0.99839875
0.99840126
0.99840249
0.99840246
0.99840126
0.99839968
0.9983816
0.99838694
0.99839257
0.99839748
0.99840126
0.99840377
0.99840493
0.99840478
0.9984034
0.99840163
0.99838293
0.99838833
0.99839395
0.99839879
0.99840249
0.99840493
0.99840607
0.99840589
0.99840449
0.99840266
0.99838369
0.99838901
0.9983944
0.99839897
0.99840246
0.99840478
0.99840589
0.9984058
0.99840455
0.9984028
0.99838405
0.99838907
0.99839397
0.9983981
0.99840126
0.9984034
0.99840449
0.99840455
0.9984036
0.99840214
0.99838442
0.99838884
0.99839314
0.99839681
0.99839968
0.99840163
0.99840266
0.9984028
0.99840214
0.99840108
0.99768663
0.99769055
0.9976951
0.9976994
0.99770304
0.9977058
0.99770763
0.99770865
0.997709
0.99770918
0.99769055
0.99769555
0.99770098
0.99770593
0.99770999
0.99771301
0.99771493
0.99771583
0.99771572
0.99771504
0.9976951
0.99770098
0.99770736
0.99771306
0.99771764
0.99772091
0.99772282
0.99772337
0.99772256
0.99772101
0.9976994
0.99770593
0.99771306
0.99771939
0.99772439
0.99772784
0.99772965
0.99772982
0.99772837
0.99772617
0.99770304
0.99770999
0.99771764
0.99772439
0.99772966
0.99773319
0.99773489
0.99773475
0.99773283
0.9977302
0.9977058
0.99771301
0.99772091
0.99772784
0.99773319
0.99773673
0.99773834
0.99773801
0.99773584
0.99773295
0.99770763
0.99771493
0.99772282
0.99772965
0.99773489
0.99773834
0.9977399
0.99773955
0.99773734
0.99773436
0.99770865
0.99771583
0.99772337
0.99772982
0.99773475
0.99773801
0.99773955
0.99773934
0.99773735
0.9977345
0.99770899
0.99771572
0.99772256
0.99772837
0.99773283
0.99773584
0.99773735
0.99773735
0.99773582
0.99773341
0.99770918
0.99771504
0.99772101
0.99772617
0.9977302
0.99773295
0.99773436
0.9977345
0.99773341
0.99773166
0.99698872
0.99699341
0.99699915
0.99700467
0.99700934
0.99701288
0.99701519
0.99701638
0.99701659
0.99701642
0.99699341
0.99699942
0.99700631
0.99701267
0.99701791
0.99702179
0.99702421
0.99702523
0.99702481
0.99702351
0.99699915
0.99700631
0.99701443
0.99702178
0.9970277
0.99703191
0.99703431
0.99703487
0.99703351
0.99703105
0.99700467
0.99701267
0.99702178
0.99702997
0.99703644
0.99704089
0.99704315
0.9970432
0.99704099
0.99703768
0.99700934
0.99701791
0.9970277
0.99703644
0.99704327
0.99704782
0.99704993
0.99704957
0.99704675
0.99704287
0.99701288
0.99702179
0.99703191
0.99704089
0.99704782
0.99705237
0.99705437
0.99705377
0.99705062
0.99704639
0.99701519
0.99702421
0.99703431
0.99704315
0.99704993
0.99705437
0.99705631
0.99705569
0.9970525
0.99704816
0.99701638
0.99702523
0.99703487
0.9970432
0.99704957
0.99705377
0.99705569
0.99705526
0.99705237
0.99704822
0.99701659
0.99702481
0.99703351
0.99704099
0.99704675
0.99705062
0.9970525
0.99705237
0.99705012
0.99704661
0.99701642
0.99702351
0.99703106
0.99703768
0.99704287
0.99704639
0.99704816
0.99704822
0.99704661
0.99704405
0.9962736
0.99627894
0.99628579
0.99629249
0.99629819
0.99630247
0.9963052
0.99630647
0.9963064
0.99630576
0.99627894
0.99628581
0.99629406
0.9963018
0.9963082
0.99631291
0.99631577
0.9963168
0.99631591
0.99631386
0.99628579
0.99629406
0.99630383
0.99631281
0.99632005
0.99632517
0.99632799
0.99632843
0.99632636
0.99632289
0.99629249
0.9963018
0.99631281
0.99632282
0.99633076
0.99633616
0.99633881
0.99633861
0.99633548
0.99633093
0.99629819
0.9963082
0.99632005
0.99633076
0.99633913
0.99634467
0.99634713
0.99634641
0.99634252
0.99633725
0.99630247
0.99631291
0.99632517
0.99633616
0.99634467
0.99635021
0.99635253
0.99635153
0.99634721
0.99634152
0.9963052
0.99631577
0.99632799
0.99633881
0.99634713
0.99635253
0.99635477
0.99635376
0.99634941
0.9963436
0.99630647
0.9963168
0.99632843
0.99633861
0.99634641
0.99635153
0.99635376
0.99635299
0.99634905
0.9963435
0.9963064
0.99631591
0.99632636
0.99633548
0.99634252
0.99634721
0.99634941
0.99634905
0.99634594
0.99634125
0.99630576
0.99631386
0.99632289
0.99633093
0.99633725
0.99634152
0.9963436
0.9963435
0.99634125
0.99633785
0.99554088
0.99554677
0.99555465
0.99556248
0.99556916
0.99557414
0.99557722
0.99557846
0.995578
0.99557679
0.99554677
0.99555436
0.99556388
0.99557295
0.99558048
0.99558596
0.99558917
0.99559009
0.9955886
0.99558573
0.99555465
0.99556388
0.9955752
0.99558575
0.99559428
0.99560026
0.9956034
0.9956036
0.99560067
0.9955961
0.99556248
0.99557295
0.99558575
0.99559754
0.99560691
0.99561322
0.99561615
0.99561556
0.99561135
0.9956055
0.99556916
0.99558047
0.99559428
0.99560691
0.99561679
0.99562327
0.99562597
0.99562476
0.99561963
0.99561291
0.99557414
0.99558596
0.99560026
0.99561322
0.99562327
0.99562974
0.99563228
0.99563072
0.9956251
0.99561788
0.99557722
0.99558917
0.9956034
0.99561615
0.99562597
0.99563228
0.99563474
0.99563318
0.99562754
0.9956202
0.99557846
0.99559009
0.9956036
0.99561556
0.99562476
0.99563073
0.99563318
0.99563195
0.99562683
0.99561986
0.995578
0.9955886
0.99560067
0.99561135
0.99561963
0.9956251
0.99562754
0.99562683
0.99562277
0.9956169
0.99557679
0.99558573
0.9955961
0.9956055
0.99561291
0.99561788
0.9956202
0.99561986
0.9956169
0.99561266
0.99479011
0.99479649
0.99480533
0.99481422
0.99482183
0.99482745
0.99483078
0.99483189
0.99483092
0.9948291
0.99479649
0.99480471
0.99481539
0.99482572
0.99483431
0.99484051
0.99484398
0.99484465
0.99484244
0.99483872
0.99480533
0.99481539
0.99482815
0.9948402
0.99484996
0.99485672
0.99486009
0.99485989
0.99485599
0.99485032
0.99481422
0.99482572
0.9948402
0.9948537
0.99486443
0.99487157
0.99487468
0.99487355
0.99486815
0.99486098
0.99482183
0.99483431
0.99484996
0.99486443
0.99487577
0.9948831
0.99488594
0.99488408
0.9948776
0.99486942
0.99482744
0.99484051
0.99485672
0.99487157
0.9948831
0.99489042
0.99489307
0.99489083
0.99488378
0.99487503
0.99483078
0.99484398
0.99486009
0.99487468
0.99488594
0.99489307
0.99489565
0.99489341
0.99488637
0.99487751
0.99483189
0.99484465
0.99485989
0.99487355
0.99488408
0.99489083
0.99489341
0.99489159
0.9948852
0.99487684
0.99483092
0.99484244
0.99485599
0.99486815
0.9948776
0.99488378
0.99488637
0.9948852
0.99488012
0.99487311
0.9948291
0.99483872
0.99485032
0.99486098
0.99486942
0.99487503
0.99487751
0.99487684
0.99487311
0.99486808
0.99402083
0.99402765
0.99403737
0.99404726
0.99405573
0.99406191
0.99406541
0.99406627
0.99406471
0.99406226
0.99402765
0.99403643
0.99404818
0.99405969
0.99406928
0.99407609
0.99407971
0.99408002
0.99407699
0.99407243
0.99403737
0.99404818
0.99406226
0.99407572
0.99408664
0.99409409
0.99409756
0.99409683
0.99409187
0.99408511
0.99404726
0.99405969
0.99407572
0.99409083
0.99410285
0.99411073
0.99411389
0.99411208
0.99410539
0.99409694
0.99405573
0.99406927
0.99408664
0.99410285
0.99411555
0.99412364
0.99412649
0.99412384
0.99411593
0.99410634
0.99406191
0.99407609
0.99409409
0.99411073
0.99412364
0.99413172
0.99413436
0.99413128
0.99412274
0.99411251
0.99406541
0.99407971
0.99409756
0.99411389
0.99412649
0.99413436
0.99413693
0.99413389
0.99412539
0.99411507
0.99406627
0.99408002
0.99409683
0.99411208
0.99412384
0.99413128
0.99413389
0.99413136
0.99412367
0.99411398
0.99406471
0.99407699
0.99409187
0.99410539
0.99411593
0.99412274
0.99412539
0.99412367
0.99411753
0.99410947
0.99406226
0.99407243
0.99408511
0.99409694
0.99410634
0.99411251
0.99411507
0.99411398
0.99410947
0.9941037
0.99323256
0.99323979
0.99325031
0.99326113
0.99327038
0.99327703
0.99328061
0.99328111
0.9932789
0.9932758
0.99323979
0.99324908
0.9932618
0.9932744
0.99328489
0.99329223
0.99329588
0.9932957
0.99329181
0.99328642
0.99325031
0.9932618
0.9932771
0.99329186
0.99330383
0.99331186
0.99331531
0.99331393
0.99330785
0.99330005
0.99326113
0.9932744
0.99329186
0.99330847
0.99332166
0.99333016
0.99333325
0.99333063
0.99332262
0.99331295
0.99327038
0.99328489
0.99330383
0.99332166
0.99333562
0.99334435
0.99334708
0.99334353
0.99333415
0.99332321
0.99327703
0.99329223
0.99331186
0.99333016
0.99334435
0.99335308
0.99335558
0.99335156
0.99334148
0.99332986
0.99328061
0.99329588
0.99331531
0.99333325
0.99334708
0.99335558
0.99335801
0.99335407
0.99334409
0.99333242
0.99328111
0.9932957
0.99331393
0.99333063
0.99334353
0.99335156
0.99335407
0.99335074
0.99334173
0.99333085
0.9932789
0.99329181
0.99330785
0.99332262
0.99333415
0.99334148
0.99334409
0.99334173
0.99333454
0.99332554
0.9932758
0.99328642
0.99330006
0.99331295
0.99332321
0.99332986
0.99333242
0.99333085
0.99332554
0.9933191
0.99242479
0.9924324
0.99244366
0.99245532
0.99246527
0.9924723
0.99247584
0.9924759
0.99247298
0.99246927
0.9924324
0.99244216
0.99245578
0.99246936
0.99248066
0.99248842
0.99249199
0.99249122
0.99248641
0.99248025
0.99244366
0.99245578
0.99247218
0.99248813
0.99250104
0.99250953
0.99251284
0.99251069
0.99250347
0.99249471
0.99245532
0.99246936
0.99248813
0.99250611
0.99252036
0.99252935
0.99253223
0.99252871
0.99251935
0.99250854
0.99246527
0.99248066
0.99250104
0.99252036
0.99253545
0.99254469
0.99254717
0.99254262
0.99253175
0.99251956
0.9924723
0.99248842
0.99250953
0.99252935
0.99254469
0.99255393
0.99255617
0.9925511
0.99253951
0.9925266
0.99247584
0.99249199
0.99251284
0.99253223
0.99254717
0.99255617
0.99255835
0.99255341
0.99254198
0.99252907
0.9924759
0.99249122
0.99251069
0.99252871
0.99254262
0.99255111
0.99255341
0.99254921
0.99253892
0.99252696
0.99247298
0.99248641
0.99250347
0.99251935
0.99253175
0.99253951
0.99254198
0.99253892
0.99253069
0.99252087
0.99246927
0.99248025
0.99249471
0.99250855
0.99251956
0.9925266
0.99252907
0.99252696
0.99252087
0.99251384
0.99159699
0.99160496
0.9916169
0.99162931
0.99163986
0.99164718
0.99165059
0.99165012
0.99164647
0.99164217
0.99160496
0.99161517
0.99162959
0.99164407
0.99165606
0.99166413
0.99166751
0.99166606
0.99166032
0.99165343
0.9916169
0.99162959
0.991647
0.99166402
0.99167775
0.99168657
0.99168962
0.99168663
0.99167825
0.99166859
0.99162931
0.99164407
0.99166402
0.99168323
0.9916984
0.99170776
0.99171031
0.9917058
0.9916951
0.99168325
0.99163986
0.99165606
0.99167775
0.9916984
0.99171448
0.9917241
0.99172621
0.99172057
0.99170825
0.99169492
0.99164718
0.99166412
0.99168657
0.99170776
0.9917241
0.99173371
0.99173557
0.9917294
0.99171632
0.99170224
0.99165059
0.99166751
0.99168961
0.99171031
0.99172621
0.99173557
0.9917374
0.9917314
0.99171855
0.99170455
0.99165012
0.99166606
0.99168663
0.9917058
0.99172057
0.9917294
0.9917314
0.99172627
0.99171475
0.99170185
0.99164647
0.99166032
0.99167825
0.9916951
0.99170825
0.99171632
0.99171855
0.99171475
0.99170553
0.99169501
0.99164217
0.99165343
0.99166859
0.99168325
0.99169492
0.99170224
0.99170455
0.99170186
0.99169501
0.99168747
0.9907486
0.99075693
0.99076948
0.99078256
0.99079362
0.99080111
0.99080431
0.99080324
0.99079884
0.99079398
0.99075693
0.99076755
0.99078271
0.99079797
0.99081055
0.99081881
0.99082189
0.9908197
0.99081304
0.99080547
0.99076948
0.99078271
0.99080102
0.99081899
0.99083341
0.99084244
0.99084511
0.9908412
0.99083169
0.99082122
0.99078256
0.99079797
0.99081899
0.9908393
0.99085525
0.99086483
0.99086694
0.99086137
0.99084937
0.99083657
0.99079361
0.99081055
0.9908334
0.99085525
0.99087216
0.99088201
0.99088364
0.99087687
0.99086314
0.99084878
0.99080111
0.9908188
0.99084244
0.99086483
0.99088201
0.99089186
0.99089323
0.99088591
0.99087141
0.99085629
0.9908043
0.99082189
0.99084511
0.99086694
0.99088364
0.99089323
0.99089459
0.99088751
0.99087332
0.99085836
0.99080324
0.9908197
0.9908412
0.99086137
0.99087687
0.99088591
0.99088751
0.99088143
0.99086874
0.99085505
0.99079884
0.99081304
0.99083169
0.99084937
0.99086314
0.99087141
0.99087332
0.99086874
0.99085861
0.99084749
0.99079398
0.99080547
0.99082122
0.99083658
0.99084878
0.99085629
0.99085836
0.99085505
0.99084749
0.99083952
0.98987907
0.98988772
0.98990082
0.98991448
0.98992595
0.98993353
0.98993642
0.98993472
0.98992956
0.98992418
0.98988772
0.98989874
0.98991456
0.98993051
0.98994355
0.98995189
0.98995459
0.98995161
0.98994403
0.98993584
0.98990082
0.98991456
0.98993369
0.98995248
0.98996745
0.98997657
0.98997876
0.9899739
0.98996329
0.98995208
0.98991448
0.98993051
0.98995248
0.98997374
0.98999032
0.98999999
0.99000156
0.98999491
0.98998165
0.98996801
0.98992595
0.98994355
0.98996745
0.98999032
0.99000792
0.99001786
0.99001891
0.99001097
0.9899959
0.98998063
0.98993353
0.98995189
0.98997657
0.98999999
0.99001786
0.99002781
0.99002859
0.9900201
0.99000426
0.98998823
0.98993642
0.98995459
0.98997876
0.99000156
0.99001891
0.99002859
0.99002941
0.99002122
0.99000578
0.98998999
0.98993472
0.98995161
0.9899739
0.98999491
0.99001097
0.9900201
0.99002122
0.99001418
0.99000042
0.98998606
0.98992956
0.98994403
0.98996329
0.98998165
0.98999591
0.99000426
0.99000579
0.99000042
0.98998943
0.98997783
0.98992418
0.98993584
0.98995208
0.98996801
0.98998063
0.98998823
0.98998999
0.98998606
0.98997783
0.98996949
0.98898779
0.98899674
0.98901034
0.9890245
0.98903628
0.98904385
0.98904636
0.98904398
0.98903809
0.98903222
0.98899674
0.98900814
0.98902456
0.98904109
0.98905449
0.98906281
0.98906504
0.98906123
0.98905277
0.98904401
0.98901034
0.98902456
0.98904441
0.98906391
0.9890793
0.98908839
0.98909002
0.98908418
0.98907252
0.98906063
0.9890245
0.98904109
0.98906391
0.98908597
0.98910304
0.98911268
0.98911362
0.98910587
0.98909142
0.98907701
0.98903628
0.98905449
0.9890793
0.98910304
0.98912117
0.98913108
0.98913146
0.98912236
0.98910603
0.98908994
0.98904385
0.98906281
0.98908839
0.98911268
0.98913108
0.989141
0.98914111
0.98913146
0.98911436
0.98909754
0.98904636
0.98906504
0.98909002
0.98911362
0.98913147
0.98914111
0.9891413
0.98913203
0.98911543
0.98909894
0.98904398
0.98906123
0.98908418
0.98910587
0.98912236
0.98913146
0.98913203
0.98912403
0.98910929
0.98909438
0.98903809
0.98905277
0.98907252
0.98909142
0.98910603
0.98911436
0.98911544
0.98910929
0.98909752
0.98908552
0.98903222
0.98904401
0.98906063
0.98907701
0.98908994
0.98909754
0.98909894
0.98909438
0.98908552
0.98907688
0.98807414
0.98808338
0.98809742
0.98811199
0.988124
0.98813148
0.98813354
0.98813046
0.98812384
0.98811752
0.98808338
0.98809515
0.98811208
0.9881291
0.98814276
0.98815095
0.98815265
0.988148
0.98813868
0.98812941
0.98809742
0.98811208
0.98813258
0.98815266
0.98816836
0.9881773
0.98817831
0.98817148
0.98815881
0.98814633
0.98811199
0.9881291
0.98815266
0.9881754
0.98819282
0.98820231
0.98820255
0.98819369
0.98817813
0.98816305
0.98812399
0.98814276
0.98816836
0.98819282
0.98821132
0.98822108
0.98822074
0.98821047
0.98819297
0.98817618
0.98813147
0.98815095
0.9881773
0.98820231
0.98822108
0.98823085
0.98823023
0.98821943
0.98820118
0.98818368
0.98813354
0.98815265
0.98817831
0.98820255
0.98822074
0.98823023
0.98822974
0.9882194
0.98820176
0.98818468
0.98813046
0.988148
0.98817148
0.98819369
0.98821047
0.98821943
0.9882194
0.98821047
0.98819485
0.98817949
0.98812384
0.98813868
0.98815881
0.98817813
0.98819297
0.98820118
0.98820176
0.98819485
0.98818237
0.98817006
0.98811752
0.98812941
0.98814633
0.98816305
0.98817618
0.98818368
0.98818468
0.98817949
0.98817006
0.98816116
0.9871375
0.98714701
0.98716143
0.98717634
0.98718847
0.98719578
0.98719736
0.98719356
0.98718625
0.9871795
0.98714701
0.98715911
0.98717651
0.98719392
0.98720773
0.98721571
0.98721683
0.98721134
0.9872012
0.98719145
0.98716143
0.98717651
0.98719757
0.98721812
0.98723401
0.98724271
0.98724304
0.98723522
0.98722161
0.98720859
0.98717634
0.98719392
0.98721812
0.98724141
0.98725905
0.98726828
0.98726777
0.98725783
0.98724123
0.98722555
0.98718847
0.98720773
0.98723401
0.98725905
0.98727779
0.98728728
0.98728616
0.98727476
0.98725618
0.98723877
0.98719578
0.98721571
0.98724271
0.98726828
0.98728728
0.98729678
0.9872954
0.98728349
0.98726419
0.98724611
0.98719736
0.98721683
0.98724304
0.98726777
0.98728616
0.9872954
0.98729418
0.98728281
0.98726422
0.98724666
0.98719356
0.98721134
0.98723522
0.98725783
0.98727476
0.98728349
0.98728281
0.98727299
0.98725657
0.98724086
0.98718625
0.9872012
0.98722161
0.98724123
0.98725618
0.98726419
0.98726422
0.98725657
0.98724347
0.9872309
0.9871795
0.98719145
0.98720859
0.98722555
0.98723877
0.98724611
0.98724666
0.98724086
0.9872309
0.98722179
0.98617722
0.98618697
0.98620172
0.98621689
0.98622908
0.98623614
0.98623719
0.98623267
0.98622469
0.98621755
0.98618697
0.98619938
0.98621718
0.9862349
0.98624877
0.98625647
0.98625696
0.98625063
0.98623972
0.98622954
0.98620172
0.98621718
0.98623873
0.98625965
0.98627562
0.986284
0.9862836
0.98627483
0.98626033
0.98624682
0.98621689
0.9862349
0.98625965
0.98628336
0.9863011
0.98630999
0.98630869
0.9862977
0.98628013
0.98626393
0.98622907
0.98624877
0.98627561
0.9863011
0.98631995
0.98632909
0.98632715
0.98631467
0.98629509
0.98627715
0.98623614
0.98625647
0.986284
0.98630999
0.98632909
0.98633824
0.98633605
0.98632307
0.98630282
0.98628425
0.98623719
0.98625696
0.9862836
0.98630869
0.98632715
0.98633605
0.98633408
0.98632173
0.98630229
0.98628433
0.98623267
0.98625063
0.98627483
0.9862977
0.98631467
0.98632307
0.98632173
0.98631105
0.98629393
0.98627794
0.98622469
0.98623972
0.98626033
0.98628014
0.98629509
0.98630282
0.98630229
0.98629393
0.98628026
0.9862675
0.98621755
0.98622955
0.98624682
0.98626393
0.98627715
0.98628425
0.98628433
0.98627794
0.9862675
0.98625822
0.98519262
0.98520259
0.98521762
0.98523298
0.98524514
0.98525191
0.9852524
0.98524718
0.98523856
0.98523106
0.98520259
0.98521528
0.98523343
0.98525137
0.98526522
0.98527257
0.98527242
0.98526527
0.98525363
0.98524306
0.98521762
0.98523343
0.98525539
0.98527659
0.98529254
0.98530053
0.9852994
0.98528969
0.98527437
0.98526042
0.98523297
0.98525137
0.98527659
0.98530062
0.98531836
0.98532682
0.98532472
0.98531271
0.98529426
0.98527759
0.98524514
0.98526522
0.98529254
0.98531836
0.9853372
0.9853459
0.98534313
0.98532961
0.98530913
0.98529073
0.98525191
0.98527257
0.98530053
0.98532682
0.9853459
0.98535461
0.98535161
0.98533763
0.98531652
0.98529753
0.9852524
0.98527242
0.98529939
0.98532472
0.98534313
0.98535161
0.98534887
0.9853356
0.9853154
0.98529711
0.98524718
0.98526527
0.98528969
0.98531271
0.98532961
0.98533763
0.9853356
0.98532411
0.98530637
0.98529016
0.98523856
0.98525363
0.98527437
0.98529426
0.98530913
0.98531652
0.98531541
0.98530637
0.9852922
0.98527929
0.98523106
0.98524306
0.98526042
0.98527759
0.98529073
0.98529754
0.98529712
0.98529016
0.98527929
0.98526986
0.98418303
0.98419318
0.98420845
0.98422393
0.98423601
0.98424244
0.98424235
0.98423644
0.98422721
0.98421938
0.98419318
0.98420613
0.98422457
0.98424267
0.98425642
0.98426338
0.98426256
0.98425462
0.9842423
0.98423137
0.98420845
0.98422457
0.98424688
0.98426828
0.98428413
0.98429167
0.98428978
0.98427918
0.9842631
0.98424876
0.98422393
0.98424266
0.98426828
0.98429252
0.98431016
0.98431814
0.98431523
0.98430226
0.98428299
0.98426591
0.98423601
0.98425642
0.98428413
0.98431016
0.9843289
0.98433711
0.9843335
0.98431899
0.9842977
0.9842789
0.98424243
0.98426338
0.98429167
0.98431814
0.98433711
0.98434532
0.9843415
0.98432657
0.9843047
0.98428536
0.98424234
0.98426256
0.98428978
0.98431523
0.9843335
0.9843415
0.984338
0.98432385
0.98430299
0.98428444
0.98423643
0.98425462
0.98427918
0.98430226
0.984319
0.98432657
0.98432385
0.98431162
0.98429332
0.98427694
0.98422721
0.9842423
0.9842631
0.98428299
0.9842977
0.9843047
0.98430299
0.98429332
0.9842787
0.98426568
0.98421938
0.98423137
0.98424876
0.98426591
0.9842789
0.98428536
0.98428444
0.98427694
0.98426568
0.98425612
0.98314773
0.98315805
0.9831735
0.98318905
0.983201
0.98320704
0.98320637
0.98319979
0.98319
0.98318185
0.98315805
0.98317123
0.9831899
0.98320809
0.98322169
0.98322822
0.98322673
0.98321803
0.98320508
0.98319382
0.9831735
0.9831899
0.9832125
0.98323401
0.9832497
0.98325676
0.98325412
0.98324267
0.98322588
0.98321118
0.98318905
0.98320809
0.98323401
0.98325839
0.98327586
0.98328331
0.9832796
0.98326572
0.98324571
0.98322826
0.98320099
0.98322169
0.9832497
0.98327585
0.98329441
0.98330208
0.98329765
0.98328222
0.98326019
0.98324104
0.98320704
0.98322822
0.98325676
0.98328331
0.98330208
0.98330976
0.98330512
0.98328931
0.98326675
0.98324712
0.98320636
0.98322673
0.98325412
0.9832796
0.98329765
0.98330513
0.98330086
0.98328591
0.98326446
0.98324569
0.98319979
0.98321803
0.98324267
0.98326572
0.98328222
0.98328931
0.98328591
0.98327297
0.98325419
0.98323767
0.98319
0.98320508
0.98322588
0.98324571
0.98326019
0.98326675
0.98326446
0.9832542
0.98323917
0.98322606
0.98318185
0.98319382
0.98321118
0.98322826
0.98324104
0.98324713
0.98324569
0.98323767
0.98322606
0.9832164
0.98208601
0.98209648
0.98211207
0.98212764
0.9821394
0.98214504
0.98214378
0.98213656
0.98212624
0.98211781
0.98209648
0.98210986
0.98212872
0.98214694
0.98216034
0.98216641
0.98216426
0.98215484
0.9821413
0.98212974
0.98211207
0.98212872
0.98215155
0.98217311
0.98218858
0.98219513
0.98219175
0.98217949
0.98216206
0.98214704
0.98212764
0.98214694
0.98217311
0.98219755
0.98221478
0.98222169
0.98221718
0.98220245
0.98218176
0.98216399
0.9821394
0.98216034
0.98218858
0.98221478
0.98223308
0.98224019
0.98223494
0.98221866
0.98219596
0.98217651
0.98214504
0.98216641
0.98219513
0.98222169
0.98224019
0.98224729
0.98224187
0.98222523
0.98220207
0.98218219
0.98214378
0.98216426
0.98219175
0.98221718
0.98223494
0.98224187
0.98223687
0.98222118
0.9821992
0.98218026
0.98213656
0.98215484
0.98217949
0.98220245
0.98221866
0.98222523
0.98222118
0.98220758
0.98218838
0.98217175
0.98212624
0.9821413
0.98216206
0.98218176
0.98219596
0.98220207
0.9821992
0.98218838
0.982173
0.98215981
0.98211781
0.98212974
0.98214704
0.98216399
0.98217651
0.98218219
0.98218026
0.98217175
0.98215981
0.98215006
0.98099716
0.98100774
0.98102344
0.98103898
0.98105053
0.98105574
0.98105391
0.98104608
0.98103526
0.98102657
0.98100774
0.98102129
0.9810403
0.9810585
0.98107167
0.98107726
0.98107447
0.98106437
0.98105028
0.98103844
0.98102344
0.98104029
0.98106331
0.98108487
0.98110007
0.98110609
0.981102
0.98108899
0.98107096
0.98105565
0.98103898
0.9810585
0.98108487
0.9811093
0.98112625
0.98113259
0.98112732
0.98111179
0.98109049
0.98107242
0.98105052
0.98107166
0.98110007
0.98112625
0.98114425
0.98115077
0.98114475
0.98112766
0.98110437
0.98108466
0.98105574
0.98107726
0.98110609
0.98113259
0.98115077
0.98115729
0.98115111
0.98113371
0.98111
0.98108992
0.98105391
0.98107447
0.981102
0.98112732
0.98114475
0.98115111
0.9811454
0.98112902
0.98110658
0.98108749
0.98104608
0.98106437
0.98108899
0.98111179
0.98112766
0.98113371
0.98112902
0.98111482
0.98109523
0.98107852
0.98103526
0.98105028
0.98107096
0.98109049
0.98110437
0.98111001
0.98110658
0.98109523
0.98107954
0.98106629
0.98102657
0.98103844
0.98105565
0.98107243
0.98108466
0.98108992
0.98108749
0.98107852
0.98106629
0.98105646
0.97988041
0.97989109
0.97990686
0.97992234
0.97993364
0.97993843
0.97993604
0.97992763
0.97991635
0.97990742
0.97989109
0.97990479
0.9799239
0.97994205
0.97995495
0.97996006
0.97995665
0.97994591
0.97993132
0.97991922
0.97990686
0.9799239
0.97994704
0.97996856
0.97998347
0.97998896
0.97998418
0.97997046
0.9799519
0.97993632
0.97992234
0.97994205
0.97996856
0.97999293
0.98000957
0.98001534
0.98000934
0.97999307
0.97997122
0.97995289
0.97993364
0.97995494
0.97998347
0.98000957
0.98002724
0.98003317
0.9800264
0.98000858
0.97998475
0.97996481
0.97993843
0.97996006
0.97998896
0.98001534
0.98003317
0.98003911
0.9800322
0.9800141
0.97998991
0.97996964
0.97993604
0.97995665
0.97998418
0.98000934
0.9800264
0.9800322
0.98002581
0.98000879
0.97998594
0.97996673
0.97992763
0.97994591
0.97997046
0.97999307
0.98000858
0.9800141
0.98000879
0.97999404
0.97997411
0.97995733
0.97991635
0.97993132
0.9799519
0.97997122
0.97998475
0.97998991
0.97998594
0.97997412
0.97995813
0.97994483
0.97990742
0.97991922
0.97993632
0.9799529
0.97996481
0.97996964
0.97996673
0.97995733
0.97994483
0.97993493
0.97873503
0.97874579
0.97876159
0.97877698
0.97878802
0.97879238
0.97878946
0.97878051
0.9787688
0.97875964
0.97874579
0.9787596
0.97877878
0.97879685
0.97880946
0.9788141
0.97881009
0.97879876
0.9787837
0.97877137
0.97876159
0.97877878
0.97880202
0.97882345
0.97883805
0.97884302
0.97883758
0.97882322
0.97880416
0.97878834
0.97877698
0.97879685
0.97882345
0.97884773
0.97886403
0.97886925
0.97886255
0.97884561
0.97882325
0.97880469
0.97878802
0.97880946
0.97883805
0.97886403
0.97888134
0.97888669
0.97887923
0.97886073
0.97883642
0.97881627
0.97879238
0.9788141
0.97884302
0.97886925
0.97888669
0.97889205
0.97888447
0.97886573
0.9788411
0.97882067
0.97878945
0.97881009
0.97883758
0.97886255
0.97887923
0.97888447
0.97887744
0.97885984
0.97883662
0.9788173
0.9787805
0.97879875
0.97882322
0.97884561
0.97886073
0.97886573
0.97885984
0.97884458
0.97882435
0.9788075
0.9787688
0.9787837
0.97880416
0.97882325
0.97883642
0.97884111
0.97883662
0.97882435
0.9788081
0.97879475
0.97875964
0.97877137
0.97878834
0.97880469
0.97881627
0.97882068
0.9788173
0.9788075
0.97879475
0.97878479
0.97756025
0.97757106
0.97758688
0.97760216
0.97761292
0.97761686
0.97761342
0.97760397
0.97759187
0.9775825
0.97757106
0.97758496
0.97760418
0.97762215
0.97763446
0.97763864
0.97763407
0.97762218
0.9776067
0.97759416
0.97758687
0.97760418
0.97762749
0.97764881
0.97766309
0.97766755
0.97766149
0.97764653
0.97762702
0.97761098
0.97760215
0.97762214
0.97764881
0.97767296
0.97768892
0.97769359
0.97768625
0.97766868
0.97764586
0.97762709
0.97761292
0.97763446
0.97766309
0.97768892
0.97770586
0.97771065
0.97770253
0.97768341
0.97765867
0.97763834
0.97761685
0.97763863
0.97766754
0.97769359
0.97771065
0.97771545
0.97770722
0.9776879
0.97766289
0.97764232
0.97761342
0.97763407
0.97766149
0.97768625
0.97770253
0.97770722
0.97769959
0.97768146
0.97765792
0.97763851
0.97760397
0.97762218
0.97764653
0.97766868
0.97768342
0.97768791
0.97768146
0.97766574
0.97764523
0.97762833
0.97759186
0.9776067
0.97762702
0.97764586
0.97765867
0.97766289
0.97765792
0.97764524
0.97762875
0.97761536
0.9775825
0.97759416
0.97761098
0.9776271
0.97763834
0.97764233
0.97763851
0.97762834
0.97761536
0.97760533
0.97635528
0.97636613
0.97638194
0.97639709
0.97640758
0.97641111
0.97640719
0.97639727
0.97638481
0.97637526
0.97636613
0.97638011
0.97639935
0.97641718
0.9764292
0.97643293
0.97642784
0.97641544
0.97639957
0.97638684
0.97638194
0.97639935
0.97642268
0.97644388
0.97645783
0.9764618
0.97645518
0.97643966
0.97641974
0.97640351
0.97639709
0.97641718
0.97644387
0.97646789
0.97648349
0.97648765
0.9764797
0.97646156
0.97643834
0.97641938
0.97640758
0.97642919
0.97645783
0.97648349
0.97650007
0.97650432
0.97649559
0.97647591
0.97645078
0.97643028
0.97641111
0.97643293
0.9764618
0.97648765
0.97650432
0.97650859
0.97649976
0.97647992
0.97645456
0.97643386
0.97640719
0.97642783
0.97645517
0.9764797
0.97649559
0.97649976
0.97649157
0.97647296
0.97644912
0.97642963
0.97639727
0.97641544
0.97643966
0.97646156
0.97647592
0.97647992