/*--------------------------------*- C++ -*----------------------------------*\
| =========                 |                                                 |
| \\      /  F ield         | OpenFOAM: The Open Source CFD Toolbox           |
|  \\    /   O peration     | Version:  dev                                   |
|   \\  /    A nd           | Web:      www.OpenFOAM.org                      |
|    \\/     M anipulation  |                                                 |
\*---------------------------------------------------------------------------*/
FoamFile
{
    version     2.0;
    format      ascii;
    class       volScalarField;
    location    "6";
    object      p;
}
// * * * * * * * * * * * * * * * * * * * * * * * * * * * * * * * * * * * * * //

dimensions      [0 2 -2 0 0 0 0];

internalField   nonuniform List<scalar> 
10000
(
24.38146
25.623036
25.680202
25.753859
25.838816
26.009366
26.252822
26.839261
27.497116
33.13368
25.623035
26.634971
26.552799
26.567414
26.613673
26.753413
26.955297
27.5063
28.130469
33.920493
25.680199
26.552797
26.405808
26.382067
26.402443
26.526259
26.714445
27.272649
27.906616
33.800668
25.753854
26.567411
26.382065
26.329601
26.330992
26.444461
26.628429
27.197451
27.85208
33.804165
25.838811
26.613669
26.402441
26.330991
26.321413
26.430847
26.616904
27.198828
27.873581
33.864802
26.00936
26.753408
26.526256
26.44446
26.430847
26.540446
26.730851
27.323407
28.01425
34.036356
26.252817
26.955294
26.714443
26.62843
26.616905
26.730852
26.928645
27.532065
28.242716
34.306176
26.839258
27.506299
27.272649
27.197453
27.198831
27.32341
27.532067
28.143225
28.864899
34.965432
27.497116
28.13047
27.906618
27.852083
27.873586
28.014255
28.242719
28.864901
29.632403
35.802927
33.133681
33.920494
33.800671
33.804169
33.864808
34.036362
34.306181
34.965434
35.802928
41.901042
24.97115
25.732229
25.801283
25.879927
25.968555
26.143811
26.394688
26.994703
27.634734
31.951494
25.732228
26.461021
26.436941
26.470793
26.528633
26.679543
26.896949
27.470133
28.081112
32.44653
25.80128
26.436939
26.362219
26.364311
26.400087
26.537667
26.743007
27.32304
27.935229
32.369201
25.879922
26.470789
26.364309
26.341244
26.360013
26.488197
26.689164
27.277969
27.904441
32.381377
25.968549
26.528628
26.400084
26.360012
26.368798
26.493253
26.695864
27.295925
27.938549
32.446395
26.143805
26.679538
26.537664
26.488196
26.493254
26.617875
26.82453
27.434276
28.090399
32.622668
26.394684
26.896945
26.743005
26.689164
26.695865
26.824532
27.038485
27.658929
28.333385
32.899219
26.9947
27.470132
27.32304
27.277972
27.295928
27.434279
27.658931
28.287644
28.973261
33.568375
27.634733
28.081112
27.935231
27.904445
27.938553
28.090404
28.333389
28.973263
29.707655
34.357316
31.951494
32.446531
32.369205
32.381382
32.446401
32.622674
32.899223
33.568378
34.357318
38.946226
25.420158
25.829871
25.898989
25.983129
26.075793
26.255899
26.510646
27.116195
27.695265
30.910785
25.82987
26.310829
26.328615
26.382614
26.452196
26.614184
26.842512
27.428619
27.974325
31.154402
25.898985
26.328613
26.311649
26.341323
26.393132
26.544711
26.762639
27.355165
27.893726
31.114663
25.983124
26.38261
26.341321
26.349944
26.38705
26.530364
26.743729
27.342801
27.888929
31.138341
26.075786
26.452191
26.393129
26.387049
26.415358
26.55534
26.769853
27.378387
27.936368
31.208785
26.255893
26.614179
26.544708
26.530363
26.55534
26.695489
26.913653
27.530743
28.099326
31.38989
26.510641
26.842508
26.762638
26.743729
26.769854
26.913654
27.138929
27.766394
28.351703
31.668855
27.116192
27.428618
27.355166
27.342803
27.378391
27.530746
27.766396
28.40247
28.998685
32.337426
27.695264
27.974325
27.893728
27.888933
27.936373
28.099331
28.351707
28.998687
29.644619
33.027783
30.910786
31.154404
31.114666
31.138346
31.208792
31.389897
31.66886
32.337429
33.027785
36.413979
25.643864
25.885153
25.94893
26.034033
26.12956
26.311603
26.564255
27.149937
27.661609
30.111663
25.885152
26.215318
26.25473
26.321075
26.399669
26.568308
26.799344
27.369458
27.839958
30.207681
25.948926
26.254728
26.271871
26.320249
26.384806
26.545452
26.767324
27.342851
27.800546
30.192908
26.034027
26.32107
26.320246
26.351393
26.403437
26.556903
26.774116
27.354235
27.814291
30.224446
26.129554
26.399664
26.384803
26.403436
26.447837
26.598372
26.816309
27.404266
27.872651
30.299765
26.311596
26.568303
26.545449
26.556902
26.598372
26.749076
26.970262
27.565678
28.042253
30.482795
26.56425
26.79934
26.767323
26.774116
26.81631
26.970263
27.198249
27.803539
28.295388
30.757613
27.149934
27.369456
27.342851
27.354238
27.40427
27.565681
27.803541
28.417465
28.920045
31.399211
27.661608
27.839958
27.800549
27.814295
27.872656
28.042259
28.295392
28.920047
29.471143
31.991724
30.111664
30.207683
30.192912
30.224451
30.299772
30.482801
30.757618
31.399214
31.991725
34.590687
25.753897
25.915031
25.973198
26.056442
26.153491
26.334251
26.57987
27.127176
27.575242
29.462594
25.915029
26.154135
26.203993
26.276664
26.361618
26.532524
26.759933
27.293363
27.694169
29.47727
25.973194
26.20399
26.240589
26.300436
26.374492
26.539322
26.758514
27.296097
27.680537
29.477645
26.056436
26.276659
26.300433
26.346458
26.410018
26.568674
26.783202
27.323733
27.706584
29.513617
26.153484
26.361613
26.374488
26.410016
26.46702
26.623129
26.838026
27.384964
27.773306
29.592605
26.334244
26.532518
26.539319
26.568673
26.623129
26.779404
26.997161
27.550553
27.945133
29.774312
26.579865
26.759929
26.758512
26.783203
26.838028
26.997163
27.221323
27.784003
28.192506
30.039863
27.127173
27.293361
27.296098
27.323736
27.384968
27.550557
27.784005
28.355227
28.774477
30.63662
27.575241
27.694169
27.68054
27.706588
27.773312
27.945138
28.192511
28.774479
29.240109
31.144376
29.462595
29.477272
29.477649
29.513623
29.592612
29.774319
30.039868
30.636623
31.144378
33.181105
25.818482
25.933666
25.986883
26.067278
26.164616
26.341268
26.576201
27.07551
27.463239
28.912964
25.933665
26.111829
26.166077
26.24157
26.330594
26.500115
26.719458
27.205835
27.543207
28.881252
25.986879
26.166074
26.213405
26.280142
26.36088
26.52586
26.737791
27.227032
27.546007
28.890025
26.067272
26.241566
26.280139
26.336026
26.408093
26.567817
26.77515
27.265911
27.580358
28.928335
26.164609
26.330588
26.360877
26.408092
26.474611
26.632143
26.839548
27.335418
27.6531
29.009573
26.341261
26.50011
26.525857
26.567815
26.632143
26.789835
26.999734
27.501126
27.823489
29.187113
26.576195
26.719454
26.737789
26.775151
26.839549
26.999735
27.215601
27.725658
28.060746
29.439858
27.075506
27.205833
27.227032
27.265914
27.335422
27.50113
27.725661
28.244091
28.589987
29.983245
27.463238
27.543208
27.546009
27.580363
27.653106
27.823495
28.060751
28.589989
28.979921
30.416979
28.912965
28.881253
28.890029
28.928341
29.00958
29.18712
29.439864
29.983249
30.41698
32.015848
25.860558
25.946237
25.995192
26.072414
26.168877
26.339018
26.560455
27.007542
27.338569
28.4447
25.946235
26.080843
26.135743
26.211774
26.302781
26.467866
26.675886
27.110773
27.391188
28.387053
25.995188
26.135741
26.187956
26.258325
26.343167
26.504921
26.706257
27.142832
27.403974
28.399633
26.072408
26.211769
26.258323
26.320344
26.398119
26.555435
26.752298
27.189192
27.443704
28.438847
26.16887
26.302775
26.343163
26.398118
26.471255
26.6267
26.823388
27.264241
27.520213
28.520839
26.33901
26.467861
26.504917
26.555434
26.6267
26.782295
26.981139
27.426675
27.686098
28.691792
26.560449
26.675882
26.706255
26.752299
26.82339
26.981141
27.1855
27.639075
27.910113
28.929255
27.007539
27.110771
27.142832
27.189195
27.264245
27.426679
27.639077
28.100863
28.382828
29.416109
27.338568
27.391188
27.403977
27.443708
27.520219
27.686104
27.910118
28.38283
28.70631
29.78481
28.444701
28.387055
28.399637
28.438853
28.520846
28.691799
28.929261
29.416113
29.784811
31.035971
25.887848
25.954011
25.999374
26.073245
26.167733
26.329389
26.535264
26.929163
27.208148
28.04601
25.954009
26.056586
26.109785
26.184656
26.27575
26.433894
26.628235
27.010711
27.241104
27.975564
25.99937
26.109782
26.162852
26.234289
26.320875
26.476615
26.664957
27.048125
27.259271
27.988904
26.073238
26.184652
26.234287
26.299405
26.380294
26.532302
26.716355
27.098874
27.302007
28.027877
26.167725
26.275744
26.320871
26.380292
26.457339
26.607757
26.79144
27.176924
27.380165
28.109143
26.329382
26.433889
26.476611
26.5323
26.607757
26.758317
26.94385
27.333287
27.539032
28.271532
26.535259
26.62823
26.664955
26.716355
26.791442
26.943852
27.134441
27.531313
27.747649
28.49202
26.92916
27.010709
27.048125
27.098876
27.176928
27.333291
27.531315
27.936241
28.163605
28.922341
27.208147
27.241104
27.259274
27.302012
27.380171
27.539038
27.747654
28.163608
28.429835
29.234426
28.04601
27.975566
27.988908
28.027883
28.109151
28.271539
28.492026
28.922345
29.234428
30.210196
25.904238
25.957116
25.999447
26.06982
26.161326
26.312977
26.501929
26.843951
27.076166
27.705533
25.957114
26.035564
26.085653
26.158084
26.2476
26.396861
26.575958
26.907495
27.094779
27.630646
25.999443
26.085651
26.136899
26.207391
26.293644
26.441191
26.614944
26.946382
27.115126
27.642838
26.069813
26.158079
26.207389
26.273142
26.354832
26.499246
26.668937
26.998991
27.158948
27.680636
26.161318
26.247594
26.293641
26.354831
26.433357
26.576421
26.745596
27.07778
27.236852
27.759809
26.31297
26.396855
26.441187
26.499245
26.576421
26.719614
26.890374
27.225886
27.386756
27.912109
26.501923
26.575954
26.614942
26.668938
26.745598
26.890375
27.06575
27.408123
27.578646
28.114623
26.843947
26.907493
26.946382
26.998994
27.077784
27.22589
27.408126
27.758385
27.939961
28.490525
27.076165
27.09478
27.115128
27.158952
27.236858
27.386762
27.57865
27.939964
28.157664
28.75377
27.705534
27.630647
27.642843
27.680642
27.759817
27.912117
28.114629
28.490529
28.753771
29.511899
25.911806
25.95523
25.994916
26.061644
26.149294
26.289859
26.461171
26.754214
26.945087
27.413049
25.955228
26.015056
26.061256
26.130297
26.216833
26.355811
26.518801
26.802469
26.95311
27.338804
25.994912
26.061253
26.109002
26.177012
26.261181
26.398941
26.557215
26.840207
26.97349
27.348768
26.061638
26.130292
26.177009
26.241463
26.321981
26.457108
26.611586
26.892672
27.016883
27.384655
26.149286
26.216827
26.261178
26.32198
26.399898
26.533874
26.687737
26.970269
27.092905
27.460549
26.289852
26.355805
26.398938
26.457107
26.533874
26.667967
26.823187
27.108524
27.232447
27.601684
26.461165
26.518796
26.557213
26.611587
26.687739
26.823188
26.982607
27.274265
27.406981
27.785819
26.75421
26.802467
26.840207
26.892675
26.970273
27.108527
27.274267
27.573617
27.717304
28.110811
26.945086
26.953111
26.973492
27.016888
27.092911
27.232453
27.406985
27.717307
27.894331
28.332144
27.413049
27.338806
27.348773
27.384662
27.460556
27.601692
27.785825
28.110815
28.332146
28.918535
25.911419
25.947794
25.985061
26.047993
26.131044
26.259864
26.413378
26.661342
26.816191
27.159873
25.947793
25.992981
26.034918
26.099883
26.182306
26.310097
26.456699
26.696536
26.816367
27.08922
25.985057
26.034915
26.078193
26.142586
26.223257
26.350173
26.492664
26.731442
26.835404
27.096458
26.047986
26.099878
26.142584
26.204268
26.281999
26.406692
26.545682
26.782223
26.877207
27.129881
26.131036
26.1823
26.223253
26.281997
26.357583
26.481289
26.619606
26.857048
26.950013
27.201524
26.259857
26.310091
26.35017
26.40669
26.481289
26.605097
26.744582
26.984397
27.078293
27.330836
26.413372
26.456694
26.492661
26.545682
26.619607
26.744583
26.887878
27.133508
27.235403
27.496675
26.661339
26.696534
26.731443
26.782225
26.857052
26.984401
27.13351
27.386602
27.499265
27.775082
26.81619
26.816368
26.835406
26.877212
26.950019
27.078299
27.235407
27.499267
27.642467
27.96057
27.159873
27.089222
27.096462
27.129888
27.201531
27.330844
27.496681
27.775086
27.960572
28.411859
25.903288
25.93419
25.969133
26.028116
26.105977
26.22276
26.358782
26.566117
26.689996
26.938674
25.934188
25.96775
26.005312
26.065726
26.143165
26.259298
26.389701
26.59023
26.684408
26.873202
25.969129
26.005309
26.043644
26.103626
26.179704
26.29519
26.422059
26.621317
26.701281
26.87761
26.02811
26.065721
26.103624
26.161467
26.235145
26.34874
26.472423
26.669274
26.740633
26.908181
26.105969
26.143159
26.1797
26.235144
26.307038
26.419777
26.542763
26.740096
26.809186
26.97483
26.222752
26.259292
26.295187
26.348739
26.419777
26.532605
26.656603
26.855957
26.925742
27.092034
26.358777
26.389697
26.422056
26.472423
26.542765
26.656605
26.784055
26.988748
27.065795
27.240046
26.566113
26.590228
26.621317
26.669276
26.7401
26.855961
26.98875
27.200632
27.288121
27.476571
26.689995
26.684409
26.701284
26.740638
26.809192
26.925748
27.0658
27.288123
27.403378
27.631494
26.938674
26.873204
26.877614
26.908187
26.974838
27.092042
27.240053
27.476575
27.631495
27.976982
25.887353
25.913852
25.946487
26.001374
26.073605
26.178377
26.297583
26.468943
26.566543
26.743234
25.91385
25.938149
25.971389
26.026958
26.098786
26.20316
26.31792
26.483802
26.55682
26.683673
25.946483
25.971387
26.004665
26.059719
26.130411
26.234281
26.346049
26.51059
26.571107
26.6854
26.001368
26.026953
26.059717
26.112992
26.181684
26.283927
26.392835
26.55493
26.607407
26.712872
26.073598
26.09878
26.130407
26.181682
26.24887
26.350362
26.458578
26.620845
26.670952
26.774016
26.178369
26.203154
26.234277
26.283926
26.350362
26.451932
26.561033
26.725036
26.775687
26.879143
26.297578
26.317916
26.346047
26.392835
26.45858
26.561035
26.673259
26.842153
26.899383
27.010092
26.468939
26.4838
26.51059
26.554932
26.620848
26.72504
26.842155
27.01792
27.085153
27.209513
26.566542
26.556821
26.57111
26.607411
26.670959
26.775693
26.899388
27.085156
27.177448
27.338444
26.743234
26.683675
26.685404
26.712878
26.774023
26.879151
27.010099
27.209517
27.338445
27.601515
25.863484
25.886324
25.916614
25.967291
26.033605
26.126654
26.229999
26.370002
26.44559
26.568292
25.886322
25.903265
25.932351
25.98292
26.048736
26.141549
26.241497
26.377299
26.433022
26.514834
25.91661
25.932349
25.960688
26.010536
26.075323
26.167715
26.265174
26.399672
26.444583
26.51417
25.967285
25.982915
26.010534
26.058804
26.121879
26.212857
26.307779
26.439895
26.477448
26.538427
26.033598
26.04873
26.07532
26.121877
26.18366
26.27397
26.368229
26.500296
26.535492
26.593765
26.126646
26.141542
26.167712
26.212856
26.27397
26.364347
26.459388
26.592963
26.628612
26.687111
26.229993
26.241492
26.265171
26.307779
26.36823
26.45939
26.557252
26.695295
26.736887
26.801979
26.369999
26.377297
26.399672
26.439897
26.5003
26.592967
26.695298
26.839851
26.890911
26.968934
26.445588
26.433022
26.444585
26.477453
26.535498
26.628618
26.736892
26.890914
26.964428
27.075825
26.568293
26.514836
26.514174
26.538433
26.593773
26.687118
26.801986
26.968938
27.075827
27.275054
25.831562
25.851279
25.879174
25.925568
25.98582
26.067641
26.15628
26.269339
26.326723
26.40942
25.851277
25.862423
25.887595
25.933136
25.99274
26.074426
26.160586
26.27062
26.312341
26.361923
25.87917
25.887593
25.911273
25.955827
26.014433
26.095743
26.17987
26.288715
26.321229
26.359236
25.925561
25.933131
25.955824
25.998895
26.055991
26.136058
26.217965
26.324566
26.350464
26.38027
25.985812
25.992733
26.014429
26.055989
26.111952
26.191418
26.272705
26.379113
26.402745
26.429695
26.067633
26.07442
26.095739
26.136057
26.191418
26.27094
26.352927
26.460657
26.484692
26.511762
26.156273
26.160581
26.179868
26.217965
26.272707
26.352929
26.43746
26.549259
26.578643
26.611681
26.269335
26.270618
26.288715
26.324568
26.379117
26.460661
26.549262
26.667171
26.705416
26.750534
26.326722
26.312341
26.321232
26.350469
26.402752
26.484699
26.578648
26.705419
26.763643
26.83879
26.40942
26.361925
26.359241
26.380277
26.429703
26.51177
26.611688
26.750538
26.838792
26.988851
25.79152
25.808519
25.833977
25.876065
25.930244
26.00149
26.076702
26.166914
26.209445
26.262915
25.808518
25.815153
25.836694
25.877285
25.930649
26.001824
26.075341
26.163571
26.194075
26.221046
25.833973
25.836691
25.856093
25.895422
25.947776
26.018594
26.09049
26.177694
26.200469
26.216731
25.876059
25.87728
25.895419
25.933292
25.984276
26.053991
26.123966
26.209115
26.226031
26.234625
25.930236
25.930642
25.947772
25.984275
26.034245
26.103411
26.172822
26.257693
26.272487
26.278194
26.001483
26.001817
26.01859
26.053989
26.103411
26.172624
26.242668
26.328709
26.343881
26.349642
26.076696
26.075337
26.090487
26.123966
26.172823
26.242669
26.315002
26.404734
26.424701
26.435835
26.166911
26.163569
26.177695
26.209118
26.257697
26.328713
26.404736
26.50015
26.528318
26.550593
26.209444
26.194075
26.200472
26.226036
26.272493
26.343887
26.424706
26.528321
26.574147
26.623143
26.262915
26.221048
26.216735
26.234632
26.278202
26.34965
26.435842
26.550597
26.623144
26.735559
25.743365
25.757967
25.78097
25.81879
25.867
25.928435
25.991565
26.062645
26.09323
26.125697
25.757965
25.761152
25.779372
25.815177
25.862421
25.923823
25.985912
26.055902
26.077519
26.089037
25.780966
25.779369
25.794932
25.829225
25.875428
25.936479
25.997306
26.066461
26.081679
26.083473
25.818783
25.815172
25.829222
25.862051
25.906984
25.967046
26.026233
26.093549
26.103647
26.098385
25.866992
25.862415
25.875424
25.906982
25.950989
26.010548
26.069232
26.136229
26.144382
26.136292
25.928428
25.923816
25.936475
25.967045
26.010548
26.070148
26.129406
26.197448
26.205967
26.197891
25.991558
25.985907
25.997304
26.026233
26.069233
26.129407
26.190722
26.262096
26.274896
26.271626
26.062641
26.055899
26.066461
26.093552
26.136233
26.197452
26.262099
26.338707
26.359016
26.365896
26.093229
26.077519
26.081682
26.103653
26.144389
26.205973
26.274901
26.359019
26.394834
26.425254
26.125697
26.089039
26.083477
26.098392
26.1363
26.197899
26.271632
26.3659
26.425256
26.509017
25.687176
25.699648
25.720214
25.753861
25.796311
25.848768
25.90117
25.956424
25.977552
25.995236
25.699647
25.700261
25.715483
25.746737
25.788099
25.840545
25.892437
25.947333
25.962001
25.963319
25.720209
25.715481
25.727667
25.757206
25.797494
25.849592
25.900532
25.954791
25.964232
25.956861
25.753854
25.746732
25.757203
25.78526
25.824351
25.875558
25.925113
25.977762
25.982781
25.969005
25.796303
25.788093
25.79749
25.824349
25.862585
25.913326
25.962441
26.014764
26.018031
26.001553
25.84876
25.840539
25.849588
25.875556
25.913326
25.964103
26.013743
26.067003
26.070629
26.054141
25.901163
25.892432
25.90053
25.925113
25.962443
26.013744
26.065226
26.121479
26.128908
26.11669
25.95642
25.947331
25.954791
25.977764
26.014768
26.067007
26.121482
26.182511
26.196748
26.193673
25.977551
25.962002
25.964235
25.982786
26.018038
26.070636
26.128914
26.196751
26.224519
26.241991
25.995237
25.963321
25.956866
25.969012
26.001561
26.054149
26.116696
26.193677
26.241993
26.304074
25.623105
25.633682
25.651863
25.68149
25.718472
25.762818
25.805818
25.848139
25.861909
25.869463
25.63368
25.632438
25.644989
25.671979
25.70779
25.752139
25.795045
25.837583
25.846901
25.841814
25.651859
25.644986
25.654262
25.679393
25.714107
25.758111
25.800327
25.842417
25.847522
25.834784
25.681483
25.671974
25.679391
25.703027
25.736604
25.779802
25.820861
25.86157
25.862895
25.844413
25.718464
25.707784
25.714103
25.736602
25.76938
25.812148
25.852829
25.893227
25.892997
25.871982
25.762809
25.752132
25.758107
25.7798
25.812148
25.854945
25.896107
25.937349
25.93747
25.916432
25.805812
25.79504
25.800325
25.820861
25.852831
25.896108
25.938914
25.98283
25.986313
25.96904
25.848135
25.837581
25.842418
25.861573
25.893231
25.937353
25.982833
26.031066
26.040661
26.031537
25.861908
25.846902
25.847525
25.8629
25.893003
25.937477
25.986318
26.040664
26.061996
26.070656
25.869463
25.841816
25.834788
25.84442
25.87199
25.91644
25.969047
26.031541
26.070658
26.116426
25.551366
25.560259
25.576147
25.601957
25.633827
25.670933
25.705798
25.737676
25.745839
25.746694
25.560257
25.557739
25.567939
25.590992
25.62165
25.658769
25.693852
25.726378
25.731653
25.722856
25.576142
25.567936
25.574751
25.595864
25.625417
25.662199
25.696806
25.729058
25.73098
25.715532
25.60195
25.590987
25.595861
25.615482
25.643955
25.680006
25.713659
25.744746
25.743467
25.722925
25.633819
25.621643
25.625413
25.643953
25.671677
25.70733
25.740664
25.771468
25.768827
25.745952
25.670925
25.658762
25.662195
25.680005
25.70733
25.743009
25.776782
25.808347
25.806049
25.783141
25.705792
25.693847
25.696804
25.713659
25.740665
25.776784
25.812019
25.845959
25.846615
25.827003
25.737672
25.726375
25.729058
25.744749
25.771472
25.808351
25.845962
25.883769
25.889861
25.877438
25.745838
25.731654
25.730983
25.743473
25.768834
25.806055
25.84662
25.889863
25.906076
25.908923
25.746694
25.722858
25.715537
25.722932
25.745961
25.783149
25.82701
25.877442
25.908925
25.942488
25.472225
25.479629
25.493347
25.515585
25.542746
25.573468
25.601379
25.624931
25.628924
25.625573
25.479628
25.476297
25.484454
25.503923
25.529869
25.560611
25.588962
25.613463
25.615754
25.605119
25.493343
25.484452
25.489228
25.506733
25.531589
25.562004
25.590053
25.614428
25.614085
25.597736
25.515578
25.503917
25.506731
25.52277
25.5466
25.576357
25.603625
25.627036
25.624005
25.603183
25.542737
25.529862
25.531584
25.546598
25.569727
25.599117
25.626121
25.649285
25.645074
25.622135
25.573459
25.560604
25.562
25.576355
25.599117
25.628527
25.655932
25.679781
25.675899
25.652921
25.601373
25.588957
25.590051
25.603626
25.626122
25.655934
25.684632
25.710577
25.709277
25.689162
25.624927
25.61346
25.614428
25.627038
25.649289
25.679785
25.71058
25.739957
25.743448
25.729613
25.628923
25.615755
25.614088
25.624011
25.645081
25.675906
25.709282
25.743451
25.755617
25.754795
25.625574
25.605121
25.597741
25.60319
25.622143
25.652929
25.689169
25.729618
25.754797
25.779277
25.385987
25.392085
25.403783
25.422725
25.445609
25.470765
25.492806
25.509808
25.510794
25.505016
25.392083
25.388302
25.394711
25.410958
25.432659
25.457841
25.480467
25.498606
25.498762
25.48755
25.403779
25.394708
25.397831
25.412148
25.432791
25.457663
25.480123
25.498257
25.49637
25.480302
25.422718
25.410953
25.412145
25.425043
25.444721
25.469
25.490829
25.508178
25.504051
25.484093
25.4456
25.432652
25.432787
25.44472
25.463744
25.487686
25.509298
25.526441
25.521301
25.499447
25.470757
25.457834
25.457659
25.468998
25.487686
25.511645
25.533622
25.551377
25.546549
25.524652
25.4928
25.480462
25.480121
25.490829
25.5093
25.533624
25.556739
25.576333
25.573747
25.554317
25.509804
25.498604
25.498258
25.508181
25.526445
25.551382
25.576336
25.598948
25.600547
25.586553
25.510793
25.498763
25.496373
25.504056
25.521308
25.546556
25.573752
25.60055
25.609541
25.606556
25.505016
25.487552
25.480306
25.4841
25.499455
25.524661
25.554324
25.586557
25.606557
25.624313
25.292982
25.297946
25.307794
25.323738
25.34279
25.36315
25.380297
25.392218
25.391125
25.384158
25.297944
25.29399
25.298922
25.312313
25.330243
25.350633
25.368449
25.381603
25.380294
25.369322
25.307789
25.298919
25.300735
25.312273
25.329197
25.349297
25.367048
25.380293
25.377419
25.362361
25.323731
25.312308
25.312271
25.32246
25.338483
25.358052
25.375299
25.387913
25.383187
25.364777
25.342782
25.330236
25.329192
25.338481
25.353898
25.373161
25.390234
25.40268
25.397093
25.377005
25.363141
25.350626
25.349293
25.35805
25.373161
25.392438
25.409839
25.422833
25.417535
25.397402
25.38029
25.368443
25.367046
25.375299
25.390235
25.409841
25.428239
25.442833
25.439469
25.421445
25.392214
25.381601
25.380293
25.387916
25.402685
25.422837
25.442835
25.460061
25.460321
25.446959
25.391123
25.380294
25.377422
25.383192
25.3971
25.417542
25.439475
25.460324
25.466847
25.462729
25.384158
25.369324
25.362366
25.364784
25.377014
25.397411
25.421452
25.446963
25.462731
25.475533
25.193558
25.197544
25.205724
25.21898
25.234647
25.250921
25.26404
25.272084
25.269635
25.262317
25.197542
25.193622
25.197326
25.20822
25.222845
25.239152
25.252973
25.262273
25.26002
25.249787
25.20572
25.197323
25.198134
25.207288
25.220973
25.237014
25.250846
25.260303
25.256869
25.243228
25.218973
25.208214
25.207285
25.215177
25.228031
25.2436
25.257032
25.265992
25.261035
25.244532
25.234639
25.222838
25.220968
25.228029
25.240328
25.255621
25.268914
25.277742
25.272059
25.254088
25.250912
25.239145
25.23701
25.243599
25.255621
25.270925
25.284513
25.293825
25.288407
25.27039
25.264034
25.252968
25.250843
25.257033
25.268916
25.284515
25.298969
25.309664
25.305904
25.289675
25.27208
25.26227
25.260303
25.265995
25.277746
25.293829
25.309667
25.322636
25.321986
25.309718
25.269634
25.260021
25.256872
25.26104
25.272066
25.288414
25.305909
25.321989
25.32661
25.322051
25.262317
25.249789
25.243233
25.244539
25.254097
25.270399
25.289682
25.309722
25.322052
25.331221
25.088061
25.091217
25.097917
25.108796
25.121512
25.134345
25.144194
25.149331
25.146082
25.138954
25.091215
25.087474
25.090175
25.098912
25.110682
25.123551
25.134097
25.140457
25.13766
25.128437
25.097913
25.090172
25.090238
25.097375
25.10828
25.12091
25.131518
25.138079
25.134401
25.122364
25.108789
25.098907
25.097372
25.103347
25.113496
25.12571
25.136004
25.142179
25.137257
25.122797
25.121504
25.110675
25.108276
25.113495
25.123139
25.135105
25.145291
25.151365
25.145837
25.130106
25.134337
25.123544
25.120906
25.125708
25.135105
25.14708
25.157528
25.164028
25.158737
25.14296
25.144187
25.134092
25.131515
25.136004
25.145293
25.15753
25.168725
25.176412
25.172531
25.158256
25.149327
25.140454
25.138079
25.142182
25.15137
25.164032
25.176414
25.186048
25.184814
25.173874
25.14608
25.13766
25.134404
25.137263
25.145844
25.158745
25.172537
25.184817
25.187991
25.183432
25.138954
25.12844
25.122369
25.122804
25.130115
25.142968
25.158264
25.173879
25.183434
25.189951
24.976834
24.979291
24.984699
24.993506
25.003685
25.013656
25.020886
25.023891
25.020255
25.013646
24.97929
24.975826
24.977721
24.984624
24.993958
25.003967
25.011864
25.016017
25.012974
25.00488
24.984695
24.977718
24.977258
24.982714
24.991269
25.001066
25.009055
25.013436
25.009744
24.999345
24.993498
24.984618
24.982711
24.987116
24.994991
25.004424
25.012171
25.016255
25.011554
24.999121
25.003676
24.993951
24.991264
24.99499
25.002411
25.011625
25.019288
25.023298
25.018093
25.004572
25.013647
25.00396
25.001061
25.004423
25.011625
25.020846
25.028739
25.03312
25.028126
25.014559
25.02088
25.011858
25.009053
25.012171
25.01929
25.028741
25.037275
25.042666
25.038862
25.026547
25.023886
25.016015
25.013436
25.016258
25.023302
25.033124
25.042668
25.049711
25.048139
25.038607
25.020253
25.012974
25.009747
25.01156
25.0181
25.028133
25.038867
25.048142
25.050231
25.045939
25.013646
25.004882
24.99935
24.999129
25.004581
25.014568
25.026554
25.038612
25.045941
25.050532
24.860199
24.862079
24.866375
24.873401
24.881428
24.889049
24.894215
24.895696
24.891973
24.88606
24.862077
24.85895
24.860211
24.865574
24.872862
24.880521
24.886303
24.888834
24.885759
24.878809
24.866371
24.860209
24.8594
24.863479
24.870073
24.877548
24.883441
24.886206
24.882661
24.873839
24.873394
24.865568
24.863476
24.866618
24.87261
24.87977
24.885476
24.888018
24.883659
24.873145
24.881419
24.872855
24.870069
24.872609
24.878198
24.885166
24.890809
24.893298
24.888523
24.877088
24.88904
24.880514
24.877544
24.879768
24.885166
24.892139
24.897982
24.900791
24.896201
24.88472
24.894208
24.886298
24.883438
24.885476
24.890811
24.897984
24.904371
24.908033
24.904438
24.893992
24.895691
24.888831
24.886206
24.888021
24.893302
24.900796
24.908036
24.913086
24.911357
24.90321
24.891971
24.885759
24.882664
24.883664
24.888531
24.896208
24.904444
24.91136
24.912648
24.908771
24.88606
24.878811
24.873844
24.873152
24.877097
24.884729
24.893999
24.903215
24.908773
24.911972
24.738459
24.739868
24.743223
24.74874
24.754968
24.760685
24.764251
24.764679
24.761075
24.755932
24.739866
24.737102
24.737877
24.741966
24.747558
24.753313
24.757433
24.758797
24.75584
24.749983
24.743218
24.737875
24.73686
24.739828
24.744814
24.75041
24.754649
24.756242
24.75295
24.745585
24.748733
24.741961
24.739826
24.741973
24.746432
24.751758
24.755854
24.757282
24.753336
24.744577
24.754959
24.747551
24.74481
24.74643
24.750537
24.755697
24.759745
24.761137
24.756852
24.747319
24.760676
24.753306
24.750406
24.751757
24.755697
24.760861
24.765082
24.766747
24.76262
24.753044
24.764244
24.757428
24.754646
24.755854
24.759747
24.765084
24.769763
24.772142
24.768841
24.760111
24.764674
24.758795
24.756243
24.757285
24.761142
24.766752
24.772145
24.77568
24.773923
24.767076
24.761074
24.755841
24.752953
24.753342
24.756859
24.762627
24.768846
24.773926
24.774637
24.77124
24.755932
24.749985
24.74559
24.744585
24.747329
24.753053
24.760119
24.767081
24.771242
24.773439
24.611887
24.612916
24.615488
24.619747
24.624492
24.628688
24.631038
24.630771
24.627422
24.623051
24.612914
24.610519
24.610931
24.613984
24.618191
24.622423
24.62526
24.62581
24.623069
24.618214
24.615483
24.610928
24.609817
24.611908
24.615594
24.619692
24.622645
24.623412
24.620434
24.614376
24.61974
24.613978
24.611905
24.613287
24.616518
24.620388
24.623233
24.623879
24.62038
24.613185
24.624484
24.618184
24.61559
24.616516
24.619443
24.62317
24.625981
24.626603
24.622829
24.614991
24.628679
24.622416
24.619688
24.620386
24.62317
24.626901
24.629859
24.630712
24.627071
24.619192
24.63103
24.625255
24.622643
24.623233
24.625983
24.62986
24.633201
24.634645
24.631684
24.624491
24.630766
24.625808
24.623412
24.623882
24.626608
24.630716
24.634648
24.637046
24.635351
24.629684
24.62742
24.623069
24.620437
24.620386
24.622836
24.627078
24.63169
24.635354
24.63566
24.632755
24.623051
24.618216
24.614381
24.613192
24.615001
24.619201
24.624499
24.629689
24.632757
24.634239
24.48072
24.481451
24.483381
24.486607
24.49015
24.493149
24.494594
24.4939
24.490885
24.487245
24.481449
24.47941
24.479561
24.481783
24.484878
24.487912
24.489777
24.489782
24.487312
24.483352
24.483376
24.479558
24.478433
24.479842
24.482496
24.485418
24.487392
24.487594
24.484961
24.480048
24.4866
24.481778
24.479839
24.480646
24.482913
24.485645
24.487538
24.487652
24.484607
24.478775
24.490141
24.484871
24.482491
24.482911
24.484918
24.487529