/*--------------------------------*- C++ -*----------------------------------*\
| =========                 |                                                 |
| \\      /  F ield         | OpenFOAM: The Open Source CFD Toolbox           |
|  \\    /   O peration     | Version:  dev                                   |
|   \\  /    A nd           | Web:      www.OpenFOAM.org                      |
|    \\/     M anipulation  |                                                 |
\*---------------------------------------------------------------------------*/
FoamFile
{
    version     2.0;
    format      ascii;
    class       surfaceScalarField;
    location    "6";
    object      phi;
}
// * * * * * * * * * * * * * * * * * * * * * * * * * * * * * * * * * * * * * //

dimensions      [0 3 -1 0 0 0 0];

internalField   nonuniform List<scalar> 
27900
(
1.8615677e-06
1.8615678e-06
6.2768647e-06
2.0702591e-06
2.0578105e-06
7.7334981e-06
2.1043841e-06
2.0902024e-06
7.8756726e-06
2.1014644e-06
2.101076e-06
7.9018436e-06
2.0823331e-06
2.1074216e-06
7.9117095e-06
2.0498946e-06
2.1115714e-06
7.920867e-06
1.9871679e-06
2.1157347e-06
7.9469919e-06
1.870356e-06
2.1142226e-06
8.0025893e-06
1.4947729e-06
2.1043398e-06
8.2712434e-06
1.9317552e-06
9.5630178e-06
2.0578104e-06
2.0702593e-06
7.7334982e-06
2.3005077e-06
2.3005079e-06
9.5146054e-06
2.3414692e-06
2.3410787e-06
9.7081623e-06
2.3329628e-06
2.3563189e-06
9.7532634e-06
2.3018489e-06
2.364449e-06
9.7740862e-06
2.2512923e-06
2.3688888e-06
9.7932391e-06
2.1616718e-06
2.3708152e-06
9.8345398e-06
1.998911e-06
2.3643888e-06
9.9125946e-06
1.5560095e-06
2.3348188e-06
1.0212423e-05
2.1041059e-06
1.1383659e-05
2.0902024e-06
2.1043842e-06
7.8756729e-06
2.3410785e-06
2.3414694e-06
9.7081625e-06
2.3825853e-06
2.3825855e-06
9.9169864e-06
2.3706488e-06
2.3978056e-06
9.9704497e-06
2.3335347e-06
2.4052934e-06
9.9962695e-06
2.2751606e-06
2.4085929e-06
1.001867e-05
2.1753958e-06
2.4080949e-06
1.0062485e-05
2.001875e-06
2.3985371e-06
1.0139373e-05
1.5477928e-06
2.362028e-06
1.0426873e-05
2.1216038e-06
1.1530295e-05
2.1010759e-06
2.1014644e-06
7.901844e-06
2.3563188e-06
2.3329628e-06
9.7532638e-06
2.3978055e-06
2.3706489e-06
9.9704498e-06
2.3834952e-06
2.3834952e-06
1.0028621e-05
2.3427033e-06
2.3890298e-06
1.0057055e-05
2.2799784e-06
2.3906968e-06
1.0080621e-05
2.1752661e-06
2.3885838e-06
1.0124223e-05
1.9976052e-06
2.3783739e-06
1.0197824e-05
1.5414987e-06
2.3422704e-06
1.0475864e-05
2.1090301e-06
1.1554073e-05
2.1074215e-06
2.0823331e-06
7.91171e-06
2.3644489e-06
2.3018489e-06
9.7740866e-06
2.4052933e-06
2.3335347e-06
9.9962698e-06
2.3890298e-06
2.3427033e-06
1.0057055e-05
2.3456763e-06
2.3456763e-06
1.0086707e-05
2.2801452e-06
2.3456762e-06
1.0110551e-05
2.1725244e-06
2.3427159e-06
1.0153489e-05
1.9928286e-06
2.3335799e-06
1.022449e-05
1.5364123e-06
2.3018521e-06
1.0496835e-05
2.0830652e-06
1.1562377e-05
2.1115713e-06
2.0498945e-06
7.9208675e-06
2.3688887e-06
2.2512922e-06
9.7932395e-06
2.4085928e-06
2.2751605e-06
1.001867e-05
2.3906967e-06
2.2799784e-06
1.0080621e-05
2.3456763e-06
2.2801451e-06
1.0110551e-05
2.2784786e-06
2.2784785e-06
1.0134395e-05
2.1692263e-06
2.2749151e-06
1.0177053e-05
1.9883951e-06
2.2675208e-06
1.024689e-05
1.5322676e-06
2.2419811e-06
1.0515999e-05
2.0437769e-06
1.1571556e-05
2.1157346e-06
1.9871678e-06
7.9469923e-06
2.3708151e-06
2.1616717e-06
9.8345401e-06
2.4080948e-06
2.1753957e-06
1.0062485e-05
2.3885837e-06
2.175266e-06
1.0124223e-05
2.3427159e-06
2.1725243e-06
1.0153488e-05
2.2749152e-06
2.1692262e-06
1.0177053e-05
2.1650007e-06
2.1650006e-06
1.0219829e-05
1.9831404e-06
2.1595104e-06
1.0289871e-05
1.5268581e-06
2.1410711e-06
1.0557192e-05
1.9713265e-06
1.1599309e-05
2.1142225e-06
1.8703559e-06
8.0025896e-06
2.3643887e-06
1.9989109e-06
9.9125947e-06
2.398537e-06
2.0018748e-06
1.0139372e-05
2.3783738e-06
1.9976051e-06
1.0197824e-05
2.3335799e-06
1.9928285e-06
1.0224489e-05
2.2675209e-06
1.988395e-06
1.024689e-05
2.1595106e-06
1.9831402e-06
1.0289871e-05
1.978622e-06
1.9786218e-06
1.0361777e-05
1.5237816e-06
1.9645324e-06
1.0631379e-05
1.8377632e-06
1.1657345e-05
2.1043397e-06
1.4947728e-06
8.2712434e-06
2.3348187e-06
1.5560095e-06
1.0212423e-05
2.3620279e-06
1.5477928e-06
1.0426873e-05
2.3422703e-06
1.5414987e-06
1.0475864e-05
2.3018521e-06
1.5364122e-06
1.0496834e-05
2.2419812e-06
1.5322675e-06
1.0515998e-05
2.1410712e-06
1.526858e-06
1.0557192e-05
1.9645325e-06
1.5237815e-06
1.0631379e-05
1.5093251e-06
1.509325e-06
1.0910415e-05
1.4253869e-06
1.1921702e-05
1.9317551e-06
9.5630178e-06
2.1041058e-06
1.1383659e-05
2.1216037e-06
1.1530295e-05
2.10903e-06
1.1554072e-05
2.0830652e-06
1.1562377e-05
2.043777e-06
1.1571556e-05
1.9713266e-06
1.1599308e-05
1.8377633e-06
1.1657345e-05
1.4253869e-06
1.1921701e-05
1.2850774e-05
1.1152751e-06
1.1152752e-06
4.0463144e-06
1.4455655e-06
1.4501131e-06
5.9530945e-06
1.5184089e-06
1.5233193e-06
6.27951e-06
1.5093566e-06
1.548654e-06
6.3622419e-06
1.4612181e-06
1.5629796e-06
6.3968684e-06
1.3766275e-06
1.5718092e-06
6.4336485e-06
1.230076e-06
1.5796719e-06
6.5138715e-06
9.5742626e-07
1.5729434e-06
6.7022957e-06
4.5958501e-07
1.5444375e-06
7.2246471e-06
1.241294e-06
8.7813088e-06
1.4501129e-06
1.4455658e-06
5.9530947e-06
1.8892791e-06
1.8892794e-06
8.6362728e-06
1.9879678e-06
1.9938176e-06
9.1389753e-06
1.9652149e-06
2.0335578e-06
9.2911126e-06
1.8824598e-06
2.0542668e-06
9.3655542e-06
1.7435999e-06
2.0652418e-06
9.4386664e-06
1.520119e-06
2.0690752e-06
9.5686175e-06
1.1247104e-06
2.0507185e-06
9.830228e-06
4.9265916e-07
1.9715256e-06
1.0417386e-05
1.5206626e-06
1.1596949e-05
1.5233191e-06
1.5184091e-06
6.2795104e-06
1.9938173e-06
1.987968e-06
9.1389756e-06
2.0978977e-06
2.097898e-06
9.7088255e-06
2.0668219e-06
2.1391433e-06
9.8959399e-06
1.967255e-06
2.1589995e-06
9.9911037e-06
1.805525e-06
2.1674903e-06
1.0078151e-05
1.5540508e-06
2.1654669e-06
1.0217568e-05
1.1292307e-06
2.1386632e-06
1.0476248e-05
4.7538544e-07
2.0400736e-06
1.101217e-05
1.5591556e-06
1.1967188e-05
1.5486539e-06
1.5093567e-06
6.3622426e-06
2.0335575e-06
1.965215e-06
9.2911131e-06
2.1391431e-06
2.0668221e-06
9.8959402e-06
2.1023086e-06
2.1023088e-06
1.0102289e-05
1.9928138e-06
2.1173812e-06
1.0208168e-05
1.8189801e-06
2.1218135e-06
1.0300131e-05
1.5545239e-06
2.1157716e-06
1.0438375e-05
1.1192739e-06
2.0873011e-06
1.0684436e-05
4.6280291e-07
1.9898953e-06
1.1182514e-05
1.5278161e-06
1.2048215e-05
1.5629795e-06
1.4612181e-06
6.3968691e-06
2.0542665e-06
1.8824597e-06
9.3655548e-06
2.1589992e-06
1.967255e-06
9.9911041e-06
2.117381e-06
1.9928137e-06
1.0208169e-05
2.0011186e-06
2.0011186e-06
1.0319232e-05
1.8197491e-06
2.0011418e-06
1.0412593e-05
1.547929e-06
1.9929197e-06
1.0548161e-05
1.1078419e-06
1.9675169e-06
1.0784361e-05
4.5218757e-07
1.8829386e-06
1.1259446e-05
1.4627524e-06
1.2079629e-05
1.571809e-06
1.3766273e-06
6.4336492e-06
2.0652415e-06
1.7435997e-06
9.438667e-06
2.16749e-06
1.8055249e-06
1.0078152e-05
2.1218134e-06
1.81898e-06
1.0300131e-05
2.0011418e-06
1.819749e-06
1.0412593e-05
1.8153624e-06
1.8153623e-06
1.0505954e-05
1.5394806e-06
1.8057232e-06
1.0640131e-05
1.0969085e-06
1.7855476e-06
1.0871432e-05
4.433952e-07
1.7198419e-06
1.1332609e-05
1.3611907e-06
1.2116513e-05
1.5796718e-06
1.2300757e-06
6.5138721e-06
2.0690749e-06
1.5201187e-06
9.568618e-06
2.1654667e-06
1.5540505e-06
1.0217568e-05
2.1157715e-06
1.5545237e-06
1.0438375e-05
1.9929197e-06
1.5479287e-06
1.054816e-05
1.8057233e-06
1.5394804e-06
1.0640131e-05
1.5283864e-06
1.5283862e-06
1.0774503e-05
1.0839203e-06
1.5137177e-06
1.1006167e-05
4.3191792e-07
1.4688162e-06
1.1460221e-05
1.1921876e-06
1.220023e-05
1.5729433e-06
9.5742602e-07
6.702296e-06
2.0507183e-06
1.1247102e-06
9.8302282e-06
2.1386629e-06
1.1292304e-06
1.0476248e-05
2.0873009e-06
1.1192737e-06
1.0684436e-05
1.9675169e-06
1.1078417e-06
1.0784361e-05
1.7855478e-06
1.0969083e-06
1.0871431e-05
1.513718e-06
1.0839201e-06
1.1006166e-05
1.0726686e-06
1.0726683e-06
1.1243876e-05
4.2598422e-07
1.0430866e-06
1.1703793e-05
8.8477365e-07
1.2390743e-05
1.5444373e-06
4.5958485e-07
7.2246472e-06
1.9715253e-06
4.92659e-07
1.0417386e-05
2.0400733e-06
4.7538529e-07
1.101217e-05
1.9898952e-06
4.6280277e-07
1.1182513e-05
1.8829386e-06
4.5218743e-07
1.1259445e-05
1.7198421e-06
4.4339506e-07
1.1332608e-05
1.4688164e-06
4.3191777e-07
1.146022e-05
1.0430868e-06
4.2598407e-07
1.1703793e-05
3.9873681e-07
3.9873666e-07
1.2199115e-05
3.3523949e-07
1.2869973e-05
1.2412938e-06
8.7813088e-06
1.5206624e-06
1.1596949e-05
1.5591554e-06
1.1967187e-05
1.5278159e-06
1.2048214e-05
1.4627524e-06
1.2079628e-05
1.3611908e-06
1.2116512e-05
1.1921879e-06
1.2200229e-05
8.8477388e-07
1.2390743e-05
3.3523963e-07
1.2869972e-05
1.3521253e-05
6.8610782e-07
6.8610801e-07
2.6740984e-06
1.0047281e-06
1.0316783e-06
4.6027958e-06
1.0907623e-06
1.12493e-06
5.0685457e-06
1.0749331e-06
1.1592353e-06
5.2188359e-06
1.0041375e-06
1.1784655e-06
5.2891986e-06
8.8056159e-07
1.1898632e-06
5.3673613e-06
6.8061687e-07
1.1990856e-06
5.5147307e-06
3.4072557e-07
1.1876171e-06
5.8545699e-06
-8.1280385e-08
1.1450715e-06
6.5015815e-06
8.0592492e-07
7.8941034e-06
1.0316781e-06
1.0047284e-06
4.602796e-06
1.5148682e-06
1.5148685e-06
7.6698926e-06
1.6454261e-06
1.6608951e-06
8.4724523e-06
1.6099663e-06
1.718646e-06
8.7671619e-06
1.4841183e-06
1.7485582e-06
8.9213095e-06
1.2737405e-06
1.7640361e-06
9.0748714e-06
9.5584794e-07
1.7684102e-06
9.3171856e-06
4.4558714e-07
1.7400206e-06
9.7880853e-06
-1.1217989e-07
1.626511e-06
1.0493713e-05
1.0975595e-06
1.1193135e-05
1.1249299e-06
1.0907626e-06
5.0685462e-06
1.6608948e-06
1.6454264e-06
8.4724526e-06
1.8035833e-06
1.8035836e-06
9.4234486e-06
1.7564218e-06
1.8653598e-06
9.7963877e-06
1.6041409e-06
1.8949998e-06
9.9969433e-06
1.3572321e-06
1.9074418e-06
1.0181655e-05
9.9637581e-07
1.9037607e-06
1.0443073e-05
4.4357923e-07
1.8628669e-06
1.0906198e-05
-1.3794211e-07
1.7201946e-06
1.1500008e-05
1.1458019e-06
1.1781003e-05
1.1592351e-06
1.0749332e-06
5.2188366e-06
1.7186457e-06
1.6099664e-06
8.7671625e-06
1.8653595e-06
1.756422e-06
9.796388e-06
1.8101242e-06
1.8101244e-06
1.021276e-05
1.6426486e-06
1.8330117e-06
1.0437632e-05
1.3769626e-06
1.8396674e-06
1.0633592e-05
9.9675585e-07
1.8302692e-06
1.0892073e-05
4.2942352e-07
1.7870486e-06
1.1327587e-05
-1.5396301e-07
1.6465792e-06
1.1839515e-05
1.1006797e-06
1.1939374e-05
1.1784653e-06
1.0041375e-06
5.2891994e-06
1.7485579e-06
1.4841183e-06
8.9213102e-06
1.8949995e-06
1.6041409e-06
9.9969437e-06
1.8330116e-06
1.6426486e-06
1.0437632e-05
1.6553692e-06
1.6553692e-06
1.0674517e-05
1.3782752e-06
1.6554331e-06
1.0873921e-05
9.8736643e-07
1.6428961e-06
1.1126442e-05
4.1357856e-07
1.6046967e-06
1.1540501e-05
-1.6755506e-07
1.4851234e-06
1.2002035e-05
1.0059121e-06
1.2006841e-05
1.189863e-06
8.805614e-07
5.3673621e-06
1.7640358e-06
1.2737403e-06
9.074872e-06
1.9074416e-06
1.3572319e-06
1.0181655e-05
1.8396672e-06
1.3769624e-06
1.0633592e-05
1.6554331e-06
1.3782751e-06
1.0873921e-05
1.3717431e-06
1.3717429e-06
1.1073335e-05
9.7503435e-07
1.3572949e-06
1.1322441e-05
3.9818686e-07
1.3276711e-06
1.1725305e-05
-1.7894625e-07
1.2390689e-06
1.2155796e-05
8.5829192e-07
1.2085187e-05
1.1990854e-06
6.8061658e-07
5.5147313e-06
1.7684099e-06
9.5584764e-07
9.3171861e-06
1.9037604e-06
9.9637552e-07
1.0443074e-05
1.830269e-06
9.9675556e-07
1.0892073e-05
1.6428962e-06
9.8736615e-07
1.1126442e-05
1.3572951e-06
9.7503406e-07
1.1322441e-05
9.5877667e-07
9.5877638e-07
1.157154e-05
3.7997745e-07
9.380171e-07
1.197462e-05
-1.9379189e-07
8.8279959e-07
1.2390259e-05
6.2880751e-07
1.2235922e-05
1.1876169e-06
3.4072528e-07
5.8545702e-06
1.7400203e-06
4.4558684e-07
9.7880855e-06
1.8628666e-06
4.4357894e-07
1.0906198e-05
1.7870484e-06
4.2942324e-07
1.1327587e-05
1.6046967e-06
4.1357828e-07
1.15405e-05
1.3276713e-06
3.9818658e-07
1.1725304e-05
9.3801739e-07
3.7997717e-07
1.197462e-05
3.6511976e-07
3.6511947e-07
1.2389671e-05
-2.0055446e-07
3.3520417e-07
1.2817063e-05
2.504373e-07
1.2568559e-05
1.1450713e-06
-8.1280566e-08
6.5015816e-06
1.6265107e-06
-1.1218007e-07
1.0493713e-05
1.7201944e-06
-1.3794229e-07
1.1500008e-05
1.646579e-06
-1.5396317e-07
1.1839515e-05
1.4851235e-06
-1.6755522e-07
1.2002034e-05
1.2390691e-06
-1.7894641e-07
1.2155795e-05
8.8279988e-07
-1.9379205e-07
1.2390259e-05
3.3520446e-07
-2.0055463e-07
1.2817062e-05
-2.2538946e-07
-2.2538964e-07
1.3320302e-05
-2.0012488e-07
1.3095145e-05
8.0592475e-07
7.8941034e-06
1.0975592e-06
1.1193135e-05
1.1458016e-06
1.1781003e-05
1.1006795e-06
1.1939373e-05
1.0059122e-06
1.200684e-05
8.5829209e-07
1.2085186e-05
6.2880778e-07
1.2235921e-05
2.5043757e-07
1.2568558e-05
-2.0012471e-07
1.3095145e-05
1.3121003e-05
4.2699639e-07
4.2699661e-07
1.8201052e-06
6.9641953e-07
7.3322191e-07
3.6001506e-06
7.7672576e-07
8.3198067e-07
4.1562589e-06
7.5302235e-07
8.7096696e-07
4.3715725e-06
6.6495915e-07
8.9292422e-07
4.4843378e-06
5.1547983e-07
9.0561834e-07
4.6112225e-06
2.8780017e-07
9.1518895e-07
4.8272215e-06
-5.2080023e-08
9.0075764e-07
5.2936924e-06
-3.6733553e-07
8.513251e-07
5.9655118e-06
5.2669245e-07
7.0000752e-06
7.3322169e-07
6.9641986e-07
3.6001508e-06
1.1909588e-06
1.1909592e-06
6.754418e-06
1.3272865e-06
1.3569969e-06
7.8111084e-06
1.278753e-06
1.4261434e-06
8.2605192e-06
1.1182093e-06
1.4621429e-06
8.5126348e-06
8.5569498e-07
1.4804523e-06
8.762552e-06
4.8146816e-07
1.4846876e-06
9.1219139e-06
-4.6527599e-08
1.4492701e-06
9.7675686e-06
-4.6572281e-07
1.3179028e-06
1.0446331e-05
7.9295484e-07
1.0461149e-05
8.3198045e-07
7.7672607e-07
4.1562593e-06
1.3569966e-06
1.3272868e-06
7.8111086e-06
1.5116107e-06
1.5116111e-06
9.1142203e-06
1.4488921e-06
1.5874726e-06
9.6977774e-06
1.2536564e-06
1.6241744e-06
1.0030148e-05
9.4312938e-07
1.6394413e-06
1.0333193e-05
5.1459145e-07
1.6343989e-06
1.07219e-05
-6.2621563e-08
1.5837456e-06
1.1348936e-05
-5.0098268e-07
1.4168129e-06
1.1839459e-05
8.3896537e-07
1.123401e-05
8.7096676e-07
7.5302252e-07
4.3715731e-06
1.426143e-06
1.2787532e-06
8.2605197e-06
1.5874723e-06
1.4488923e-06
9.6977776e-06
1.5151268e-06
1.515127e-06
1.0357452e-05
1.3003894e-06
1.5437868e-06
1.0732758e-05
9.6565038e-07
1.552131e-06
1.1055641e-05
5.130659e-07
1.5403019e-06
1.1438755e-05
-8.0607612e-08
1.4870838e-06
1.2017922e-05
-5.1912452e-07
1.3238693e-06
1.2370976e-05
7.8310337e-07
1.1476111e-05
8.9292402e-07
6.6495912e-07
4.4843385e-06
1.4621425e-06
1.1182093e-06
8.5126354e-06
1.6241741e-06
1.2536564e-06
1.0030148e-05
1.5437866e-06
1.3003893e-06
1.0732758e-05
1.3162406e-06
1.3162405e-06
1.1129609e-05
9.6708282e-07
1.3163539e-06
1.1458856e-05
5.0145717e-07
1.3007976e-06
1.1831573e-05
-9.9253566e-08
1.2545123e-06
1.2373783e-05
-5.3408547e-07
1.1196046e-06
1.2641132e-05
6.6662716e-07
1.1589231e-05
9.0561813e-07
5.1547961e-07
4.6112232e-06
1.480452e-06
8.5569476e-07
8.7625526e-06
1.6394409e-06
9.4312916e-07
1.0333193e-05
1.5521308e-06
9.6565016e-07
1.1055642e-05
1.3163539e-06
9.6708261e-07
1.1458856e-05
9.5895548e-07
9.5895527e-07
1.1788132e-05
4.8637783e-07
9.4125638e-07
1.215456e-05
-1.1739367e-07
9.0657214e-07
1.2677016e-05
-5.4670941e-07
8.1326043e-07
1.2891456e-05
4.8863833e-07
1.1716466e-05
9.1518875e-07
2.8779984e-07
4.827222e-06
1.4846872e-06
4.8146782e-07
9.1219144e-06
1.6343986e-06
5.1459112e-07
1.07219e-05
1.5403017e-06
5.1306558e-07
1.1438755e-05
1.3007976e-06
5.0145685e-07
1.1831572e-05
9.412566e-07
4.8637751e-07
1.215456e-05
4.6681391e-07
4.6681358e-07
1.2520426e-05
-1.3856256e-07
4.4385699e-07
1.3042711e-05
-5.6311375e-07
3.942827e-07
1.3233788e-05
2.284909e-07
1.1932956e-05
9.0075743e-07
-5.2080347e-08
5.2936927e-06
1.4492698e-06
-4.6527933e-08
9.7675688e-06
1.5837453e-06
-6.2621886e-08
1.1348936e-05
1.4870836e-06
-8.0607923e-08
1.2017922e-05
1.2545123e-06
-9.9253872e-08
1.2373783e-05
9.0657235e-07
-1.1739398e-07
1.2677016e-05
4.4385732e-07
-1.3856287e-07
1.3042711e-05
-1.53735e-07
-1.5373532e-07
1.3584856e-05
-5.693195e-07
-1.7154077e-07
1.379847e-05
-1.4628207e-07
1.2374012e-05
8.513249e-07
-3.6733573e-07
5.9655119e-06
1.3179025e-06
-4.6572302e-07
1.0446331e-05
1.4168126e-06
-5.0098287e-07
1.1839458e-05
1.3238691e-06
-5.191247e-07
1.2370975e-05
1.1196046e-06
-5.3408564e-07
1.2641131e-05
8.1326064e-07
-5.4670959e-07
1.2891455e-05
3.9428303e-07
-5.6311394e-07
1.3233788e-05
-1.7154044e-07
-5.6931969e-07
1.379847e-05
-5.8309039e-07
-5.830906e-07
1.4143402e-05
-4.6613975e-07
1.2831912e-05
5.2669226e-07
7.0000752e-06
7.9295454e-07
1.0461149e-05
8.3896509e-07
1.1234009e-05
7.8310321e-07
1.1476111e-05
6.6662717e-07
1.1589231e-05
4.8863852e-07
1.1716465e-05
2.284912e-07
1.1932955e-05
-1.4628176e-07
1.2374012e-05
-4.6613955e-07
1.2831912e-05
1.2188724e-05
2.6631793e-07
2.6631817e-07
1.2874689e-06
4.7868649e-07
5.1784082e-07
2.8699411e-06
5.4416189e-07
6.1244229e-07
3.4783412e-06
5.1189787e-07
6.5259916e-07
3.7512376e-06
4.1148378e-07
6.755652e-07
3.909187e-06
2.4751112e-07
6.8865812e-07
4.0865373e-06
1.2804824e-08
6.9809214e-07
4.3638358e-06
-2.9127554e-07
6.8249185e-07
4.9152809e-06
-4.9896928e-07
6.3285853e-07
5.5403468e-06
3.474509e-07
6.1536548e-06
5.1784057e-07
4.7868686e-07
2.8699412e-06
9.1623173e-07
9.1623211e-07
5.9576354e-06
1.0403946e-06
1.084824e-06
7.2145638e-06
9.7779887e-07
1.1592207e-06
7.8164937e-06
7.909049e-07
1.1985244e-06
8.1765699e-06
4.9510123e-07
1.2183584e-06
8.5286557e-06
9.8357238e-08
1.2223475e-06
8.9944027e-06
-3.8795526e-07
1.1834873e-06
9.7528855e-06
-6.5255989e-07
1.0488592e-06
1.0294934e-05
5.7223244e-07
9.5838077e-06
6.1244205e-07
5.4416223e-07
3.4783415e-06
1.0848236e-06
1.040395e-06
7.214564e-06
1.2312045e-06
1.2312049e-06
8.8214587e-06
1.1522431e-06
1.3144939e-06
9.6214658e-06
9.2386536e-07
1.3555265e-06
1.0101524e-05
5.7119338e-07
1.3726347e-06
1.0531589e-05
1.1288741e-07
1.3668874e-06
1.1035666e-05
-4.2349657e-07
1.311363e-06
1.1757444e-05
-6.9763628e-07
1.1382884e-06
1.2024169e-05
6.0890989e-07
1.0499695e-05
6.5259893e-07
5.1189805e-07
3.751238e-06
1.1592203e-06
9.7779907e-07
7.8164941e-06
1.3144936e-06
1.1522433e-06
9.6214659e-06
1.2248116e-06
1.2248118e-06
1.0536816e-05
9.7353999e-07
1.2570153e-06
1.1082541e-05
5.9252479e-07
1.2665522e-06
1.1542739e-05
1.0717529e-07
1.2534995e-06
1.2037492e-05
-4.4581458e-07
1.1956267e-06
1.2686648e-05
-7.1740858e-07
1.0283802e-06
1.2752478e-05
5.4415283e-07
1.0823459e-05
6.7556498e-07
4.1148374e-07
3.9091875e-06
1.198524e-06
7.9090487e-07
8.1765703e-06
1.3555261e-06
9.2386534e-07
1.0101524e-05
1.2570151e-06
9.7353997e-07
1.1082541e-05
9.9098227e-07
9.9098225e-07
1.1661676e-05
5.9335926e-07
9.9114441e-07
1.2131887e-05
9.3543557e-08
9.7409711e-07
1.2610791e-05
-4.6637134e-07
9.2496241e-07
1.3204362e-05
-7.3286709e-07
7.9249386e-07
1.3143513e-05
4.1288436e-07
1.0987632e-05
6.886579e-07
2.4751088e-07
4.0865378e-06
1.2183581e-06
4.9510098e-07
8.5286561e-06
1.3726343e-06
5.7119314e-07
1.0531589e-05
1.266552e-06
5.9252455e-07
1.154274e-05
9.9114443e-07
5.9335902e-07
1.2131887e-05
5.8412975e-07
5.8412951e-07
1.2602162e-05
7.6695085e-08
5.6489399e-07
1.3071198e-05
-4.8602499e-07
5.2988969e-07
1.3634809e-05
-7.4587749e-07
4.4755011e-07
1.3496252e-05
2.1794234e-07
1.116553e-05
6.9809192e-07
1.2804461e-08
4.3638362e-06
1.2223471e-06
9.8356858e-08
8.9944031e-06
1.3668871e-06
1.1288704e-07
1.1035667e-05
1.2534993e-06
1.0717493e-07
1.2037493e-05
9.7409714e-07
9.3543198e-08
1.2610791e-05
5.6489423e-07
7.6694725e-08
1.3071198e-05
5.5676821e-08
5.5676457e-08
1.3538861e-05
-5.0832942e-07
3.448715e-08
1.410212e-05
-7.6264001e-07
3.1135659e-09
1.3932535e-05
-4.9660173e-08
1.1437918e-05
6.8249162e-07
-2.912759e-07
4.9152811e-06
1.183487e-06
-3.8795564e-07
9.7528857e-06
1.3113627e-06
-4.2349694e-07
1.1757444e-05
1.1956265e-06
-4.4581493e-07
1.2686648e-05
9.2496244e-07
-4.6637168e-07
1.3204362e-05
5.2988992e-07
-4.8602533e-07
1.3634809e-05
3.4487516e-08
-5.0832977e-07
1.410212e-05
-5.2100472e-07
-5.2100508e-07
1.469584e-05
-7.6720666e-07
-5.1888471e-07
1.456667e-05
-3.833054e-07
1.194045e-05
6.328583e-07
-4.989695e-07
5.5403469e-06
1.0488588e-06
-6.5256012e-07
1.0294934e-05
1.138288e-06
-6.976365e-07
1.2024169e-05
1.02838e-06
-7.1740877e-07
1.2752477e-05
7.9249388e-07
-7.3286728e-07
1.3143513e-05
4.4755035e-07
-7.4587768e-07
1.3496251e-05
3.1139267e-09
-7.6264021e-07
1.3932535e-05
-5.1888435e-07
-7.6720687e-07
1.456667e-05
-7.6692048e-07
-7.669207e-07
1.4639474e-05
-5.7964583e-07
1.2261332e-05
3.4745069e-07
6.1536548e-06
5.7223211e-07
9.5838076e-06
6.0890958e-07
1.0499695e-05
5.4415265e-07
1.0823459e-05
4.1288437e-07
1.0987632e-05
2.1794256e-07
1.116553e-05
-4.9659838e-08
1.1437917e-05
-3.8330506e-07
1.194045e-05
-5.7964562e-07
1.2261332e-05
1.1029432e-05
1.6483531e-07
1.6483557e-07
9.5779771e-07
3.2319543e-07
3.6111175e-07
2.3504691e-06
3.7024226e-07
4.4578381e-07
2.9855106e-06
3.2947179e-07
4.8445096e-07
3.3075573e-06
2.211656e-07
5.0710944e-07
3.510384e-06
5.2244852e-08
5.199883e-07
3.73547e-06
-1.7442066e-07
5.2913168e-07
4.0613697e-06
-4.2650006e-07
5.1399328e-07
4.653367e-06
-5.3862123e-07
4.6920883e-07
5.183259e-06
2.3192323e-07
5.3831101e-06
3.6111147e-07
3.2319583e-07
2.3504692e-06
6.865189e-07
6.8651933e-07
5.3068202e-06
7.8721105e-07
8.4489148e-07
6.714764e-06
7.0998333e-07
9.1924011e-07
7.4589326e-06
5.0475131e-07
9.5944269e-07
7.929469e-06
1.92809e-07
9.7980492e-07
8.3807817e-06
-1.9926526e-07
9.8380349e-07
8.9318053e-06
-6.1176172e-07
9.4506912e-07
9.7343061e-06
-7.302127e-07
8.1856168e-07
1.0064032e-05
4.1105551e-07
8.6744624e-06
4.4578355e-07
3.7024264e-07
2.9855107e-06
8.4489106e-07
7.8721145e-07
6.7147641e-06
9.6884104e-07
9.6884144e-07
8.5735588e-06
8.7297664e-07
1.053314e-06
9.5832566e-06
6.2096632e-07
1.0960771e-06
1.02169e-05
2.461428e-07
1.1141982e-06
1.077202e-05
-2.1059508e-07
1.1086319e-06
1.1367576e-05
-6.6881787e-07
1.0530894e-06
1.2107646e-05
-7.8412044e-07
8.8861322e-07
1.206942e-05
4.3466785e-07
9.6919623e-06
4.8445071e-07
3.29472e-07
3.3075575e-06
9.192397e-07
7.0998355e-07
7.4589327e-06
1.0533136e-06
8.7297687e-07
9.5832567e-06
9.4583801e-07
9.4583823e-07
1.0751768e-05
6.6839284e-07
9.7932472e-07
1.1476739e-05
2.6241483e-07
9.8961047e-07
1.2073306e-05
-2.2270163e-07
9.7669448e-07
1.2654547e-05
-6.9593882e-07
9.1947338e-07
1.3293502e-05
-8.0521926e-07
7.6352262e-07
1.2986848e-05
3.6241872e-07
1.0090489e-05
5.0710919e-07
2.2116556e-07
3.5103843e-06
9.5944228e-07
5.0475127e-07
7.9294693e-06
1.0960767e-06
6.2096629e-07
1.02169e-05
9.7932449e-07
6.6839281e-07
1.1476739e-05
6.8577502e-07
6.8577499e-07
1.2248775e-05
2.6176743e-07
6.8597629e-07
1.2859529e-05
-2.3842082e-07
6.6906019e-07
1.3418614e-05
-7.1779725e-07
6.2220384e-07
1.3981008e-05
-8.2062077e-07
5.0635241e-07
1.3503507e-05
2.2224723e-07
1.0307183e-05
5.1998806e-07
5.2244589e-08
3.7354703e-06
9.7980452e-07
1.9280872e-07
8.380782e-06
1.1141978e-06
2.4614253e-07
1.077202e-05
9.8961024e-07
2.6241456e-07
1.2073306e-05
6.8597631e-07
2.6176717e-07
1.2859529e-05
2.5185879e-07
2.5185853e-07
1.3470398e-05
-2.5623777e-07
2.3281037e-07
1.4015545e-05
-7.3796028e-07
2.0196656e-07
1.4536769e-05
-8.3341673e-07
1.4228292e-07
1.3955777e-05
2.1330179e-08
1.053303e-05
5.2913143e-07
-1.7442106e-07
4.06137e-06
9.8380309e-07
-1.9926567e-07
8.9318056e-06
1.1086315e-06
-2.1059549e-07
1.1367576e-05
9.7669425e-07
-2.2270203e-07
1.2654547e-05
6.6906022e-07
-2.3842122e-07
1.3418614e-05
2.3281063e-07
-2.5623816e-07
1.4015545e-05
-2.7700718e-07
-2.7700758e-07
1.4558497e-05
-7.5985096e-07
-2.9297414e-07
1.5079905e-05
-8.4964221e-07
-2.9822394e-07
1.4462833e-05
-2.3718824e-07
1.0846794e-05
5.1399303e-07
-4.2650046e-07
4.6533672e-06
9.4506872e-07
-6.1176213e-07
9.7343063e-06
1.0530891e-06
-6.6881827e-07
1.2107646e-05
9.1947316e-07
-6.9593921e-07
1.3293502e-05
6.2220386e-07
-7.1779763e-07
1.3981008e-05
2.0196682e-07
-7.3796066e-07
1.4536769e-05
-2.9297374e-07
-7.5985135e-07
1.5079905e-05
-7.6783678e-07
-7.6783717e-07
1.5645566e-05
-8.5190492e-07
-7.4233171e-07
1.5094846e-05
-5.1345384e-07
1.1364811e-05
4.6920858e-07
-5.3862148e-07
5.1832591e-06
8.1856129e-07
-7.3021296e-07
1.0064032e-05
8.8861285e-07
-7.8412068e-07
1.206942e-05
7.635224e-07
-8.0521948e-07
1.2986848e-05
5.0635243e-07
-8.2062098e-07
1.3503507e-05
1.4228317e-07
-8.3341695e-07
1.3955777e-05
-2.9822354e-07
-8.4964244e-07
1.4462833e-05
-7.4233131e-07
-8.5190516e-07
1.5094846e-05
-8.3784381e-07
-8.3784406e-07
1.4830499e-05
-6.0560727e-07
1.1515641e-05
2.3192299e-07
5.3831101e-06
4.1105515e-07
8.6744623e-06
4.3466751e-07
9.6919622e-06
3.6241852e-07
1.0090489e-05
2.2224725e-07
1.0307182e-05
2.1330413e-08
1.053303e-05
-2.3718787e-07
1.0846793e-05
-5.1345346e-07
1.136481e-05
-6.0560703e-07
1.1515641e-05
9.8182177e-06
9.946828e-08
9.9468562e-08
7.588606e-07
2.1090742e-07
2.4610224e-07
1.9929276e-06
2.3894342e-07
3.1795083e-07
2.6395238e-06
1.9037284e-07
3.5328268e-07
3.0028454e-06
7.8158415e-08
3.7467767e-07
3.2479211e-06
-8.8074593e-08
3.8695254e-07
3.5147507e-06
-2.9630158e-07
3.9583994e-07
3.8737569e-06
-4.9149115e-07
3.8252763e-07
4.4660289e-06
-5.2565149e-07
3.4576864e-07
4.8716505e-06
1.5678953e-07
4.7006688e-06
2.4610194e-07
2.1090785e-07
1.9929276e-06
4.966672e-07
4.9666766e-07
4.8056893e-06
5.6767261e-07
6.3644626e-07
6.3252632e-06
4.7603241e-07
7.0651707e-07
7.1973386e-06
2.5992137e-07
7.4563376e-07
7.7746243e-06
-5.3462053e-08
7.6579417e-07
8.3153238e-06
-4.2060658e-07
7.7025001e-07
8.92454e-06
-7.4488416e-07
7.3478496e-07
9.7063264e-06
-7.3851994e-07
6.2429722e-07
9.7791393e-06
2.9245262e-07
7.800279e-06
3.1795055e-07
2.3894382e-07
2.6395238e-06
6.364458e-07
5.6767304e-07
6.3252633e-06
7.2887179e-07
7.2887222e-07
8.3887069e-06
6.1604355e-07
8.0914982e-07
9.5934524e-06
3.4932736e-07
8.5130508e-07
1.0377945e-05
-3.0121679e-08
8.6976768e-07
1.1047496e-05
-4.6119857e-07
8.6535763e-07
1.1703546e-05
-8.2296364e-07
8.1415037e-07
1.2390046e-05
-7.9948767e-07
6.690933e-07
1.2001147e-05
3.0151589e-07
8.883411e-06
3.5328241e-07
1.9037306e-07
3.0028454e-06
7.0651662e-07
4.7603265e-07
7.1973387e-06
8.0914939e-07
6.1604379e-07
9.5934524e-06
6.8383585e-07
6.8383609e-07
1.1002395e-05
3.8991645e-07
7.1646708e-07
1.1905497e-05
-2.2222716e-08
7.2711965e-07
1.2628093e-05
-4.8146344e-07
7.1571515e-07
1.326343e-05
-8.5527879e-07
6.6392011e-07
1.3817547e-05
-8.2171793e-07
5.3057846e-07
1.3091802e-05
2.2306518e-07
9.3472213e-06
3.746774e-07
7.815838e-08
3.2479211e-06
7.4563332e-07
2.5992134e-07
7.7746244e-06
8.5130466e-07
3.4932733e-07
1.0377945e-05
7.1646684e-07
3.8991643e-07
1.1905497e-05
4.0562414e-07
4.0562411e-07
1.2870462e-05
-2.5267461e-08
4.0584792e-07
1.3611693e-05
-4.9946302e-07
3.9063657e-07
1.4217888e-05
-8.7814234e-07
3.5058887e-07
1.4673019e-05
-8.3676344e-07
2.6139112e-07
1.3731315e-05
7.892802e-08
9.614556e-06
3.8695227e-07
-8.8074874e-08
3.5147509e-06
7.6579374e-07
-5.3462346e-08
8.3153239e-06
8.6976726e-07
-3.0121967e-08
1.1047496e-05
7.271194e-07
-2.2222999e-08
1.2628093e-05
4.0584795e-07
-2.5267741e-08
1.3611693e-05
-3.5502608e-08
-3.5502888e-08
1.4353099e-05
-5.1760356e-07
-5.276042e-08
1.4941043e-05
-8.9810867e-07
-7.5657908e-08
1.5343521e-05
-8.4896521e-07
-1.0528371e-07
1.4273309e-05
-1.1935268e-07
9.8823452e-06
3.9583967e-07
-2.9630201e-07
3.8737571e-06
7.7024958e-07
-4.2060703e-07
8.9245401e-06
8.6535721e-07
-4.6119901e-07
1.1703546e-05
7.1571491e-07
-4.8146387e-07
1.326343e-05
3.906366e-07
-4.9946345e-07
1.4217888e-05
-5.276014e-08
-5.1760399e-07
1.4941043e-05
-5.3663144e-07
-5.3663188e-07
1.552624e-05
-9.1839766e-07
-5.4467007e-07
1.5930683e-05
-8.6405839e-07
-5.1993097e-07
1.482314e-05
-3.5783269e-07
1.0221215e-05
3.8252736e-07
-4.9149158e-07
4.466029e-06
7.3478453e-07
-7.4488461e-07
9.7063265e-06
8.1414995e-07
-8.2296407e-07
1.2390046e-05
6.6391988e-07
-8.5527921e-07
1.3817547e-05
3.5058889e-07
-8.7814275e-07
1.4673019e-05
-7.565763e-08
-8.9810908e-07
1.5343521e-05
-5.4466963e-07
-9.1839809e-07
1.5930683e-05
-9.2028385e-07
-9.2028429e-07
1.6396795e-05
-8.6375197e-07
-8.7141042e-07
1.5389793e-05
-5.7263818e-07
1.0715864e-05
3.4576836e-07
-5.2565176e-07
4.8716506e-06
6.2429679e-07
-7.3852022e-07
9.7791393e-06
6.6909289e-07
-7.9948793e-07
1.2001147e-05
5.3057823e-07
-8.2171817e-07
1.3091802e-05
2.6139114e-07
-8.3676368e-07
1.3731315e-05
-1.0528344e-07
-8.4896545e-07
1.4273308e-05
-5.1993054e-07
-8.6405864e-07
1.482314e-05
-8.7140998e-07
-8.6375224e-07
1.5389793e-05
-8.3794663e-07
-8.3794691e-07
1.4763572e-05
-5.8311559e-07
1.0688172e-05
1.5678927e-07
4.7006689e-06
2.9245222e-07
7.800279e-06
3.0151552e-07
8.883411e-06
2.2306496e-07
9.3472212e-06
7.8928039e-08
9.6145558e-06
-1.1935243e-07
9.882345e-06
-3.5783229e-07
1.0221215e-05
-5.7263777e-07
1.0715864e-05
-5.8311533e-07
1.0688172e-05
8.6519865e-06
5.6355269e-08
5.635557e-08
6.4614952e-07
1.2891871e-07
1.6100783e-07
1.7593562e-06
1.3906587e-07
2.1912892e-07
2.4102477e-06
8.3877269e-08
2.4998736e-07
2.8080468e-06
-2.8775065e-08
2.6947518e-07
3.0910984e-06
-1.8653899e-07
2.8092369e-07
3.3915912e-06
-3.699819e-07
2.8967731e-07
3.7675227e-06
-5.1014791e-07
2.7919319e-07
4.3270017e-06
-4.848543e-07
2.5202253e-07
4.5943342e-06
1.0729507e-07
4.1085192e-06
1.6100751e-07
1.2891917e-07
1.7593562e-06
3.4133888e-07
3.4133937e-07
4.4450262e-06
3.8029768e-07
4.5784757e-07
6.0475858e-06
2.7530769e-07
5.2054846e-07
7.0317677e-06
5.5038688e-08
5.570363e-07
7.7073325e-06
-2.47892e-07
5.7648909e-07
8.3226894e-06
-5.7636786e-07
5.8190619e-07
8.9607871e-06
-8.1023675e-07
5.5219656e-07
9.6671919e-06
-7.0515093e-07
4.6245307e-07
9.4636227e-06
2.0454414e-07
6.9978787e-06
2.1912861e-07
1.390663e-07
2.4102477e-06
4.5784709e-07
3.8029814e-07
6.0475858e-06
5.1394373e-07
5.1394419e-07
8.2765136e-06
3.8491381e-07
5.857776e-07
9.6572534e-06
1.1160429e-07
6.2535051e-07
1.0582941e-05
-2.5793378e-07
6.4363422e-07
1.1349889e-05
-6.4638007e-07
6.4131919e-07
1.2032579e-05
-9.0695456e-07
5.9799522e-07
1.2604822e-05
-7.710441e-07
4.7938559e-07
1.1848304e-05
1.9910491e-07
8.1178058e-06
2.4998707e-07
8.3877509e-08
2.8080468e-06
5.2054798e-07
2.7530795e-07
7.0317677e-06
5.8577715e-07
3.8491408e-07
9.6572534e-06
4.4329303e-07
4.432933e-07
1.1287364e-05
1.4169869e-07
4.7318604e-07
1.2359256e-05
-2.608742e-07
4.8388977e-07
1.3190411e-05
-6.7592794e-07
4.7526017e-07
1.3844543e-05
-9.4456654e-07
4.3279733e-07
1.4251384e-05
-7.9422635e-07
3.2942717e-07
1.309142e-05
1.1576572e-07
8.6363338e-06
2.694749e-07
-2.8775099e-08