/*--------------------------------*- C++ -*----------------------------------*\
| =========                 |                                                 |
| \\      /  F ield         | OpenFOAM: The Open Source CFD Toolbox           |
|  \\    /   O peration     | Version:  dev                                   |
|   \\  /    A nd           | Web:      www.OpenFOAM.org                      |
|    \\/     M anipulation  |                                                 |
\*---------------------------------------------------------------------------*/
FoamFile
{
    version     2.0;
    format      ascii;
    class       surfaceScalarField;
    location    "6";
    object      phi_0;
}
// * * * * * * * * * * * * * * * * * * * * * * * * * * * * * * * * * * * * * //

dimensions      [0 3 -1 0 0 0 0];

internalField   nonuniform List<scalar> 
27900
(
1.8615677e-06
1.8615678e-06
6.2768645e-06
2.0702592e-06
2.0578105e-06
7.733498e-06
2.1043841e-06
2.0902024e-06
7.8756726e-06
2.1014644e-06
2.101076e-06
7.9018437e-06
2.0823331e-06
2.1074216e-06
7.9117097e-06
2.0498946e-06
2.1115714e-06
7.9208672e-06
1.9871679e-06
2.1157347e-06
7.946992e-06
1.870356e-06
2.1142226e-06
8.0025893e-06
1.4947729e-06
2.1043398e-06
8.2712433e-06
1.9317552e-06
9.5630177e-06
2.0578104e-06
2.0702593e-06
7.733498e-06
2.3005078e-06
2.3005079e-06
9.5146053e-06
2.3414693e-06
2.3410787e-06
9.7081623e-06
2.3329628e-06
2.3563189e-06
9.7532636e-06
2.3018489e-06
2.364449e-06
9.7740864e-06
2.2512922e-06
2.3688888e-06
9.7932393e-06
2.1616718e-06
2.3708152e-06
9.8345399e-06
1.998911e-06
2.3643888e-06
9.9125946e-06
1.5560095e-06
2.3348188e-06
1.0212423e-05
2.1041059e-06
1.1383659e-05
2.0902024e-06
2.1043842e-06
7.8756727e-06
2.3410786e-06
2.3414694e-06
9.7081623e-06
2.3825854e-06
2.3825855e-06
9.9169864e-06
2.3706489e-06
2.3978056e-06
9.9704498e-06
2.3335347e-06
2.4052934e-06
9.9962698e-06
2.2751605e-06
2.4085929e-06
1.001867e-05
2.1753958e-06
2.4080949e-06
1.0062485e-05
2.0018749e-06
2.3985371e-06
1.0139373e-05
1.5477928e-06
2.362028e-06
1.0426873e-05
2.1216038e-06
1.1530295e-05
2.101076e-06
2.1014644e-06
7.9018438e-06
2.3563189e-06
2.3329628e-06
9.7532636e-06
2.3978055e-06
2.3706489e-06
9.9704499e-06
2.3834952e-06
2.3834952e-06
1.0028621e-05
2.3427033e-06
2.3890298e-06
1.0057056e-05
2.2799784e-06
2.3906968e-06
1.0080621e-05
2.175266e-06
2.3885838e-06
1.0124224e-05
1.9976052e-06
2.3783739e-06
1.0197824e-05
1.5414987e-06
2.3422704e-06
1.0475864e-05
2.1090301e-06
1.1554072e-05
2.1074216e-06
2.0823331e-06
7.9117098e-06
2.364449e-06
2.3018489e-06
9.7740865e-06
2.4052933e-06
2.3335347e-06
9.9962698e-06
2.3890298e-06
2.3427033e-06
1.0057056e-05
2.3456763e-06
2.3456763e-06
1.0086707e-05
2.2801451e-06
2.3456762e-06
1.0110552e-05
2.1725244e-06
2.3427159e-06
1.0153489e-05
1.9928286e-06
2.3335799e-06
1.022449e-05
1.5364123e-06
2.3018521e-06
1.0496835e-05
2.0830652e-06
1.1562377e-05
2.1115713e-06
2.0498945e-06
7.9208673e-06
2.3688887e-06
2.2512922e-06
9.7932393e-06
2.4085928e-06
2.2751605e-06
1.001867e-05
2.3906968e-06
2.2799784e-06
1.0080621e-05
2.3456762e-06
2.2801451e-06
1.0110552e-05
2.2784785e-06
2.2784785e-06
1.0134395e-05
2.1692263e-06
2.2749151e-06
1.0177053e-05
1.9883951e-06
2.2675208e-06
1.024689e-05
1.5322676e-06
2.2419812e-06
1.0515998e-05
2.0437769e-06
1.1571556e-05
2.1157346e-06
1.9871678e-06
7.9469921e-06
2.3708152e-06
2.1616717e-06
9.8345399e-06
2.4080948e-06
2.1753957e-06
1.0062485e-05
2.3885837e-06
2.175266e-06
1.0124224e-05
2.3427159e-06
2.1725243e-06
1.0153489e-05
2.2749151e-06
2.1692262e-06
1.0177053e-05
2.1650006e-06
2.1650006e-06
1.0219829e-05
1.9831403e-06
2.1595104e-06
1.0289871e-05
1.5268581e-06
2.1410711e-06
1.0557192e-05
1.9713265e-06
1.1599309e-05
2.1142225e-06
1.8703559e-06
8.0025894e-06
2.3643887e-06
1.9989109e-06
9.9125946e-06
2.3985371e-06
2.0018748e-06
1.0139373e-05
2.3783738e-06
1.9976051e-06
1.0197824e-05
2.3335799e-06
1.9928285e-06
1.022449e-05
2.2675208e-06
1.988395e-06
1.024689e-05
2.1595105e-06
1.9831402e-06
1.0289871e-05
1.9786219e-06
1.9786218e-06
1.0361777e-05
1.5237816e-06
1.9645324e-06
1.0631379e-05
1.8377632e-06
1.1657345e-05
2.1043398e-06
1.4947728e-06
8.2712433e-06
2.3348187e-06
1.5560095e-06
1.0212423e-05
2.362028e-06
1.5477928e-06
1.0426873e-05
2.3422704e-06
1.5414986e-06
1.0475864e-05
2.3018521e-06
1.5364122e-06
1.0496835e-05
2.2419812e-06
1.5322675e-06
1.0515998e-05
2.1410712e-06
1.526858e-06
1.0557192e-05
1.9645325e-06
1.5237815e-06
1.0631379e-05
1.5093251e-06
1.509325e-06
1.0910415e-05
1.4253869e-06
1.1921701e-05
1.9317552e-06
9.5630177e-06
2.1041059e-06
1.1383659e-05
2.1216037e-06
1.1530295e-05
2.10903e-06
1.1554072e-05
2.0830652e-06
1.1562377e-05
2.043777e-06
1.1571556e-05
1.9713265e-06
1.1599308e-05
1.8377632e-06
1.1657345e-05
1.4253869e-06
1.1921701e-05
1.2850774e-05
1.1152752e-06
1.1152752e-06
4.0463142e-06
1.4455657e-06
1.4501131e-06
5.9530944e-06
1.5184091e-06
1.5233193e-06
6.27951e-06
1.5093567e-06
1.548654e-06
6.3622421e-06
1.4612181e-06
1.5629796e-06
6.3968686e-06
1.3766274e-06
1.5718092e-06
6.4336487e-06
1.2300758e-06
1.5796719e-06
6.5138716e-06
9.5742609e-07
1.5729434e-06
6.7022956e-06
4.595849e-07
1.5444375e-06
7.224647e-06
1.241294e-06
8.7813086e-06
1.450113e-06
1.4455658e-06
5.9530944e-06
1.8892793e-06
1.8892794e-06
8.6362726e-06
1.987968e-06
1.9938176e-06
9.1389753e-06
1.965215e-06
2.0335578e-06
9.2911129e-06
1.8824597e-06
2.0542668e-06
9.3655545e-06
1.7435998e-06
2.0652418e-06
9.4386667e-06
1.5201188e-06
2.0690752e-06
9.5686177e-06
1.1247102e-06
2.0507185e-06
9.830228e-06
4.9265903e-07
1.9715256e-06
1.0417386e-05
1.5206626e-06
1.1596949e-05
1.5233192e-06
1.5184091e-06
6.2795101e-06
1.9938175e-06
1.987968e-06
9.1389754e-06
2.0978979e-06
2.097898e-06
9.7088256e-06
2.0668221e-06
2.1391433e-06
9.8959402e-06
1.967255e-06
2.1589995e-06
9.9911041e-06
1.8055249e-06
2.1674903e-06
1.0078152e-05
1.5540505e-06
2.1654669e-06
1.0217568e-05
1.1292305e-06
2.1386632e-06
1.0476248e-05
4.7538532e-07
2.0400736e-06
1.101217e-05
1.5591556e-06
1.1967187e-05
1.548654e-06
1.5093567e-06
6.3622422e-06
2.0335578e-06
1.965215e-06
9.2911129e-06
2.1391433e-06
2.0668221e-06
9.8959402e-06
2.1023088e-06
2.1023088e-06
1.010229e-05
1.9928137e-06
2.1173812e-06
1.0208169e-05
1.81898e-06
2.1218135e-06
1.0300132e-05
1.5545237e-06
2.1157716e-06
1.0438375e-05
1.1192737e-06
2.0873011e-06
1.0684436e-05
4.6280278e-07
1.9898953e-06
1.1182513e-05
1.5278161e-06
1.2048215e-05
1.5629796e-06
1.4612181e-06
6.3968688e-06
2.0542667e-06
1.8824597e-06
9.3655546e-06
2.1589994e-06
1.967255e-06
9.9911042e-06
2.1173812e-06
1.9928137e-06
1.0208169e-05
2.0011186e-06
2.0011186e-06
1.0319232e-05
1.819749e-06
2.0011418e-06
1.0412593e-05
1.5479287e-06
1.9929197e-06
1.0548161e-05
1.1078417e-06
1.9675169e-06
1.0784361e-05
4.5218744e-07
1.8829386e-06
1.1259446e-05
1.4627524e-06
1.2079628e-05
1.5718092e-06
1.3766273e-06
6.4336488e-06
2.0652418e-06
1.7435997e-06
9.4386667e-06
2.1674903e-06
1.8055249e-06
1.0078152e-05
2.1218135e-06
1.81898e-06
1.0300132e-05
2.0011418e-06
1.819749e-06
1.0412593e-05
1.8153623e-06
1.8153623e-06
1.0505955e-05
1.5394804e-06
1.8057232e-06
1.0640131e-05
1.0969083e-06
1.7855476e-06
1.0871432e-05
4.4339507e-07
1.7198419e-06
1.1332608e-05
1.3611907e-06
1.2116513e-05
1.5796719e-06
1.2300758e-06
6.5138717e-06
2.0690751e-06
1.5201187e-06
9.5686177e-06
2.1654669e-06
1.5540505e-06
1.0217568e-05
2.1157716e-06
1.5545237e-06
1.0438375e-05
1.9929197e-06
1.5479287e-06
1.0548161e-05
1.8057232e-06
1.5394804e-06
1.0640131e-05
1.5283862e-06
1.5283862e-06
1.0774503e-05
1.0839201e-06
1.5137177e-06
1.1006167e-05
4.3191779e-07
1.4688162e-06
1.146022e-05
1.1921876e-06
1.2200229e-05
1.5729434e-06
9.5742603e-07
6.7022957e-06
2.0507185e-06
1.1247102e-06
9.830228e-06
2.1386631e-06
1.1292304e-06
1.0476248e-05
2.0873011e-06
1.1192736e-06
1.0684436e-05
1.9675169e-06
1.1078417e-06
1.0784361e-05
1.7855476e-06
1.0969082e-06
1.0871432e-05
1.5137178e-06
1.0839201e-06
1.1006167e-05
1.0726684e-06
1.0726683e-06
1.1243876e-05
4.259841e-07
1.0430866e-06
1.1703793e-05
8.8477366e-07
1.2390743e-05
1.5444374e-06
4.5958486e-07
7.224647e-06
1.9715255e-06
4.9265901e-07
1.0417386e-05
2.0400735e-06
4.7538529e-07
1.101217e-05
1.9898953e-06
4.6280276e-07
1.1182513e-05
1.8829386e-06
4.5218742e-07
1.1259446e-05
1.719842e-06
4.4339505e-07
1.1332608e-05
1.4688162e-06
4.3191777e-07
1.146022e-05
1.0430866e-06
4.2598407e-07
1.1703793e-05
3.987367e-07
3.9873667e-07
1.2199115e-05
3.352395e-07
1.2869972e-05
1.2412939e-06
8.7813086e-06
1.5206626e-06
1.1596949e-05
1.5591555e-06
1.1967187e-05
1.527816e-06
1.2048215e-05
1.4627524e-06
1.2079628e-05
1.3611907e-06
1.2116513e-05
1.1921877e-06
1.2200229e-05
8.8477372e-07
1.2390743e-05
3.3523953e-07
1.2869972e-05
1.3521253e-05
6.8610798e-07
6.8610799e-07
2.6740982e-06
1.0047284e-06
1.0316783e-06
4.6027957e-06
1.0907625e-06
1.12493e-06
5.0685458e-06
1.0749332e-06
1.1592353e-06
5.2188361e-06
1.0041375e-06
1.1784655e-06
5.2891989e-06
8.8056142e-07
1.1898632e-06
5.3673616e-06
6.8061662e-07
1.1990856e-06
5.5147308e-06
3.4072532e-07
1.1876171e-06
5.8545698e-06
-8.1280536e-08
1.1450715e-06
6.5015813e-06
8.0592491e-07
7.8941031e-06
1.0316783e-06
1.0047284e-06
4.6027957e-06
1.5148685e-06
1.5148684e-06
7.6698924e-06
1.6454264e-06
1.6608951e-06
8.4724523e-06
1.6099664e-06
1.718646e-06
8.7671622e-06
1.4841183e-06
1.7485583e-06
8.9213099e-06
1.2737403e-06
1.7640361e-06
9.0748717e-06
9.5584764e-07
1.7684102e-06
9.3171858e-06
4.4558685e-07
1.7400206e-06
9.7880853e-06
-1.1218006e-07
1.6265109e-06
1.0493713e-05
1.0975595e-06
1.1193134e-05
1.1249301e-06
1.0907626e-06
5.0685458e-06
1.6608951e-06
1.6454264e-06
8.4724523e-06
1.8035836e-06
1.8035836e-06
9.4234486e-06
1.756422e-06
1.8653598e-06
9.796388e-06
1.6041409e-06
1.8949998e-06
9.9969437e-06
1.3572319e-06
1.9074419e-06
1.0181655e-05
9.963755e-07
1.9037607e-06
1.0443074e-05
4.4357893e-07
1.8628669e-06
1.0906198e-05
-1.379423e-07
1.7201946e-06
1.1500008e-05
1.1458019e-06
1.1781003e-05
1.1592353e-06
1.0749332e-06
5.2188362e-06
1.718646e-06
1.6099664e-06
8.7671622e-06
1.8653598e-06
1.756422e-06
9.796388e-06
1.8101244e-06
1.8101244e-06
1.0212761e-05
1.6426486e-06
1.8330117e-06
1.0437633e-05
1.3769624e-06
1.8396674e-06
1.0633592e-05
9.9675553e-07
1.8302692e-06
1.0892074e-05
4.2942321e-07
1.7870486e-06
1.1327587e-05
-1.5396319e-07
1.6465792e-06
1.1839515e-05
1.1006797e-06
1.1939374e-05
1.1784655e-06
1.0041375e-06
5.289199e-06
1.7485583e-06
1.4841183e-06
8.9213099e-06
1.8949998e-06
1.6041409e-06
9.9969437e-06
1.8330117e-06
1.6426486e-06
1.0437633e-05
1.6553692e-06
1.6553692e-06
1.0674517e-05
1.378275e-06
1.6554331e-06
1.0873921e-05
9.8736612e-07
1.6428961e-06
1.1126443e-05
4.1357825e-07
1.6046967e-06
1.1540501e-05
-1.6755526e-07
1.4851234e-06
1.2002035e-05
1.0059122e-06
1.200684e-05
1.1898632e-06
8.8056141e-07
5.3673617e-06
1.7640362e-06
1.2737403e-06
9.0748718e-06
1.9074419e-06
1.3572319e-06
1.0181655e-05
1.8396674e-06
1.3769624e-06
1.0633592e-05
1.6554331e-06
1.378275e-06
1.0873921e-05
1.3717429e-06
1.3717429e-06
1.1073335e-05
9.7503403e-07
1.3572949e-06
1.1322442e-05
3.9818655e-07
1.3276711e-06
1.1725305e-05
-1.7894644e-07
1.2390689e-06
1.2155796e-05
8.5829194e-07
1.2085186e-05
1.1990856e-06
6.806166e-07
5.5147309e-06
1.7684102e-06
9.5584765e-07
9.3171858e-06
1.9037607e-06
9.9637551e-07
1.0443074e-05
1.8302692e-06
9.9675554e-07
1.0892074e-05
1.6428961e-06
9.8736612e-07
1.1126443e-05
1.3572949e-06
9.7503404e-07
1.1322442e-05
9.5877637e-07
9.5877637e-07
1.157154e-05
3.7997715e-07
9.380171e-07
1.197462e-05
-1.9379207e-07
8.8279961e-07
1.2390259e-05
6.2880753e-07
1.2235922e-05
1.1876171e-06
3.407253e-07
5.8545699e-06
1.7400206e-06
4.4558685e-07
9.7880853e-06
1.8628669e-06
4.4357893e-07
1.0906198e-05
1.7870486e-06
4.2942322e-07
1.1327587e-05
1.6046967e-06
4.1357826e-07
1.1540501e-05
1.3276711e-06
3.9818656e-07
1.1725305e-05
9.380171e-07
3.7997716e-07
1.197462e-05
3.6511947e-07
3.6511948e-07
1.2389671e-05
-2.0055463e-07
3.3520419e-07
1.2817062e-05
2.5043732e-07
1.2568558e-05
1.1450715e-06
-8.1280551e-08
6.5015813e-06
1.6265109e-06
-1.1218006e-07
1.0493713e-05
1.7201946e-06
-1.3794229e-07
1.1500008e-05
1.6465792e-06
-1.5396318e-07
1.1839515e-05
1.4851234e-06
-1.6755524e-07
1.2002035e-05
1.2390689e-06
-1.7894643e-07
1.2155796e-05
8.8279961e-07
-1.9379206e-07
1.2390259e-05
3.3520418e-07
-2.0055463e-07
1.2817062e-05
-2.2538963e-07
-2.2538963e-07
1.3320302e-05
-2.0012486e-07
1.3095145e-05
8.0592489e-07
7.8941031e-06
1.0975595e-06
1.1193134e-05
1.1458018e-06
1.1781003e-05
1.1006797e-06
1.1939374e-05
1.0059122e-06
1.200684e-05
8.5829194e-07
1.2085186e-05
6.2880755e-07
1.2235922e-05
2.5043734e-07
1.2568558e-05
-2.0012485e-07
1.3095145e-05
1.3121003e-05
4.2699657e-07
4.2699659e-07
1.820105e-06
6.9641982e-07
7.332219e-07
3.6001505e-06
7.7672603e-07
8.3198067e-07
4.1562589e-06
7.530225e-07
8.7096698e-07
4.3715727e-06
6.6495913e-07
8.9292424e-07
4.4843381e-06
5.1547964e-07
9.0561835e-07
4.6112228e-06
2.8779988e-07
9.1518896e-07
4.8272216e-06
-5.2080296e-08
9.0075764e-07
5.2936924e-06
-3.673357e-07
8.5132509e-07
5.9655116e-06
5.2669244e-07
7.000075e-06
7.332219e-07
6.9641984e-07
3.6001505e-06
1.1909592e-06
1.1909592e-06
6.7544178e-06
1.3272868e-06
1.3569969e-06
7.8111084e-06
1.2787532e-06
1.4261434e-06
8.2605194e-06
1.1182093e-06
1.4621429e-06
8.5126351e-06
8.5569476e-07
1.4804523e-06
8.7625523e-06
4.8146783e-07
1.4846876e-06
9.1219141e-06
-4.6527923e-08
1.4492701e-06
9.7675686e-06
-4.6572301e-07
1.3179028e-06
1.044633e-05
7.9295482e-07
1.0461149e-05
8.3198068e-07
7.7672604e-07
4.1562589e-06
1.3569969e-06
1.3272868e-06
7.8111084e-06
1.5116111e-06
1.5116111e-06
9.1142203e-06
1.4488923e-06
1.5874726e-06
9.6977776e-06
1.2536564e-06
1.6241744e-06
1.0030148e-05
9.4312915e-07
1.6394413e-06
1.0333193e-05
5.145911e-07
1.6343989e-06
1.07219e-05
-6.2621902e-08
1.5837456e-06
1.1348936e-05
-5.0098288e-07
1.4168129e-06
1.1839458e-05
8.3896535e-07
1.1234009e-05
8.7096699e-07
7.5302251e-07
4.3715727e-06
1.4261434e-06
1.2787532e-06
8.2605194e-06
1.5874726e-06
1.4488923e-06
9.6977776e-06
1.515127e-06
1.515127e-06
1.0357452e-05
1.3003893e-06
1.5437868e-06
1.0732758e-05
9.6565014e-07
1.552131e-06
1.1055642e-05
5.1306554e-07
1.5403019e-06
1.1438755e-05
-8.0607961e-08
1.4870838e-06
1.2017922e-05
-5.1912474e-07
1.3238693e-06
1.2370976e-05
7.8310336e-07
1.1476111e-05
8.9292425e-07
6.6495913e-07
4.4843381e-06
1.4621429e-06
1.1182093e-06
8.5126351e-06
1.6241744e-06
1.2536564e-06
1.0030148e-05
1.5437868e-06
1.3003893e-06
1.0732758e-05
1.3162405e-06
1.3162405e-06
1.112961e-05
9.6708258e-07
1.3163539e-06
1.1458856e-05
5.0145681e-07
1.3007976e-06
1.1831573e-05
-9.925392e-08
1.2545123e-06
1.2373783e-05
-5.3408568e-07
1.1196046e-06
1.2641131e-05
6.6662716e-07
1.1589231e-05
9.0561837e-07
5.1547963e-07
4.6112228e-06
1.4804523e-06
8.5569477e-07
8.7625523e-06
1.6394413e-06
9.4312916e-07
1.0333193e-05
1.552131e-06
9.6565015e-07
1.1055642e-05
1.3163539e-06
9.6708258e-07
1.1458856e-05
9.5895524e-07
9.5895525e-07
1.1788132e-05
4.8637747e-07
9.4125638e-07
1.215456e-05
-1.1739403e-07
9.0657215e-07
1.2677016e-05
-5.4670963e-07
8.1326045e-07
1.2891456e-05
4.8863835e-07
1.1716466e-05
9.1518897e-07
2.8779987e-07
4.8272217e-06
1.4846876e-06
4.8146784e-07
9.1219141e-06
1.6343989e-06
5.1459111e-07
1.07219e-05
1.5403019e-06
5.1306555e-07
1.1438755e-05
1.3007976e-06
5.0145681e-07
1.1831573e-05
9.4125637e-07
4.8637748e-07
1.215456e-05
4.6681356e-07
4.6681357e-07
1.2520426e-05
-1.385629e-07
4.43857e-07
1.3042711e-05
-5.6311396e-07
3.9428273e-07
1.3233788e-05
2.2849093e-07
1.1932955e-05
9.0075764e-07
-5.2080316e-08
5.2936924e-06
1.4492701e-06
-4.6527913e-08
9.7675686e-06
1.5837456e-06
-6.2621891e-08
1.1348936e-05
1.4870838e-06
-8.060795e-08
1.2017922e-05
1.2545123e-06
-9.9253908e-08
1.2373783e-05
9.0657214e-07
-1.1739401e-07
1.2677016e-05
4.4385699e-07
-1.3856289e-07
1.3042711e-05
-1.5373533e-07
-1.5373531e-07
1.3584856e-05
-5.693197e-07
-1.7154074e-07
1.379847e-05
-1.4628203e-07
1.2374012e-05
8.5132509e-07
-3.6733571e-07
5.9655116e-06
1.3179028e-06
-4.65723e-07
1.044633e-05
1.4168129e-06
-5.0098287e-07
1.1839458e-05
1.3238693e-06
-5.1912472e-07
1.2370975e-05
1.1196046e-06
-5.3408566e-07
1.2641131e-05
8.1326044e-07
-5.4670961e-07
1.2891456e-05
3.9428271e-07
-5.6311395e-07
1.3233788e-05
-1.7154075e-07
-5.6931969e-07
1.379847e-05
-5.8309058e-07
-5.8309058e-07
1.4143402e-05
-4.6613973e-07
1.2831912e-05
5.2669242e-07
7.000075e-06
7.929548e-07
1.0461149e-05
8.3896533e-07
1.1234009e-05
7.8310335e-07
1.1476111e-05
6.6662716e-07
1.1589231e-05
4.8863836e-07
1.1716466e-05
2.2849095e-07
1.1932955e-05
-1.4628202e-07
1.2374012e-05
-4.6613971e-07
1.2831912e-05
1.2188724e-05
2.6631812e-07
2.6631815e-07
1.2874687e-06
4.786868e-07
5.178408e-07
2.869941e-06
5.4416218e-07
6.1244229e-07
3.4783412e-06
5.1189803e-07
6.5259918e-07
3.7512377e-06
4.1148375e-07
6.7556522e-07
3.9091871e-06
2.4751091e-07
6.8865814e-07
4.0865375e-06
1.2804516e-08
6.9809216e-07
4.3638359e-06
-2.9127584e-07
6.8249184e-07
4.9152809e-06
-4.9896946e-07
6.3285852e-07
5.5403467e-06
3.4745089e-07
6.1536546e-06
5.178408e-07
4.7868683e-07
2.869941e-06
9.162321e-07
9.1623209e-07
5.9576352e-06
1.040395e-06
1.084824e-06
7.2145638e-06
9.7779907e-07
1.1592207e-06
7.8164938e-06
7.9090487e-07
1.1985244e-06
8.1765701e-06
4.9510098e-07
1.2183585e-06
8.5286559e-06
9.8356865e-08
1.2223475e-06
8.9944029e-06
-3.8795563e-07
1.1834873e-06
9.7528856e-06
-6.5256011e-07
1.0488591e-06
1.0294934e-05
5.7223241e-07
9.5838075e-06
6.124423e-07
5.441622e-07
3.4783413e-06
1.084824e-06
1.040395e-06
7.2145638e-06
1.2312049e-06
1.2312049e-06
8.8214586e-06
1.1522433e-06
1.314494e-06
9.6214659e-06
9.2386533e-07
1.3555265e-06
1.0101524e-05
5.7119312e-07
1.3726347e-06
1.0531589e-05
1.1288702e-07
1.3668874e-06
1.1035666e-05
-4.2349695e-07
1.311363e-06
1.1757444e-05
-6.9763651e-07
1.1382883e-06
1.2024169e-05
6.0890987e-07
1.0499695e-05
6.5259919e-07
5.1189804e-07
3.7512377e-06
1.1592207e-06
9.7779906e-07
7.8164939e-06
1.314494e-06
1.1522433e-06
9.6214659e-06
1.2248118e-06
1.2248118e-06
1.0536816e-05
9.7353996e-07
1.2570153e-06
1.1082541e-05
5.9252453e-07
1.2665522e-06
1.154274e-05
1.0717489e-07
1.2534995e-06
1.2037493e-05
-4.4581497e-07
1.1956267e-06
1.2686648e-05
-7.1740882e-07
1.0283802e-06
1.2752478e-05
5.4415282e-07
1.0823459e-05
6.7556524e-07
4.1148375e-07
3.9091872e-06
1.1985244e-06
7.9090487e-07
8.1765701e-06
1.3555265e-06
9.2386533e-07
1.0101524e-05
1.2570154e-06
9.7353996e-07
1.1082541e-05
9.9098224e-07
9.9098224e-07
1.1661676e-05
5.9335899e-07
9.911444e-07
1.2131888e-05
9.354315e-08
9.7409711e-07
1.2610791e-05
-4.6637173e-07
9.2496242e-07
1.3204362e-05
-7.3286733e-07
7.9249387e-07
1.3143513e-05
4.1288436e-07
1.0987632e-05
6.8865816e-07
2.475109e-07
4.0865375e-06
1.2183585e-06
4.9510099e-07
8.5286559e-06
1.3726347e-06
5.7119313e-07
1.0531589e-05
1.2665522e-06
5.9252453e-07
1.154274e-05
9.911444e-07
5.93359e-07
1.2131888e-05
5.8412949e-07
5.8412949e-07
1.2602162e-05
7.6694683e-08
5.6489398e-07
1.3071198e-05
-4.8602539e-07
5.2988969e-07
1.3634809e-05
-7.4587773e-07
4.4755013e-07
1.3496252e-05
2.1794237e-07
1.116553e-05
6.9809217e-07
1.2804495e-08
4.3638359e-06
1.2223475e-06
9.8356879e-08
8.9944029e-06
1.3668874e-06
1.1288703e-07
1.1035667e-05
1.2534995e-06
1.071749e-07
1.2037493e-05
9.7409711e-07
9.3543158e-08
1.2610791e-05
5.6489398e-07
7.6694691e-08
1.3071198e-05
5.5676432e-08
5.567644e-08
1.3538861e-05
-5.083298e-07
3.4487158e-08
1.410212e-05
-7.6264025e-07
3.1135945e-09
1.3932535e-05
-4.9660138e-08
1.1437917e-05
6.8249185e-07
-2.9127586e-07
4.9152809e-06
1.1834873e-06
-3.8795561e-07
9.7528856e-06
1.311363e-06
-4.2349694e-07
1.1757444e-05
1.1956267e-06
-4.4581496e-07
1.2686648e-05
9.2496242e-07
-4.6637172e-07
1.3204362e-05
5.2988969e-07
-4.8602537e-07
1.3634809e-05
3.4487148e-08
-5.0832979e-07
1.410212e-05
-5.2100509e-07
-5.2100507e-07
1.469584e-05
-7.6720688e-07
-5.1888468e-07
1.456667e-05
-3.8330536e-07
1.194045e-05
6.3285852e-07
-4.9896948e-07
5.5403467e-06
1.0488591e-06
-6.5256011e-07
1.0294934e-05
1.1382884e-06
-6.976365e-07
1.2024169e-05
1.0283802e-06
-7.1740879e-07
1.2752477e-05
7.9249387e-07
-7.328673e-07
1.3143513e-05
4.4755012e-07
-7.458777e-07
1.3496252e-05
3.1135819e-09
-7.6264023e-07
1.3932535e-05
-5.1888469e-07
-7.6720687e-07
1.456667e-05
-7.6692069e-07
-7.6692068e-07
1.4639474e-05
-5.7964581e-07
1.2261332e-05
3.4745086e-07
6.1536546e-06
5.7223239e-07
9.5838075e-06
6.0890985e-07
1.0499695e-05
5.4415281e-07
1.0823459e-05
4.1288436e-07
1.0987632e-05
2.1794238e-07
1.116553e-05
-4.966012e-08
1.1437917e-05
-3.8330534e-07
1.194045e-05
-5.7964579e-07
1.2261332e-05
1.1029432e-05
1.6483552e-07
1.6483555e-07
9.5779765e-07
3.2319576e-07
3.6111173e-07
2.3504691e-06
3.7024258e-07
4.4578381e-07
2.9855106e-06
3.2947198e-07
4.8445098e-07
3.3075573e-06
2.2116557e-07
5.0710946e-07
3.5103841e-06
5.2244628e-08
5.1998833e-07
3.7354701e-06
-1.74421e-07
5.2913169e-07
4.0613698e-06
-4.2650039e-07
5.1399328e-07
4.653367e-06
-5.3862143e-07
4.6920881e-07
5.183259e-06
2.3192321e-07
5.38311e-06
3.6111173e-07
3.2319579e-07
2.3504691e-06
6.8651931e-07
6.865193e-07
5.3068201e-06
7.8721144e-07
8.4489148e-07
6.714764e-06
7.0998355e-07
9.1924014e-07
7.4589326e-06
5.0475127e-07
9.5944273e-07
7.9294691e-06
1.9280873e-07
9.7980496e-07
8.3807818e-06
-1.9926567e-07
9.8380351e-07
8.9318054e-06
-6.1176212e-07
9.4506912e-07
9.7343062e-06
-7.3021295e-07
8.1856166e-07
1.0064032e-05
4.1105548e-07
8.6744623e-06
4.4578383e-07
3.7024261e-07
2.9855106e-06
8.4489149e-07
7.8721142e-07
6.714764e-06
9.6884145e-07
9.6884144e-07
8.5735587e-06
8.7297688e-07
1.053314e-06
9.5832566e-06
6.2096629e-07
1.0960771e-06
1.02169e-05
2.4614251e-07
1.1141982e-06
1.077202e-05
-2.1059551e-07
1.1086319e-06
1.1367576e-05
-6.6881829e-07
1.0530894e-06
1.2107646e-05
-7.841207e-07
8.886132e-07
1.206942e-05
4.3466783e-07
9.6919622e-06
4.84451e-07
3.2947199e-07
3.3075573e-06
9.1924015e-07
7.0998354e-07
7.4589326e-06
1.053314e-06
8.7297687e-07
9.5832566e-06
9.4583825e-07
9.4583824e-07
1.0751768e-05
6.683928e-07
9.7932473e-07
1.1476739e-05
2.6241453e-07
9.8961048e-07
1.2073306e-05
-2.2270208e-07
9.7669449e-07
1.2654547e-05
-6.9593926e-07
9.1947338e-07
1.3293502e-05
-8.0521953e-07
7.6352261e-07
1.2986848e-05
3.6241871e-07
1.0090489e-05
5.0710948e-07
2.2116557e-07
3.5103841e-06
9.5944274e-07
5.0475128e-07
7.9294691e-06
1.0960771e-06
6.2096629e-07
1.02169e-05
9.7932474e-07
6.683928e-07
1.1476739e-05
6.8577498e-07
6.8577498e-07
1.2248776e-05
2.6176714e-07
6.8597628e-07
1.285953e-05
-2.3842128e-07
6.6906019e-07
1.3418614e-05
-7.177977e-07
6.2220384e-07
1.3981008e-05
-8.2062104e-07
5.0635242e-07
1.3503507e-05
2.2224724e-07
1.0307182e-05
5.1998835e-07
5.2244615e-08
3.7354701e-06
9.7980497e-07
1.9280874e-07
8.3807818e-06
1.1141982e-06
2.4614252e-07
1.077202e-05
9.8961049e-07
2.6241454e-07
1.2073306e-05
6.8597628e-07
2.6176714e-07
1.285953e-05
2.518585e-07
2.5185851e-07
1.3470398e-05
-2.5623821e-07
2.3281036e-07
1.4015545e-05
-7.3796072e-07
2.0196656e-07
1.4536769e-05
-8.33417e-07
1.4228294e-07
1.3955777e-05
2.1330205e-08
1.053303e-05
5.2913171e-07
-1.7442102e-07
4.0613698e-06
9.8380352e-07
-1.9926565e-07
8.9318054e-06
1.1086319e-06
-2.105955e-07
1.1367576e-05
9.7669449e-07
-2.2270207e-07
1.2654547e-05
6.6906019e-07
-2.3842127e-07
1.3418614e-05
2.3281035e-07
-2.562382e-07
1.4015545e-05
-2.7700761e-07
-2.770076e-07
1.4558497e-05
-7.5985138e-07
-2.9297413e-07
1.5079905e-05
-8.4964247e-07
-2.982239e-07
1.4462833e-05
-2.371882e-07
1.0846793e-05
5.1399329e-07
-4.2650042e-07
4.653367e-06
9.4506913e-07
-6.1176211e-07
9.7343062e-06
1.0530895e-06
-6.6881827e-07
1.2107646e-05
9.1947339e-07
-6.9593924e-07
1.3293502e-05
6.2220384e-07
-7.1779768e-07
1.3981008e-05
2.0196656e-07
-7.3796071e-07
1.4536769e-05
-2.9297415e-07
-7.5985137e-07
1.5079905e-05
-7.6783718e-07
-7.6783717e-07
1.5645566e-05
-8.5190517e-07
-7.4233168e-07
1.5094846e-05
-5.134538e-07
1.1364811e-05
4.6920881e-07
-5.3862146e-07
5.183259e-06
8.1856167e-07
-7.3021294e-07
1.0064032e-05
8.8861322e-07
-7.8412068e-07
1.206942e-05
7.6352262e-07
-8.052195e-07
1.2986848e-05
5.0635241e-07
-8.2062101e-07
1.3503507e-05
1.4228293e-07
-8.3341697e-07
1.3955777e-05
-2.9822392e-07
-8.4964245e-07
1.4462833e-05
-7.4233169e-07
-8.5190516e-07
1.5094846e-05
-8.3784404e-07
-8.3784404e-07
1.4830499e-05
-6.0560724e-07
1.1515641e-05
2.3192318e-07
5.38311e-06
4.1105545e-07
8.6744622e-06
4.3466781e-07
9.6919622e-06
3.624187e-07
1.0090489e-05
2.2224724e-07
1.0307182e-05
2.1330217e-08
1.053303e-05
-2.3718818e-07
1.0846793e-05
-5.1345377e-07
1.136481e-05
-6.0560722e-07
1.1515641e-05
9.8182176e-06
9.9468507e-08
9.9468538e-08
7.5886061e-07
2.1090778e-07
2.4610222e-07
1.9929276e-06
2.3894376e-07
3.1795083e-07
2.6395238e-06
1.9037303e-07
3.532827e-07
3.0028453e-06
7.8158388e-08
3.746777e-07
3.247921e-06
-8.8074832e-08
3.8695256e-07
3.5147507e-06
-2.9630194e-07
3.9583995e-07
3.8737569e-06
-4.914915e-07
3.8252763e-07
4.4660289e-06
-5.2565171e-07
3.4576862e-07
4.8716505e-06
1.5678951e-07
4.7006688e-06
2.4610222e-07
2.1090781e-07
1.9929276e-06
4.9666764e-07
4.9666763e-07
4.8056893e-06
5.6767303e-07
6.3644626e-07
6.3252632e-06
4.7603265e-07
7.0651709e-07
7.1973385e-06
2.5992134e-07
7.456338e-07
7.7746243e-06
-5.3462344e-08
7.6579422e-07
8.3153238e-06
-4.2060702e-07
7.7025004e-07
8.92454e-06
-7.4488459e-07
7.3478496e-07
9.7063264e-06
-7.3852021e-07
6.2429719e-07
9.7791393e-06
2.9245258e-07
7.800279e-06
3.1795085e-07
2.3894379e-07
2.6395238e-06
6.3644627e-07
5.6767301e-07
6.3252632e-06
7.2887223e-07
7.2887222e-07
8.3887068e-06
6.160438e-07
8.0914984e-07
9.5934523e-06
3.4932733e-07
8.5130512e-07
1.0377945e-05
-3.0121984e-08
8.6976772e-07
1.1047496e-05
-4.6119903e-07
8.6535765e-07
1.1703546e-05
-8.229641e-07
8.1415037e-07
1.2390046e-05
-7.9948795e-07
6.6909328e-07
1.2001147e-05
3.0151586e-07
8.883411e-06
3.5328272e-07
1.9037305e-07
3.0028454e-06
7.0651711e-07
4.7603264e-07
7.1973386e-06
8.0914985e-07
6.1604379e-07
9.5934523e-06
6.8383611e-07
6.838361e-07
1.1002395e-05
3.8991642e-07
7.164671e-07
1.1905497e-05
-2.2223032e-08
7.2711967e-07
1.2628093e-05
-4.8146393e-07
7.1571516e-07
1.326343e-05
-8.5527927e-07
6.6392012e-07
1.3817547e-05
-8.2171822e-07
5.3057846e-07
1.3091802e-05
2.2306517e-07
9.3472213e-06
3.7467772e-07
7.8158386e-08
3.2479211e-06
7.4563382e-07
2.5992134e-07
7.7746243e-06
8.5130513e-07
3.4932733e-07
1.0377945e-05
7.1646711e-07
3.8991642e-07
1.1905497e-05
4.056241e-07
4.056241e-07
1.2870462e-05
-2.5267781e-08
4.0584792e-07
1.3611693e-05
-4.9946351e-07
3.9063657e-07
1.4217888e-05
-8.7814283e-07
3.5058887e-07
1.4673019e-05
-8.3676374e-07
2.6139113e-07
1.3731315e-05
7.8928029e-08
9.6145559e-06
3.8695259e-07
-8.8074846e-08
3.5147508e-06
7.6579423e-07
-5.346233e-08
8.3153239e-06
8.6976773e-07
-3.0121974e-08
1.1047496e-05
7.2711968e-07
-2.2223025e-08
1.2628093e-05
4.0584792e-07
-2.5267774e-08
1.3611693e-05
-3.5502922e-08
-3.5502915e-08
1.4353099e-05
-5.1760405e-07
-5.2760433e-08
1.4941043e-05
-8.9810915e-07
-7.5657901e-08
1.5343521e-05
-8.4896551e-07
-1.0528369e-07
1.4273309e-05
-1.1935265e-07
9.8823451e-06
3.9583997e-07
-2.9630196e-07
3.873757e-06
7.7025005e-07
-4.20607e-07
8.92454e-06
8.6535767e-07
-4.6119902e-07
1.1703546e-05
7.1571517e-07
-4.8146391e-07
1.326343e-05
3.9063657e-07
-4.994635e-07
1.4217888e-05
-5.2760441e-08
-5.1760403e-07
1.4941043e-05
-5.3663191e-07
-5.366319e-07
1.552624e-05
-9.1839813e-07
-5.4467006e-07
1.5930683e-05
-8.6405868e-07
-5.1993094e-07
1.482314e-05
-3.5783265e-07
1.0221215e-05
3.8252764e-07
-4.9149153e-07
4.466029e-06
7.3478497e-07
-7.4488458e-07
9.7063264e-06
8.1415038e-07
-8.2296408e-07
1.2390046e-05
6.6392013e-07
-8.5527925e-07
1.3817547e-05
3.5058887e-07
-8.781428e-07
1.4673019e-05
-7.5657912e-08
-8.9810913e-07
1.5343521e-05
-5.4467008e-07
-9.1839811e-07
1.5930683e-05
-9.202843e-07
-9.2028428e-07
1.6396795e-05
-8.6375225e-07
-8.7141038e-07
1.5389793e-05
-5.7263813e-07
1.0715864e-05
3.4576862e-07
-5.2565173e-07
4.8716505e-06
6.242972e-07
-7.385202e-07
9.7791393e-06
6.6909329e-07
-7.9948793e-07
1.2001147e-05
5.3057847e-07
-8.217182e-07
1.3091802e-05
2.6139113e-07
-8.3676371e-07
1.3731315e-05
-1.052837e-07
-8.4896548e-07
1.4273308e-05
-5.1993096e-07
-8.6405866e-07
1.482314e-05
-8.714104e-07
-8.6375223e-07
1.5389793e-05
-8.3794689e-07
-8.3794689e-07
1.4763572e-05
-5.8311556e-07
1.0688172e-05
1.5678948e-07
4.7006688e-06
2.9245255e-07
7.800279e-06
3.0151584e-07
8.883411e-06
2.2306516e-07
9.3472212e-06
7.8928029e-08
9.6145559e-06
-1.1935264e-07
9.882345e-06
-3.5783263e-07
1.0221215e-05
-5.726381e-07
1.0715864e-05
-5.8311554e-07
1.0688172e-05
8.6519865e-06
5.6355509e-08
5.6355543e-08
6.4614956e-07
1.2891909e-07
1.6100781e-07
1.7593562e-06
1.3906624e-07
2.1912892e-07
2.4102477e-06
8.3877477e-08
2.4998738e-07
2.8080467e-06
-2.8775091e-08
2.6947521e-07
3.0910984e-06
-1.8653924e-07
2.8092372e-07
3.3915912e-06
-3.6998228e-07
2.8967733e-07
3.7675227e-06
-5.1014829e-07
2.7919319e-07
4.3270017e-06
-4.8485454e-07
2.5202251e-07
4.5943343e-06
1.0729505e-07
4.1085192e-06
1.6100781e-07
1.2891912e-07
1.7593562e-06
3.4133935e-07
3.4133934e-07
4.4450262e-06
3.8029813e-07
4.5784757e-07
6.0475858e-06
2.7530795e-07
5.2054849e-07
7.0317676e-06
5.5038657e-08
5.5703635e-07
7.7073324e-06
-2.4789231e-07
5.7648914e-07
8.3226893e-06
-5.7636833e-07
5.8190622e-07
8.9607871e-06
-8.1023722e-07
5.5219656e-07
9.6671919e-06
-7.0515122e-07
4.6245304e-07
9.4636228e-06
2.045441e-07
6.9978787e-06
2.1912893e-07
1.3906626e-07
2.4102477e-06
4.5784759e-07
3.8029811e-07
6.0475858e-06
5.1394421e-07
5.1394419e-07
8.2765136e-06
3.8491409e-07
5.8577763e-07
9.6572533e-06
1.1160426e-07
6.2535055e-07
1.0582941e-05
-2.579341e-07
6.4363426e-07
1.1349889e-05
-6.4638057e-07
6.4131921e-07
1.2032579e-05
-9.0695506e-07
5.9799522e-07
1.2604822e-05
-7.710444e-07
4.7938557e-07
1.1848304e-05
1.9910487e-07
8.1178058e-06
2.499874e-07
8.387749e-08
2.8080467e-06
5.2054851e-07
2.7530793e-07
7.0317677e-06
5.8577765e-07
3.8491407e-07
9.6572533e-06
4.4329332e-07
4.4329331e-07
1.1287364e-05
1.4169866e-07
4.7318606e-07
1.2359256e-05
-2.6087454e-07
4.8388979e-07
1.3190411e-05
-6.7592846e-07
4.7526019e-07
1.3844543e-05
-9.4456705e-07
4.3279733e-07
1.4251384e-05
-7.9422667e-07
3.2942716e-07
1.309142e-05
1.1576571e-07
8.6363338e-06
2.6947524e-07
-2.8775093e-08
3.0910984e-06
5.5703637e-07