/*--------------------------------*- C++ -*----------------------------------*\
| =========                 |                                                 |
| \\      /  F ield         | OpenFOAM: The Open Source CFD Toolbox           |
|  \\    /   O peration     | Version:  dev                                   |
|   \\  /    A nd           | Web:      www.OpenFOAM.org                      |
|    \\/     M anipulation  |                                                 |
\*---------------------------------------------------------------------------*/
FoamFile
{
    version     2.0;
    format      ascii;
    class       volVectorField;
    location    "6";
    object      U;
}
// * * * * * * * * * * * * * * * * * * * * * * * * * * * * * * * * * * * * * //

dimensions      [0 1 -1 0 0 0 0];

internalField   nonuniform List<vector> 
10000
(
(0.069651429 0.069651431 0.078660549)
(0.07882328 0.076121251 0.087571713)
(0.082505723 0.076882811 0.088116653)
(0.082682493 0.077076362 0.088136134)
(0.082198738 0.077201254 0.088149848)
(0.081265929 0.077282075 0.088150364)
(0.079375695 0.077392583 0.088225204)
(0.076872411 0.077320069 0.088237901)
(0.065137962 0.077376358 0.089630394)
(0.062474084 0.072578513 0.094585592)
(0.076121249 0.078823284 0.087571714)
(0.087488716 0.087488721 0.098446591)
(0.09190032 0.089058964 0.099169898)
(0.091957787 0.08964049 0.099235968)
(0.091105848 0.089963025 0.09928186)
(0.089608525 0.090162927 0.099307335)
(0.086819668 0.090310714 0.099428504)
(0.083135721 0.090187304 0.099481844)
(0.068685468 0.089278914 0.10102773)
(0.064271472 0.080696876 0.10533104)
(0.076882809 0.082505728 0.088116655)
(0.08905896 0.091900325 0.099169899)
(0.093562668 0.093562674 0.099898463)
(0.093536796 0.094188465 0.09997368)
(0.092487513 0.094510012 0.10002542)
(0.090721747 0.094667895 0.10005276)
(0.087561347 0.094689678 0.10017749)
(0.083489568 0.094347586 0.10022061)
(0.068472928 0.092967434 0.10175388)
(0.064034525 0.083456371 0.10586937)
(0.077076361 0.082682497 0.088136137)
(0.089640486 0.091957791 0.09923597)
(0.09418846 0.0935368 0.099973681)
(0.094105604 0.094105608 0.10005591)
(0.09292817 0.094370698 0.10011143)
(0.091003278 0.094471075 0.10014017)
(0.087649105 0.09441337 0.10026575)
(0.083396805 0.094006756 0.10030315)
(0.068203084 0.092532518 0.10182535)
(0.063904279 0.083143195 0.10588039)
(0.077201252 0.082198739 0.08814985)
(0.08996302 0.09110585 0.099281862)
(0.094510006 0.092487514 0.10002542)
(0.094370693 0.092928171 0.10011143)
(0.093098599 0.093098601 0.10016827)
(0.091067024 0.093131179 0.10019689)
(0.087593764 0.09302706 0.10032166)
(0.083240529 0.092636599 0.10035387)
(0.067972649 0.091280393 0.10186927)
(0.063792676 0.082351991 0.10588944)
(0.077282073 0.081265927 0.088150366)
(0.090162923 0.089608523 0.099307338)
(0.094667889 0.090721745 0.10005276)
(0.094471071 0.091003276 0.10014017)
(0.093131178 0.091067022 0.10019689)
(0.091034459 0.091034457 0.1002255)
(0.087493412 0.090905423 0.10035039)
(0.08308282 0.09057626 0.1003812)
(0.067773021 0.089434265 0.10189472)
(0.063711931 0.081170109 0.10589002)
(0.077392581 0.079375691 0.088225206)
(0.090310709 0.086819663 0.099428505)
(0.094689673 0.087561343 0.10017749)
(0.094413366 0.087649101 0.10026575)
(0.093027058 0.08759376 0.10032165)
(0.090905425 0.087493407 0.10035039)
(0.087342301 0.087342297 0.10047559)
(0.082896784 0.087094395 0.10050695)
(0.067533984 0.086244135 0.10201789)
(0.063588295 0.078970698 0.10596979)
(0.077320067 0.076872406 0.088237903)
(0.090187299 0.083135715 0.099481844)
(0.094347581 0.083489563 0.10022061)
(0.094006752 0.0833968 0.10030315)
(0.092636597 0.083240524 0.10035387)
(0.090576262 0.083082814 0.10038119)
(0.087094399 0.082896779 0.10050695)
(0.082707344 0.082707338 0.10054269)
(0.067345995 0.082066696 0.10206574)
(0.063597078 0.075974819 0.10599086)
(0.077376356 0.065137958 0.089630395)
(0.08927891 0.068685463 0.10102773)
(0.092967429 0.068472923 0.10175388)
(0.092532515 0.06820308 0.10182535)
(0.091280391 0.067972645 0.10186927)
(0.089434267 0.067773017 0.10189472)
(0.086244139 0.067533979 0.10201789)
(0.082066702 0.067345991 0.10206574)
(0.066891239 0.066891235 0.10360853)
(0.06300969 0.063306439 0.10738965)
(0.072578511 0.062474083 0.094585591)
(0.080696872 0.06427147 0.10533104)
(0.083456366 0.064034523 0.10586937)
(0.083143192 0.063904277 0.10588039)
(0.082351989 0.063792675 0.10588944)
(0.081170111 0.063711929 0.10589002)
(0.078970702 0.063588293 0.10596978)
(0.075974824 0.063597076 0.10599086)
(0.063306443 0.063009688 0.10738965)
(0.059576052 0.05957605 0.11051889)
(0.035786847 0.03578685 0.049578928)
(0.051822046 0.045814667 0.067359908)
(0.058020118 0.047464711 0.069791845)
(0.058426345 0.047901247 0.070318739)
(0.057215203 0.048170232 0.070517094)
(0.054861833 0.048334938 0.070720004)
(0.050314911 0.048562097 0.071221407)
(0.044468552 0.048373727 0.072432211)
(0.0236805 0.048503209 0.076608547)
(0.022960448 0.041181736 0.091284042)
(0.045814664 0.051822054 0.06735991)
(0.067577604 0.067577613 0.090919889)
(0.076099826 0.071342984 0.094426338)
(0.076408486 0.072764868 0.095345116)
(0.074200933 0.073536798 0.095766095)
(0.070204933 0.073997452 0.096173931)
(0.063079731 0.074292743 0.096975323)
(0.053973639 0.073875867 0.098643546)
(0.026729318 0.07147289 0.10336884)
(0.022965208 0.055541932 0.11561884)
(0.047464708 0.058020128 0.069791849)
(0.071342976 0.076099836 0.09442634)
(0.080386886 0.080386896 0.09828478)
(0.080565689 0.082022324 0.099385729)
(0.077837444 0.082844053 0.099914838)
(0.073082543 0.083235646 0.10039526)
(0.064924837 0.083254819 0.1012504)
(0.05476741 0.082311352 0.10290445)
(0.026173669 0.078666683 0.10735665)
(0.022393188 0.060117594 0.11823291)
(0.047901243 0.058426352 0.070318745)
(0.07276486 0.076408493 0.09534512)
(0.082022314 0.080565697 0.099385732)
(0.082091062 0.08209107 0.10058633)
(0.079034355 0.08278917 0.10117075)
(0.073849605 0.083046152 0.1016762)
(0.065177516 0.08287431 0.10252571)
(0.05456242 0.081761359 0.10411176)
(0.025580582 0.077861915 0.10835957)
(0.022124823 0.059507503 0.11872216)
(0.048170228 0.057215205 0.070517101)
(0.07353679 0.074200936 0.0957661)
(0.082844043 0.077837446 0.099914842)
(0.082789162 0.079034357 0.10117075)
(0.079493315 0.079493317 0.10178135)
(0.074028857 0.079578896 0.10229333)
(0.065050905 0.079292786 0.10312868)
(0.054190308 0.078228383 0.10466148)
(0.025061265 0.074664516 0.10878657)
(0.021895726 0.057576211 0.1188928)
(0.048334935 0.05486183 0.070720011)
(0.073997444 0.070204929 0.096173936)
(0.083235637 0.073082539 0.10039526)
(0.083046144 0.073849601 0.1016762)
(0.079578893 0.074028853 0.10229333)
(0.073945086 0.073945082 0.1028053)
(0.064795622 0.073599367 0.10363413)
(0.053800416 0.072711758 0.10514197)
(0.024602034 0.069778122 0.10919461)
(0.021731456 0.054618443 0.11909627)
(0.048562093 0.050314903 0.071221412)
(0.074292735 0.063079723 0.096975327)
(0.083254809 0.064924829 0.1012504)
(0.082874303 0.065177507 0.10252571)
(0.079292784 0.065050897 0.10312867)
(0.073599371 0.064795614 0.10363413)
(0.064401885 0.064401877 0.10446523)
(0.053337017 0.063747354 0.10597685)
(0.02405798 0.061659933 0.10999068)
(0.021465425 0.049347333 0.11962692)
(0.048373724 0.044468542 0.072432214)
(0.073875859 0.053973629 0.098643548)
(0.082311342 0.0547674 0.10290445)
(0.081761352 0.054562411 0.10411175)
(0.07822838 0.054190299 0.10466148)
(0.072711761 0.053800407 0.10514197)
(0.063747362 0.053337008 0.10597685)
(0.052858678 0.052858668 0.10752499)
(0.023650605 0.051435673 0.11157535)
(0.021486488 0.042477589 0.12087703)
(0.048503205 0.023680492 0.076608548)
(0.071472882 0.02672931 0.10336884)
(0.078666674 0.026173661 0.10735664)
(0.077861908 0.025580574 0.10835956)
(0.074664514 0.025061258 0.10878657)
(0.069778125 0.024602026 0.1091946)
(0.061659941 0.024057972 0.10999067)
(0.051435682 0.023650597 0.11157535)
(0.02285248 0.022852472 0.11581984)
(0.020279479 0.020039334 0.12487406)
(0.041181733 0.022960445 0.091284041)
(0.055541925 0.022965205 0.11561884)
(0.060117585 0.022393185 0.11823291)
(0.059507496 0.02212482 0.11872215)
(0.057576209 0.021895723 0.1188928)
(0.054618447 0.021731453 0.11909626)
(0.04934734 0.021465422 0.11962691)
(0.042477599 0.021486485 0.12087703)
(0.020039342 0.020279476 0.12487405)
(0.017607538 0.017607535 0.1330212)
(0.018421372 0.018421376 0.031567552)
(0.03410204 0.027443234 0.051688007)
(0.040642052 0.029355847 0.055766003)
(0.041095377 0.0299123 0.0569291)
(0.039326977 0.03025129 0.057435409)
(0.035929432 0.030451614 0.05798911)
(0.029631291 0.030728011 0.059112119)
(0.021935216 0.030475352 0.061781338)
(-0.00042260162 0.030534162 0.067864058)
(0.0029526892 0.022775401 0.083742771)
(0.02744323 0.03410205 0.051688009)
(0.05130498 0.05130499 0.081524259)
(0.061422079 0.056275989 0.088127989)
(0.061896982 0.058235318 0.090316497)
(0.05861345 0.059294059 0.091408643)
(0.052627747 0.059908372 0.092495609)
(0.042356164 0.060258161 0.094325005)
(0.029882581 0.059581906 0.098022998)
(-0.00065548227 0.056244049 0.10481604)
(0.0010717935 0.038395072 0.1154468)
(0.029355843 0.040642063 0.055766008)
(0.056275979 0.061422091 0.088127992)
(0.067402114 0.067402126 0.095760005)
(0.067773216 0.069773879 0.098480976)
(0.063709456 0.070959869 0.099887761)
(0.056536125 0.071513932 0.10118728)
(0.044677464 0.071507725 0.10315585)
(0.030645112 0.07009688 0.10681191)
(-0.0016635205 0.064947725 0.11283357)
(0.00029466616 0.043318307 0.12030543)
(0.029912296 0.041095385 0.056929107)
(0.058235308 0.061896991 0.090316503)
(0.069773867 0.067773225 0.098480979)
(0.070025393 0.070025402 0.10149405)
(0.065480907 0.071055832 0.10306364)
(0.0576542 0.071429674 0.10443831)
(0.045026229 0.071160262 0.10638819)
(0.030340493 0.069502713 0.10985584)
(-0.002450126 0.063978083 0.11531022)
(-3.7516801e-05 0.042558395 0.12148093)
(0.030251287 0.039326979 0.057435417)
(0.059294049 0.058613453 0.09140865)
(0.070959857 0.063709459 0.099887766)
(0.071055823 0.065480909 0.10306364)
(0.066166046 0.066166049 0.10471268)
(0.05792371 0.066293123 0.10610949)
(0.044849108 0.065863347 0.108019)
(0.029823309 0.064288456 0.11133977)
(-0.0031335572 0.059296745 0.1164481)
(-0.00031585634 0.039815837 0.12195103)
(0.03045161 0.035929428 0.057989118)
(0.059908362 0.052627742 0.092495616)
(0.07151392 0.05653612 0.10118729)
(0.071429665 0.057654195 0.10443831)
(0.06629312 0.057923706 0.10610949)
(0.05780145 0.057801446 0.10750632)
(0.044479713 0.057290375 0.10939386)
(0.02927315 0.055998849 0.11263977)
(-0.0037450207 0.05201981 0.1175362)
(-0.0005153456 0.035573524 0.12250604)
(0.030728007 0.029631282 0.059112125)
(0.060258151 0.042356154 0.094325009)
(0.071507714 0.044677454 0.10315586)
(0.071160253 0.04502622 0.10638819)
(0.065863344 0.044849098 0.108019)
(0.057290379 0.044479704 0.10939385)
(0.043908534 0.043908525 0.11128314)
(0.028621402 0.042986003 0.11453264)
(-0.0044628878 0.040344928 0.11932297)
(-0.00085051899 0.02829534 0.12366872)
(0.030475348 0.021935204 0.061781342)
(0.059581897 0.029882569 0.098023)
(0.070096869 0.030645101 0.10681191)
(0.069502704 0.030340482 0.10985584)
(0.064288453 0.029823298 0.11133977)
(0.055998853 0.029273139 0.11263977)
(0.042986013 0.028621391 0.11453264)
(0.027982175 0.027982164 0.11786775)
(-0.0049497271 0.026416494 0.12273655)
(-0.00081983537 0.019374594 0.12633136)
(0.030534158 -0.00042261088 0.067864059)
(0.05624404 -0.00065549178 0.10481604)
(0.064947714 -0.0016635296 0.11283357)
(0.063978074 -0.0024501347 0.11531022)
(0.059296742 -0.0031335657 0.11644809)
(0.052019814 -0.0037450293 0.11753619)
(0.040344937 -0.0044628967 0.11932296)
(0.026416506 -0.0049497362 0.12273655)
(-0.0055564387 -0.0055564479 0.12812348)
(-0.0020102185 -0.0046391149 0.13164539)
(0.022775398 0.0029526857 0.083742771)
(0.038395063 0.0010717898 0.1154468)
(0.043318297 0.00029466279 0.12030543)
(0.042558387 -3.7519895e-05 0.12148092)
(0.039815834 -0.00031585929 0.12195102)
(0.035573528 -0.00051534859 0.12250603)
(0.028295348 -0.00085052216 0.12366871)
(0.019374605 -0.00081983878 0.12633136)
(-0.0046391061 -0.0020102221 0.13164539)
(-0.0013717508 -0.0013717542 0.13597827)
(0.0095121336 0.0095121378 0.021145108)
(0.022392568 0.016376542 0.04013079)
(0.028275972 0.018188956 0.045351298)
(0.028600965 0.018776935 0.047191457)
(0.026404073 0.019138057 0.048097808)
(0.022298911 0.019346656 0.049113933)
(0.015024168 0.019636659 0.050939678)
(0.0066835768 0.019369077 0.055040748)
(-0.013633918 0.019353191 0.061848145)
(-0.0064943074 0.012229887 0.074574621)
(0.016376537 0.022392579 0.040130792)
(0.038288904 0.038288915 0.07188909)
(0.048379396 0.0436643 0.081313307)
(0.048807738 0.045899506 0.08502501)
(0.044676566 0.047114443 0.087025443)
(0.0372262 0.047805281 0.089019249)
(0.02496589 0.04816174 0.092037639)
(0.010990948 0.0473144 0.097728129)
(-0.017605244 0.043600875 0.10496158)
(-0.0097059679 0.026646592 0.10912866)
(0.018188952 0.028275984 0.045351302)
(0.043664289 0.048379409 0.08131331)
(0.055155227 0.05515524 0.092688457)
(0.055525861 0.05798198 0.097438792)
(0.050409988 0.059404603 0.10005641)
(0.0414198 0.060061551 0.10246284)
(0.027147446 0.060028021 0.10572447)
(0.011287168 0.058317998 0.11129855)
(-0.019175498 0.05243629 0.11706286)
(-0.010617865 0.031154548 0.11603319)
(0.018776931 0.028600974 0.047191464)
(0.045899496 0.048807748 0.085025016)
(0.057981967 0.05552587 0.097438795)
(0.058246071 0.05824608 0.10276971)
(0.052537471 0.05950477 0.10571306)
(0.042717931 0.059959853 0.10827037)
(0.027487077 0.059622836 0.11149172)
(0.010854414 0.057618221 0.11669976)
(-0.020092662 0.051294617 0.12138954)
(-0.01097582 0.030265447 0.11803282)
(0.019138054 0.026404076 0.048097815)
(0.047114433 0.044676569 0.087025449)
(0.05940459 0.050409991 0.10005642)
(0.059504761 0.052537474 0.10571306)
(0.053377061 0.053377064 0.10881837)
(0.043040433 0.053534678 0.11142286)
(0.027263836 0.053010386 0.11456495)
(0.010238561 0.051125073 0.11948906)
(-0.02085824 0.045510543 0.12351395)
(-0.01126466 0.026960848 0.1189205)
(0.019346653 0.022298907 0.04911394)
(0.04780527 0.037226195 0.089019256)
(0.060061538 0.041419795 0.10246284)
(0.059959843 0.042717926 0.10827038)
(0.053534675 0.043040428 0.11142286)
(0.042891148 0.042891143 0.11402752)
(0.026816332 0.04227498 0.11712289)
(0.0095878226 0.040767474 0.12189674)
(-0.021545006 0.036494447 0.12551062)
(-0.011472244 0.021864245 0.11993919)
(0.019636656 0.015024158 0.050939684)
(0.048161729 0.024965879 0.092037644)
(0.060028008 0.027147436 0.10572447)
(0.059622827 0.027487066 0.11149172)
(0.053010383 0.027263825 0.11456495)
(0.042274985 0.026816322 0.11712289)
(0.026137622 0.026137611 0.12021606)
(0.008830604 0.025112007 0.12499004)
(-0.022341042 0.022573058 0.12841231)
(-0.011832405 0.013474503 0.12179001)
(0.019369073 0.0066835643 0.055040751)
(0.047314389 0.010990935 0.097728131)
(0.058317986 0.011287155 0.11129855)
(0.057618212 0.010854402 0.11669976)
(0.05112507 0.010238549 0.11948905)
(0.040767478 0.0095878105 0.12189674)
(0.025112017 0.0088305918 0.12499004)
(0.00817026 0.0081702476 0.12991742)
(-0.022799009 0.0070115103 0.13349653)
(-0.011792218 0.0039048446 0.12574271)
(0.019353187 -0.013633928 0.061848146)
(0.043600865 -0.017605254 0.10496158)
(0.052436278 -0.019175507 0.11706285)
(0.051294607 -0.020092671 0.12138954)
(0.04551054 -0.020858249 0.12351394)
(0.036494451 -0.021545016 0.12551061)
(0.022573068 -0.022341051 0.1284123)
(0.0070115226 -0.022799018 0.13349653)
(-0.022872135 -0.022872145 0.13807268)
(-0.012674027 -0.017831736 0.1308894)
(0.012229883 -0.0064943112 0.074574621)
(0.026646582 -0.0097059718 0.10912866)
(0.031154537 -0.010617868 0.11603318)
(0.030265438 -0.010975823 0.11803281)
(0.026960845 -0.011264663 0.11892049)
(0.021864249 -0.011472247 0.11993918)
(0.013474512 -0.011832408 0.12179001)
(0.0039048561 -0.011792221 0.1257427)
(-0.017831726 -0.012674031 0.13088939)
(-0.0091982141 -0.0091982178 0.128084)
(0.0048744603 0.0048744648 0.014785138)
(0.014596314 0.0097077961 0.031688606)
(0.019430796 0.011256665 0.037592882)
(0.019506904 0.011815655 0.040055282)
(0.016990561 0.012167911 0.041408565)
(0.012470186 0.012368536 0.042933219)
(0.0048452267 0.012652586 0.04542701)
(-0.003278729 0.012397209 0.050613964)
(-0.020064737 0.012360774 0.057244656)
(-0.010291929 0.0063420885 0.065630462)
(0.0097077915 0.014596325 0.031688608)
(0.02803927 0.028039282 0.063195478)
(0.03713287 0.03325115 0.074899338)
(0.037295506 0.035550735 0.080178165)
(0.032513761 0.036819254 0.083229661)
(0.02410267 0.037532572 0.086240915)
(0.010886475 0.037876628 0.090410852)
(-0.0031120036 0.036963107 0.097586208)
(-0.027190162 0.033320281 0.10391409)
(-0.014242069 0.018554698 0.10050088)
(0.011256661 0.01943081 0.037592885)
(0.033251138 0.037132884 0.07489934)
(0.043969929 0.043969943 0.089587365)
(0.044102932 0.046989226 0.096516546)
(0.038177994 0.048533121 0.10055977)
(0.027959713 0.049244912 0.10422298)
(0.012447275 0.049197038 0.10873683)
(-0.003578271 0.047363717 0.11565321)
(-0.029351229 0.041404975 0.11967951)
(-0.01523144 0.022290744 0.10905341)
(0.011815651 0.019506914 0.040055287)
(0.035550723 0.037295517 0.080178168)
(0.046989212 0.044102943 0.096516548)
(0.047033314 0.047033325 0.10439183)
(0.040436148 0.048418164 0.10897054)
(0.029259103 0.048923689 0.1128808)
(0.012663291 0.048558014 0.11732284)
(-0.0041824929 0.046412273 0.12364583)
(-0.030370174 0.040005446 0.12599191)
(-0.015591197 0.021247297 0.11189744)
(0.012167907 0.016990564 0.041408571)
(0.036819242 0.032513764 0.083229665)
(0.048533107 0.038177997 0.10055977)
(0.048418153 0.040436151 0.10897055)
(0.04135445 0.041354453 0.11381955)
(0.029590137 0.041532556 0.11781031)
(0.012386686 0.040968971 0.12212318)
(-0.0048692957 0.03898133 0.12798934)
(-0.031166621 0.033437128 0.12928244)
(-0.015868917 0.017573845 0.11327888)
(0.012368532 0.012470181 0.042933225)
(0.037532561 0.024102665 0.08624092)
(0.049244898 0.027959708 0.10422298)
(0.048923679 0.029259098 0.1128808)
(0.041532553 0.029590132 0.11781031)
(0.029423667 0.029423662 0.12180151)
(0.011891532 0.028766224 0.12603488)
(-0.0055729904 0.027234968 0.13165524)
(-0.031875165 0.023293107 0.13229885)
(-0.016068571 0.011987087 0.11480794)
(0.012652582 0.0048452155 0.045427014)
(0.037876616 0.010886463 0.090410856)
(0.049197024 0.012447263 0.10873683)
(0.048558004 0.012663279 0.11732284)
(0.040968968 0.012386675 0.12212318)
(0.028766229 0.011891521 0.12603488)
(0.011174321 0.01117431 0.1302588)
(-0.0063624532 0.010208078 0.13587529)
(-0.032680393 0.0082792449 0.136242)
(-0.016425343 0.0031966619 0.11728425)
(0.012397205 -0.0032787425 0.050613968)
(0.036963096 -0.0031120176 0.09758621)
(0.047363704 -0.0035782847 0.11565321)
(0.046412263 -0.0041825062 0.12364583)
(0.038981327 -0.0048693088 0.12798933)
(0.027234973 -0.0055730035 0.13165523)
(0.01020809 -0.0063624666 0.13587529)
(-0.0069177778 -0.0069177913 0.14173634)
(-0.033034561 -0.0073032117 0.14239949)
(-0.016367238 -0.0060635776 0.1221064)
(0.01236077 -0.020064748 0.057244657)
(0.03332027 -0.027190173 0.10391409)
(0.041404962 -0.02935124 0.11967951)
(0.040005436 -0.030370184 0.1259919)
(0.033437125 -0.031166631 0.12928244)
(0.023293112 -0.031875175 0.13229884)
(0.008279256 -0.032680404 0.136242)
(-0.0073031982 -0.033034572 0.14239948)
(-0.032430084 -0.032430095 0.14469487)
(-0.016890169 -0.023990148 0.12612038)
(0.0063420845 -0.010291933 0.065630462)
(0.018554688 -0.014242074 0.10050088)
(0.022290732 -0.015231444 0.10905341)
(0.021247288 -0.015591201 0.11189743)
(0.017573842 -0.01586892 0.11327887)
(0.011987092 -0.016068574 0.11480794)
(0.0031966721 -0.016425346 0.11728425)
(-0.006063565 -0.016367242 0.12210639)
(-0.023990137 -0.016890173 0.12612038)
(-0.011757538 -0.011757542 0.11656845)
(0.0024424912 0.002442496 0.010780489)
(0.0093703112 0.0056847414 0.025607389)
(0.013062221 0.0069251654 0.031875297)
(0.012826675 0.0074207693 0.034873015)
(0.010089933 0.0077455135 0.036683404)
(0.0054002419 0.0079294396 0.038708622)
(-0.0020993151 0.0081980554 0.041761742)
(-0.0094503493 0.0079725456 0.047577996)
(-0.022344431 0.0079664231 0.053438219)
(-0.011111915 0.003132409 0.057468146)
(0.0056847363 0.0093703234 0.02560739)
(0.020069257 0.02006927 0.055921467)
(0.02764757 0.02476116 0.069361342)
(0.027374118 0.026965927 0.076130488)
(0.022119845 0.028210312 0.080291766)
(0.013204694 0.028909659 0.084329915)
(-0.00011337987 0.029239088 0.089478407)
(-0.013079952 0.028357006 0.097444464)
(-0.03168749 0.025092005 0.10193612)
(-0.015310723 0.012952916 0.091282198)
(0.0069251608 0.013062235 0.031875299)
(0.024761147 0.027647585 0.069361343)
(0.034011599 0.034011614 0.086824617)
(0.033697826 0.036999052 0.095911916)
(0.027179944 0.03856465 0.10148571)
(0.016276982 0.03929397 0.10643406)
(0.00051815841 0.039253387 0.11200574)
(-0.014448046 0.037458967 0.11949327)
(-0.034385958 0.031915788 0.12077196)
(-0.016326836 0.015789099 0.10104777)
(0.0074207652 0.012826686 0.034873018)
(0.026965915 0.027374129 0.076130491)
(0.036999037 0.033697837 0.095911918)
(0.036605586 0.036605598 0.10636496)
(0.029361379 0.038021997 0.11271958)
(0.017414414 0.038552293 0.11802488)
(0.00050823787 0.038200662 0.12348148)
(-0.015262836 0.036105266 0.13010682)
(-0.035491631 0.030166033 0.12904134)
(-0.016674091 0.014561552 0.10468399)
(0.0077455096 0.010089936 0.036683407)
(0.0282103 0.022119849 0.080291769)
(0.038564635 0.027179948 0.10148571)
(0.038021986 0.029361382 0.11271958)
(0.030284524 0.030284528 0.11947371)
(0.017707802 0.030474224 0.12489927)
(0.00016476153 0.02992727 0.1301674)
(-0.016005653 0.028029809 0.1361355)
(-0.036288699 0.023082727 0.13358511)
(-0.016929633 0.010672661 0.10659234)
(0.0079294357 0.0054002365 0.038708626)
(0.028909647 0.013204688 0.084329919)
(0.039293955 0.016276977 0.10643406)
(0.038552282 0.017414409 0.11802489)
(0.03047422 0.017707797 0.12489927)
(0.017532206 0.0175322 0.13032567)
(-0.00035323879 0.016895256 0.13547546)
(-0.016725849 0.01551372 0.14108879)
(-0.036983245 0.012353838 0.13763121)
(-0.017112766 0.0048931705 0.1086241)
(0.0081980513 -0.0020993272 0.041761745)
(0.029239076 -0.00011339246 0.08947841)
(0.039253373 0.00051814603 0.11200574)
(0.038200651 0.00050822572 0.12348148)
(0.029927266 0.0001647495 0.1301674)
(0.016895261 -0.00035325083 0.13547546)
(-0.0010459387 -0.0010459508 0.140607)
(-0.017486853 -0.0018136072 0.14621694)
(-0.037749548 -0.0028067228 0.14241533)
(-0.017449266 -0.0037674665 0.11159452)
(0.0079725411 -0.0094503638 0.047577998)
(0.028356994 -0.013079967 0.097444466)
(0.037458952 -0.014448061 0.11949327)
(0.036105255 -0.01526285 0.13010682)
(0.028029805 -0.016005667 0.1361355)
(0.015513725 -0.016725863 0.14108879)
(-0.0018135951 -0.017486868 0.14621694)
(-0.017839744 -0.017839758 0.15219243)
(-0.037956035 -0.01727514 0.14890519)
(-0.01737147 -0.012127388 0.11679483)
(0.0079664184 -0.022344443 0.05343822)
(0.025091993 -0.031687503 0.10193612)
(0.031915774 -0.03438597 0.12077196)
(0.030166022 -0.035491642 0.12904134)
(0.023082723 -0.03628871 0.13358511)
(0.012353843 -0.036983256 0.13763121)
(-0.0028067109 -0.03774956 0.14241533)
(-0.017275125 -0.037956047 0.14890519)
(-0.036679621 -0.036679633 0.14803407)
(-0.017591707 -0.025913683 0.1191918)
(0.0031324047 -0.011111919 0.057468146)
(0.012952905 -0.015310727 0.091282197)
(0.015789086 -0.01632684 0.10104776)
(0.014561542 -0.016674094 0.10468399)
(0.010672658 -0.016929637 0.10659234)
(0.0048931751 -0.017112769 0.1086241)
(-0.0037674555 -0.01744927 0.11159452)
(-0.012127374 -0.017371474 0.11679483)
(-0.025913672 -0.017591712 0.1191918)
(-0.011806645 -0.01180665 0.10425393)
(0.0011631837 0.0011631888 0.0082983362)
(0.0058385582 0.0032514026 0.02134378)
(0.0084454922 0.0041986265 0.027778903)
(0.0078832906 0.0046161889 0.031226423)
(0.0050174935 0.0049037602 0.033477103)
(0.00035795742 0.0050673366 0.035955889)
(-0.0066785394 0.0053169118 0.039420664)
(-0.012947081 0.0051333276 0.045426657)
(-0.022179785 0.0051855681 0.050145724)
(-0.010455398 0.0014311733 0.050192565)
(0.0032513972 0.0058385711 0.021343781)
(0.013933656 0.013933669 0.050178303)
(0.019789686 0.017917848 0.064903112)
(0.018977004 0.019918467 0.073029091)
(0.013413982 0.021083207 0.078289787)
(0.0043880102 0.021745557 0.083285112)
(-0.0083739661 0.02206671 0.089159437)
(-0.019643925 0.021294484 0.0972223)
(-0.032800121 0.018586034 0.099295527)
(-0.014555465 0.0090507979 0.082234083)
(0.0041986216 0.0084455072 0.027778904)
(0.017917835 0.019789702 0.064903112)
(0.025337989 0.025338005 0.084629875)
(0.024429366 0.028117929 0.095755376)
(0.017514215 0.029624071 0.10287054)
(0.0064028868 0.030343275 0.10903453)
(-0.008816357 0.030334613 0.1153766)
(-0.021919408 0.028713541 0.12266559)
(-0.035927881 0.023913109 0.12058353)
(-0.01555605 0.010992085 0.092818045)
(0.0046161844 0.0078833018 0.031226424)
(0.019918454 0.018977016 0.073029092)
(0.028117913 0.024429378 0.095755377)
(0.027122797 0.027122809 0.10869657)
(0.019446575 0.028488555 0.11686065)
(0.0072464273 0.029023088 0.12349801)
(-0.009129101 0.02872686 0.12966822)
(-0.022968832 0.026842818 0.13579358)
(-0.037108305 0.021748413 0.13068003)
(-0.015883246 0.009564152 0.097158574)
(0.004903756 0.0050174968 0.033477104)
(0.021083194 0.013413986 0.078289789)
(0.029624055 0.017514219 0.10287054)
(0.028488543 0.019446579 0.11686065)
(0.020307962 0.020307966 0.12556826)
(0.0074593661 0.020501694 0.13236964)
(-0.0095544261 0.020022934 0.13828442)
(-0.02376029 0.018376231 0.14353321)
(-0.037889589 0.014378447 0.13648284)
(-0.016112191 0.0055831999 0.099589793)
(0.0050673325 0.00035795182 0.035955891)
(0.021745544 0.0043880044 0.083285114)
(0.030343259 0.0064028812 0.10903453)
(0.029023076 0.0072464218 0.12349801)
(0.02050169 0.0074593607 0.13236964)
(0.0072809467 0.0072809412 0.13917243)
(-0.010075954 0.0067193246 0.1449263)
(-0.024470389 0.0056271217 0.14970504)
(-0.038547758 0.0035240291 0.14148938)
(-0.016275229 -0.00015511676 0.10207723)
(0.0053169074 -0.006678552 0.039420666)
(0.022066697 -0.0083739793 0.089159439)
(0.030334597 -0.00881637 0.1153766)
(0.028726848 -0.0091291137 0.12966822)
(0.02002293 -0.0095544387 0.13828442)
(0.00671933 -0.010075966 0.1449263)
(-0.010691174 -0.010691186 0.15065434)
(-0.025156193 -0.011156482 0.15544015)
(-0.039243785 -0.011059913 0.14684654)
(-0.016582761 -0.0083156606 0.10538091)
(0.0051333229 -0.012947097 0.045426659)
(0.021294472 -0.019643941 0.097222301)
(0.028713526 -0.021919424 0.12266559)
(0.026842806 -0.022968847 0.13579358)
(0.018376227 -0.023760304 0.14353321)
(0.0056271271 -0.024470404 0.14970504)
(-0.011156469 -0.025156208 0.15544015)
(-0.025244408 -0.025244423 0.16074731)
(-0.039285044 -0.023709106 0.15297034)
(-0.016490129 -0.015465651 0.11052111)
(0.0051855631 -0.022179798 0.050145725)
(0.018586021 -0.032800134 0.099295528)
(0.023913095 -0.035927893 0.12058353)
(0.021748401 -0.037108317 0.13068003)
(0.014378443 -0.037889601 0.13648284)
(0.0035240343 -0.03854777 0.14148938)
(-0.0110599 -0.039243797 0.14684654)
(-0.02370909 -0.039285056 0.15297034)
(-0.037434662 -0.037434675 0.14851492)
(-0.016492359 -0.025392961 0.11112501)
(0.0014311687 -0.010455403 0.050192565)
(0.0090507863 -0.01455547 0.082234083)
(0.010992071 -0.015556054 0.092818044)
(0.0095641414 -0.01588325 0.097158573)
(0.0055831964 -0.016112195 0.09958979)
(-0.00015511197 -0.016275233 0.10207723)
(-0.008315649 -0.016582765 0.10538091)
(-0.015465637 -0.016490133 0.1105211)
(-0.025392949 -0.016492364 0.11112501)
(-0.010731294 -0.010731299 0.092184232)
(0.00048529127 0.00048529659 0.0068365455)
(0.0034288893 0.001771668 0.01847976)
(0.005079695 0.0024666146 0.024978087)
(0.0042106406 0.0028042484 0.02880115)
(0.0012986938 0.0030511606 0.03145591)
(-0.0031759312 0.0031938768 0.034315072)
(-0.009530148 0.0034237803 0.038028721)
(-0.014592586 0.0032883568 0.043852307)
(-0.020670126 0.0034069432 0.047227362)
(-0.009164908 0.00056650549 0.043826354)
(0.0017716624 0.0034289026 0.01847976)
(0.0092498767 0.0092498909 0.04590883)
(0.013382582 0.012461196 0.061580176)
(0.011994107 0.014192115 0.070906772)
(0.0062725217 0.015240951 0.077202009)
(-0.0025426623 0.0158533 0.083026355)
(-0.014281068 0.016175564 0.089336063)
(-0.023516169 0.015567673 0.096888055)
(-0.031775596 0.013491839 0.096240969)
(-0.012954441 0.0063120781 0.073786171)
(0.0024666094 0.0050797106 0.024978087)
(0.012461182 0.013382598 0.061580176)
(0.017933675 0.017933691 0.083134353)
(0.01635312 0.020382063 0.096121516)
(0.0092183579 0.021767159 0.10471114)
(-0.0017046858 0.022456978 0.11194631)
(-0.015808279 0.022503345 0.1187249)
(-0.026608478 0.021155178 0.12514068)
(-0.035199408 0.017279474 0.11940537)
(-0.013907623 0.0074378768 0.08486319)
(0.0028042437 0.0042106523 0.02880115)
(0.014192102 0.01199412 0.070906772)
(0.020382047 0.016353133 0.096121516)
(0.018689448 0.018689461 0.11138199)
(0.010773461 0.019938136 0.12129805)
(-0.0012476716 0.020461265 0.12912207)
(-0.016469341 0.020256278 0.13565752)
(-0.02789751 0.018705267 0.14058556)
(-0.036441022 0.014675484 0.13113773)
(-0.014211296 0.0058121225 0.089804363)
(0.0030511562 0.0012986974 0.03145591)
(0.015240938 0.0062725256 0.07720201)
(0.021767143 0.009218362 0.10471114)
(0.019938124 0.010773466 0.12129805)
(0.011517925 0.011517929 0.13190962)
(-0.0011505647 0.011709542 0.13994285)
(-0.016989102 0.011342168 0.14615005)
(-0.028733669 0.010065858 0.1499723)
(-0.037198647 0.007211597 0.13813733)
(-0.01441315 0.001838425 0.092724572)
(0.0031938724 -0.0031759369 0.034315073)
(0.015853287 -0.0025426682 0.083026356)
(0.022456963 -0.0017046916 0.11194631)
(0.020461252 -0.0012476772 0.12912207)
(0.011709538 -0.0011505702 0.13994285)
(-0.0013271135 -0.001327119 0.14797819)
(-0.017499834 -0.0017691131 0.15398074)
(-0.029415423 -0.0024737416 0.1572187)
(-0.037807928 -0.0033989902 0.14397636)
(-0.014555615 -0.0036828514 0.095594286)
(0.0034237757 -0.009530161 0.038028722)
(0.016175551 -0.014281082 0.089336064)
(0.022503329 -0.015808292 0.1187249)
(0.020256266 -0.016469354 0.13565752)
(0.011342164 -0.016989115 0.14615005)
(-0.0017691076 -0.017499847 0.15398074)
(-0.017997193 -0.017997206 0.15995399)
(-0.029993595 -0.018096108 0.16322443)
(-0.038415621 -0.016895309 0.14961356)