/*--------------------------------*- C++ -*----------------------------------*\
| =========                 |                                                 |
| \\      /  F ield         | OpenFOAM: The Open Source CFD Toolbox           |
|  \\    /   O peration     | Version:  dev                                   |
|   \\  /    A nd           | Web:      www.OpenFOAM.org                      |
|    \\/     M anipulation  |                                                 |
\*---------------------------------------------------------------------------*/
FoamFile
{
    version     2.0;
    format      ascii;
    class       volScalarField;
    location    "95.995";
    object      A_0;
}
// * * * * * * * * * * * * * * * * * * * * * * * * * * * * * * * * * * * * * //

dimensions      [0 0 0 0 1 0 0];

internalField   nonuniform List<scalar> 
10000
(
1.6445896e-21
1.643237e-21
1.6424782e-21
1.6420313e-21
1.6417785e-21
1.6416534e-21
1.6416213e-21
1.6416738e-21
1.6418329e-21
1.6421422e-21
1.643237e-21
1.6418895e-21
1.6411324e-21
1.6406864e-21
1.6404343e-21
1.6403101e-21
1.6402795e-21
1.6403355e-21
1.6405032e-21
1.640837e-21
1.6424782e-21
1.6411324e-21
1.6403765e-21
1.6399313e-21
1.6396801e-21
1.6395571e-21
1.6395285e-21
1.639588e-21
1.6397618e-21
1.6401042e-21
1.6420313e-21
1.6406864e-21
1.6399313e-21
1.639487e-21
1.6392366e-21
1.6391148e-21
1.6390879e-21
1.63915e-21
1.6393272e-21
1.639673e-21
1.6417785e-21
1.6404343e-21
1.6396801e-21
1.6392366e-21
1.6389871e-21
1.6388663e-21
1.6388407e-21
1.6389045e-21
1.6390836e-21
1.6394308e-21
1.6416534e-21
1.6403101e-21
1.6395571e-21
1.6391148e-21
1.6388663e-21
1.6387465e-21
1.6387219e-21
1.6387867e-21
1.6389668e-21
1.6393147e-21
1.6416213e-21
1.6402795e-21
1.6395285e-21
1.6390879e-21
1.6388407e-21
1.6387219e-21
1.6386981e-21
1.6387636e-21
1.6389443e-21
1.6392926e-21
1.6416738e-21
1.6403355e-21
1.639588e-21
1.63915e-21
1.6389045e-21
1.6387867e-21
1.6387636e-21
1.6388296e-21
1.6390108e-21
1.6393594e-21
1.6418329e-21
1.6405032e-21
1.6397618e-21
1.6393272e-21
1.6390836e-21
1.6389668e-21
1.6389443e-21
1.6390108e-21
1.6391923e-21
1.6395413e-21
1.6421422e-21
1.640837e-21
1.6401042e-21
1.639673e-21
1.6394308e-21
1.6393147e-21
1.6392926e-21
1.6393594e-21
1.6395413e-21
1.6398913e-21
5.3634715e-21
5.3592342e-21
5.3567843e-21
5.3553379e-21
5.3545191e-21
5.3541139e-21
5.3540095e-21
5.3541787e-21
5.354693e-21
5.3557286e-21
5.3592342e-21
5.3550122e-21
5.3525679e-21
5.3511243e-21
5.3503078e-21
5.3499054e-21
5.3498061e-21
5.3499865e-21
5.350529e-21
5.3516449e-21
5.3567843e-21
5.3525679e-21
5.3501276e-21
5.3486868e-21
5.347873e-21
5.3474745e-21
5.3473815e-21
5.3475734e-21
5.3481357e-21
5.3492794e-21
5.3553379e-21
5.3511243e-21
5.3486868e-21
5.3472486e-21
5.3464377e-21
5.3460429e-21
5.3459555e-21
5.3461557e-21
5.3467294e-21
5.347884e-21
5.3545191e-21
5.3503078e-21
5.347873e-21
5.3464377e-21
5.3456297e-21
5.3452382e-21
5.345155e-21
5.3453607e-21
5.3459405e-21
5.3470999e-21
5.3541139e-21
5.3499054e-21
5.3474745e-21
5.3460429e-21
5.3452382e-21
5.3448498e-21
5.3447698e-21
5.3449789e-21
5.3455621e-21
5.3467237e-21
5.3540095e-21
5.3498061e-21
5.3473815e-21
5.3459555e-21
5.345155e-21
5.3447698e-21
5.3446924e-21
5.3449038e-21
5.345489e-21
5.3466518e-21
5.3541787e-21
5.3499865e-21
5.3475734e-21
5.3461557e-21
5.3453607e-21
5.3449789e-21
5.3449038e-21
5.345117e-21
5.3457035e-21
5.3468673e-21
5.354693e-21
5.350529e-21
5.3481357e-21
5.3467294e-21
5.3459405e-21
5.3455621e-21
5.345489e-21
5.3457035e-21
5.3462913e-21
5.3474564e-21
5.3557286e-21
5.3516449e-21
5.3492794e-21
5.347884e-21
5.3470999e-21
5.3467237e-21
5.3466518e-21
5.3468673e-21
5.3474564e-21
5.3486248e-21
1.0505952e-20
1.0497932e-20
1.0493218e-20
1.0490426e-20
1.0488843e-20
1.0488059e-20
1.0487856e-20
1.048818e-20
1.0489169e-20
1.0491226e-20
1.0497932e-20
1.048994e-20
1.0485237e-20
1.048245e-20
1.0480872e-20
1.0480093e-20
1.04799e-20
1.0480246e-20
1.048129e-20
1.0483505e-20
1.0493218e-20
1.0485237e-20
1.0480541e-20
1.047776e-20
1.0476187e-20
1.0475416e-20
1.0475235e-20
1.0475603e-20
1.0476686e-20
1.0478955e-20
1.0490426e-20
1.048245e-20
1.047776e-20
1.0474984e-20
1.0473416e-20
1.0472652e-20
1.0472482e-20
1.0472867e-20
1.0473972e-20
1.0476262e-20
1.0488843e-20
1.0480872e-20
1.0476187e-20
1.0473416e-20
1.0471855e-20
1.0471097e-20
1.0470935e-20
1.047133e-20
1.0472447e-20
1.0474747e-20
1.0488059e-20
1.0480093e-20
1.0475416e-20
1.0472652e-20
1.0471097e-20
1.0470345e-20
1.047019e-20
1.0470591e-20
1.0471715e-20
1.0474019e-20
1.0487856e-20
1.04799e-20
1.0475235e-20
1.0472482e-20
1.0470935e-20
1.047019e-20
1.0470039e-20
1.0470445e-20
1.0471573e-20
1.0473879e-20
1.048818e-20
1.0480246e-20
1.0475603e-20
1.0472867e-20
1.047133e-20
1.0470591e-20
1.0470445e-20
1.0470855e-20
1.0471985e-20
1.0474293e-20
1.0489169e-20
1.048129e-20
1.0476686e-20
1.0473972e-20
1.0472447e-20
1.0471715e-20
1.0471573e-20
1.0471985e-20
1.0473117e-20
1.0475428e-20
1.0491226e-20
1.0483505e-20
1.0478955e-20
1.0476262e-20
1.0474747e-20
1.0474019e-20
1.0473879e-20
1.0474293e-20
1.0475428e-20
1.0477746e-20
1.8494379e-20
1.8480731e-20
1.8472624e-20
1.8467805e-20
1.8465069e-20
1.8463711e-20
1.8463356e-20
1.8463908e-20
1.8465602e-20
1.846917e-20
1.8480731e-20
1.8467131e-20
1.8459043e-20
1.8454233e-20
1.8451504e-20
1.8450156e-20
1.8449818e-20
1.8450408e-20
1.8452198e-20
1.8456043e-20
1.8472624e-20
1.8459043e-20
1.8450967e-20
1.8446166e-20
1.8443447e-20
1.8442111e-20
1.8441795e-20
1.8442425e-20
1.8444282e-20
1.8448222e-20
1.8467805e-20
1.8454233e-20
1.8446166e-20
1.8441375e-20
1.8438665e-20
1.8437342e-20
1.8437045e-20
1.8437703e-20
1.84396e-20
1.8443576e-20
1.8465069e-20
1.8451504e-20
1.8443447e-20
1.8438665e-20
1.8435965e-20
1.8434654e-20
1.8434371e-20
1.8435047e-20
1.8436965e-20
1.8440958e-20
1.8463711e-20
1.8450156e-20
1.8442111e-20
1.8437342e-20
1.8434654e-20
1.8433353e-20
1.8433081e-20
1.8433769e-20
1.8435698e-20
1.8439698e-20
1.8463356e-20
1.8449818e-20
1.8441795e-20
1.8437045e-20
1.8434371e-20
1.8433081e-20
1.8432817e-20
1.8433514e-20
1.8435449e-20
1.8439454e-20
1.8463908e-20
1.8450408e-20
1.8442425e-20
1.8437703e-20
1.8435047e-20
1.8433769e-20
1.8433514e-20
1.8434216e-20
1.8436156e-20
1.8440164e-20
1.8465602e-20
1.8452198e-20
1.8444282e-20
1.84396e-20
1.8436965e-20
1.8435698e-20
1.8435449e-20
1.8436156e-20
1.84381e-20
1.8442112e-20
1.846917e-20
1.8456043e-20
1.8448222e-20
1.8443576e-20
1.8440958e-20
1.8439698e-20
1.8439454e-20
1.8440164e-20
1.8442112e-20
1.8446137e-20
3.1653234e-20
3.1630661e-20
3.1617152e-20
3.1609095e-20
3.160451e-20
3.1602231e-20
3.1601629e-20
3.1602539e-20
3.1605337e-20
3.1611246e-20
3.1630661e-20
3.1608166e-20
3.1594687e-20
3.1586645e-20
3.1582073e-20
3.157981e-20
3.1579237e-20
3.1580212e-20
3.1583174e-20
3.1589554e-20
3.1617152e-20
3.1594687e-20
3.158123e-20
3.1573203e-20
3.1568647e-20
3.1566405e-20
3.156587e-20
3.1566911e-20
3.1569988e-20
3.157653e-20
3.1609095e-20
3.1586645e-20
3.1573203e-20
3.1565192e-20
3.1560652e-20
3.1558432e-20
3.1557928e-20
3.1559018e-20
3.1562161e-20
3.1568766e-20
3.160451e-20
3.1582073e-20
3.1568647e-20
3.1560652e-20
3.1556128e-20
3.1553927e-20
3.1553448e-20
3.1554569e-20
3.1557748e-20
3.156438e-20
3.1602231e-20
3.157981e-20
3.1566405e-20
3.1558432e-20
3.1553927e-20
3.1551744e-20
3.1551283e-20
3.1552424e-20
3.1555622e-20
3.1562268e-20
3.1601629e-20
3.1579237e-20
3.156587e-20
3.1557928e-20
3.1553448e-20
3.1551283e-20
3.1550838e-20
3.1551992e-20
3.1555201e-20
3.1561854e-20
3.1602539e-20
3.1580212e-20
3.1566911e-20
3.1559018e-20
3.1554569e-20
3.1552424e-20
3.1551992e-20
3.1553156e-20
3.1556373e-20
3.1563031e-20
3.1605337e-20
3.1583174e-20
3.1569988e-20
3.1562161e-20
3.1557748e-20
3.1555622e-20
3.1555201e-20
3.1556373e-20
3.1559597e-20
3.1566263e-20
3.1611246e-20
3.1589554e-20
3.157653e-20
3.1568766e-20
3.156438e-20
3.1562268e-20
3.1561854e-20
3.1563031e-20
3.1566263e-20
3.1572948e-20
5.3965674e-20
5.3928497e-20
5.3906119e-20
5.3892727e-20
5.3885091e-20
5.3881287e-20
5.3880272e-20
5.3881759e-20
5.3886343e-20
5.3895997e-20
5.3928497e-20
5.389145e-20
5.3869121e-20
5.3855754e-20
5.3848138e-20
5.3844361e-20
5.3843396e-20
5.3844993e-20
5.3849855e-20
5.3860306e-20
5.3906119e-20
5.3869121e-20
5.3846826e-20
5.3833485e-20
5.3825895e-20
5.3822156e-20
5.3821253e-20
5.3822962e-20
5.3828019e-20
5.3838744e-20
5.3892727e-20
5.3855754e-20
5.3833485e-20
5.3820169e-20
5.3812607e-20
5.3808903e-20
5.3808055e-20
5.3809846e-20
5.3815014e-20
5.3825847e-20
5.3885091e-20
5.3848138e-20
5.3825895e-20
5.3812607e-20
5.3805073e-20
5.3801402e-20
5.3800594e-20
5.3802438e-20
5.3807666e-20
5.3818546e-20
5.3881287e-20
5.3844361e-20
5.3822156e-20
5.3808903e-20
5.3801402e-20
5.379776e-20
5.3796984e-20
5.3798861e-20
5.3804123e-20
5.3815024e-20
5.3880272e-20
5.3843396e-20
5.3821253e-20
5.3808055e-20
5.3800594e-20
5.3796984e-20
5.3796232e-20
5.3798132e-20
5.3803413e-20
5.3814326e-20
5.3881759e-20
5.3844993e-20
5.3822962e-20
5.3809846e-20
5.3802438e-20
5.3798861e-20
5.3798132e-20
5.3800049e-20
5.3805343e-20
5.3816265e-20
5.3886343e-20
5.3849855e-20
5.3828019e-20
5.3815014e-20
5.3807666e-20
5.3804123e-20
5.3803413e-20
5.3805343e-20
5.3810648e-20
5.3821582e-20
5.3895997e-20
5.3860306e-20
5.3838744e-20
5.3825847e-20
5.3818546e-20
5.3815024e-20
5.3814326e-20
5.3816265e-20
5.3821582e-20
5.3832549e-20
9.2425584e-20
9.2364105e-20
9.2326909e-20
9.2304577e-20
9.2291816e-20
9.2285448e-20
9.2283732e-20
9.2286168e-20
9.2293692e-20
9.2309455e-20
9.2364105e-20
9.2302839e-20
9.2265723e-20
9.2243433e-20
9.2230706e-20
9.2224383e-20
9.2222751e-20
9.2225374e-20
9.2233371e-20
9.2250492e-20
9.2326909e-20
9.2265723e-20
9.2228665e-20
9.2206418e-20
9.2193735e-20
9.2187474e-20
9.2185948e-20
9.2188761e-20
9.219709e-20
9.2214677e-20
9.2304577e-20
9.2243433e-20
9.2206418e-20
9.2184214e-20
9.2171577e-20
9.2165377e-20
9.2163942e-20
9.2166895e-20
9.2175412e-20
9.2193182e-20
9.2291816e-20
9.2230706e-20
9.2193735e-20
9.2171577e-20
9.2158988e-20
9.2152843e-20
9.2151478e-20
9.215452e-20
9.216314e-20
9.2180989e-20
9.2285448e-20
9.2224383e-20
9.2187474e-20
9.2165377e-20
9.2152843e-20
9.2146749e-20
9.2145436e-20
9.2148536e-20
9.2157211e-20
9.2175098e-20
9.2283732e-20
9.2222751e-20
9.2185948e-20
9.2163942e-20
9.2151478e-20
9.2145436e-20
9.2144166e-20
9.2147304e-20
9.2156012e-20
9.2173918e-20
9.2286168e-20
9.2225374e-20
9.2188761e-20
9.2166895e-20
9.215452e-20
9.2148536e-20
9.2147304e-20
9.2150469e-20
9.2159199e-20
9.2177121e-20
9.2293692e-20
9.2233371e-20
9.219709e-20
9.2175412e-20
9.216314e-20
9.2157211e-20
9.2156012e-20
9.2159199e-20
9.2167948e-20
9.218589e-20
9.2309455e-20
9.2250492e-20
9.2214677e-20
9.2193182e-20
9.2180989e-20
9.2175098e-20
9.2173918e-20
9.2177121e-20
9.218589e-20
9.2203884e-20
1.5949493e-19
1.5939253e-19
1.5933029e-19
1.592928e-19
1.5927133e-19
1.5926059e-19
1.5925767e-19
1.5926169e-19
1.5927412e-19
1.5929999e-19
1.5939253e-19
1.5929049e-19
1.5922838e-19
1.5919096e-19
1.5916955e-19
1.5915889e-19
1.5915611e-19
1.5916045e-19
1.5917368e-19
1.5920188e-19
1.5933029e-19
1.5922838e-19
1.5916636e-19
1.5912901e-19
1.5910768e-19
1.5909713e-19
1.5909453e-19
1.5909919e-19
1.5911299e-19
1.5914199e-19
1.592928e-19
1.5919096e-19
1.5912901e-19
1.5909174e-19
1.5907048e-19
1.5906003e-19
1.5905759e-19
1.5906249e-19
1.5907662e-19
1.5910593e-19
1.5927133e-19
1.5916955e-19
1.5910768e-19
1.5907048e-19
1.590493e-19
1.5903895e-19
1.5903663e-19
1.5904168e-19
1.5905598e-19
1.5908543e-19
1.5926059e-19
1.5915889e-19
1.5909713e-19
1.5906003e-19
1.5903895e-19
1.5902868e-19
1.5902645e-19
1.590316e-19
1.59046e-19
1.5907551e-19
1.5925767e-19
1.5915611e-19
1.5909453e-19
1.5905759e-19
1.5903663e-19
1.5902645e-19
1.5902429e-19
1.590295e-19
1.5904396e-19
1.590735e-19
1.5926169e-19
1.5916045e-19
1.5909919e-19
1.5906249e-19
1.5904168e-19
1.590316e-19
1.590295e-19
1.5903477e-19
1.5904926e-19
1.5907883e-19
1.5927412e-19
1.5917368e-19
1.5911299e-19
1.5907662e-19
1.5905598e-19
1.59046e-19
1.5904396e-19
1.5904926e-19
1.5906378e-19
1.5909338e-19
1.5929999e-19
1.5920188e-19
1.5914199e-19
1.5910593e-19
1.5908543e-19
1.5907551e-19
1.590735e-19
1.5907883e-19
1.5909338e-19
1.5912307e-19
2.7762211e-19
2.7745017e-19
2.7734516e-19
2.7728172e-19
2.7724532e-19
2.7722708e-19
2.7722207e-19
2.7722875e-19
2.7724943e-19
2.772922e-19
2.7745017e-19
2.7727881e-19
2.7717403e-19
2.771107e-19
2.7707439e-19
2.7705629e-19
2.7705153e-19
2.7705875e-19
2.7708083e-19
2.7712763e-19
2.7734516e-19
2.7717403e-19
2.770694e-19
2.770062e-19
2.7697002e-19
2.769521e-19
2.7694765e-19
2.7695543e-19
2.7697849e-19
2.7702667e-19
2.7728172e-19
2.771107e-19
2.770062e-19
2.7694313e-19
2.7690708e-19
2.7688934e-19
2.7688515e-19
2.7689335e-19
2.7691696e-19
2.7696568e-19
2.7724532e-19
2.7707439e-19
2.7697002e-19
2.7690708e-19
2.7687117e-19
2.7685359e-19
2.7684961e-19
2.7685807e-19
2.7688199e-19
2.7693094e-19
2.7722708e-19
2.7705629e-19
2.769521e-19
2.7688934e-19
2.7685359e-19
2.7683616e-19
2.7683233e-19
2.7684096e-19
2.7686504e-19
2.769141e-19
2.7722207e-19
2.7705153e-19
2.7694765e-19
2.7688515e-19
2.7684961e-19
2.7683233e-19
2.7682863e-19
2.7683737e-19
2.7686154e-19
2.7691067e-19
2.7722875e-19
2.7705875e-19
2.7695543e-19
2.7689335e-19
2.7685807e-19
2.7684096e-19
2.7683737e-19
2.7684619e-19
2.7687043e-19
2.7691959e-19
2.7724943e-19
2.7708083e-19
2.7697849e-19
2.7691696e-19
2.7688199e-19
2.7686504e-19
2.7686154e-19
2.7687043e-19
2.7689473e-19
2.7694394e-19
2.772922e-19
2.7712763e-19
2.7702667e-19
2.7696568e-19
2.7693094e-19
2.769141e-19
2.7691067e-19
2.7691959e-19
2.7694394e-19
2.769933e-19
4.876306e-19
4.8733937e-19
4.8716071e-19
4.8705244e-19
4.8699018e-19
4.8695893e-19
4.8695027e-19
4.8696146e-19
4.8699618e-19
4.8706749e-19
4.8733937e-19
4.8704911e-19
4.8687083e-19
4.8676276e-19
4.8670066e-19
4.8666965e-19
4.8666141e-19
4.8667356e-19
4.8671072e-19
4.8678904e-19
4.8716071e-19
4.8687083e-19
4.8669281e-19
4.8658495e-19
4.8652308e-19
4.8649238e-19
4.8648468e-19
4.8649781e-19
4.8653667e-19
4.866174e-19
4.8705244e-19
4.8676276e-19
4.8658495e-19
4.864773e-19
4.8641566e-19
4.8638527e-19
4.8637804e-19
4.8639188e-19
4.864317e-19
4.8651337e-19
4.8699018e-19
4.8670066e-19
4.8652308e-19
4.8641566e-19
4.8635427e-19
4.8632415e-19
4.8631728e-19
4.8633157e-19
4.8637192e-19
4.8645399e-19
4.8695893e-19
4.8666965e-19
4.8649238e-19
4.8638527e-19
4.8632415e-19
4.862943e-19
4.8628769e-19
4.8630227e-19
4.8634291e-19
4.8642517e-19
4.8695027e-19
4.8666141e-19
4.8648468e-19
4.8637804e-19
4.8631728e-19
4.8628769e-19
4.862813e-19
4.8629608e-19
4.8633688e-19
4.8641925e-19
4.8696146e-19
4.8667356e-19
4.8649781e-19
4.8639188e-19
4.8633157e-19
4.8630227e-19
4.8629608e-19
4.86311e-19
4.8635191e-19
4.8643435e-19
4.8699618e-19
4.8671072e-19
4.8653667e-19
4.864317e-19
4.8637192e-19
4.8634291e-19
4.8633688e-19
4.8635191e-19
4.8639291e-19
4.8647545e-19
4.8706749e-19
4.8678904e-19
4.866174e-19
4.8651337e-19
4.8645399e-19
4.8642517e-19
4.8641925e-19
4.8643435e-19
4.8647545e-19
4.8655822e-19
8.6443171e-19
8.6393407e-19
8.6362743e-19
8.6344105e-19
8.6333365e-19
8.6327966e-19
8.6326455e-19
8.6328348e-19
8.6334229e-19
8.6346221e-19
8.6393407e-19
8.634381e-19
8.631321e-19
8.6294605e-19
8.6283894e-19
8.6278534e-19
8.6277099e-19
8.627916e-19
8.6285469e-19
8.6298694e-19
8.6362743e-19
8.631321e-19
8.6282657e-19
8.6264088e-19
8.6253416e-19
8.6248111e-19
8.624677e-19
8.6249002e-19
8.6255609e-19
8.6269258e-19
8.6344105e-19
8.6294605e-19
8.6264088e-19
8.6245557e-19
8.6234924e-19
8.6229674e-19
8.6228415e-19
8.6230771e-19
8.6237548e-19
8.6251361e-19
8.6333365e-19
8.6283894e-19
8.6253416e-19
8.6234924e-19
8.6224334e-19
8.6219132e-19
8.6217935e-19
8.6220372e-19
8.6227241e-19
8.6241126e-19
8.6327966e-19
8.6278534e-19
8.6248111e-19
8.6229674e-19
8.6219132e-19
8.6213976e-19
8.6212826e-19
8.6215313e-19
8.6222232e-19
8.6236151e-19
8.6326455e-19
8.6277099e-19
8.624677e-19
8.6228415e-19
8.6217935e-19
8.6212826e-19
8.6211714e-19
8.6214235e-19
8.6221183e-19
8.6235119e-19
8.6328348e-19
8.627916e-19
8.6249002e-19
8.6230771e-19
8.6220372e-19
8.6215313e-19
8.6214235e-19
8.6216782e-19
8.6223749e-19
8.6237698e-19
8.6334229e-19
8.6285469e-19
8.6255609e-19
8.6237548e-19
8.6227241e-19
8.6222232e-19
8.6221183e-19
8.6223749e-19
8.6230731e-19
8.6244696e-19
8.6346221e-19
8.6298694e-19
8.6269258e-19
8.6251361e-19
8.6241126e-19
8.6236151e-19
8.6235119e-19
8.6237698e-19
8.6244696e-19
8.6258701e-19
1.5467114e-18
1.5458536e-18
1.5453226e-18
1.5449989e-18
1.5448121e-18
1.5447179e-18
1.5446914e-18
1.5447237e-18
1.5448242e-18
1.5450277e-18
1.5458536e-18
1.5449985e-18
1.5444687e-18
1.5441456e-18
1.5439592e-18
1.5438658e-18
1.5438406e-18
1.5438758e-18
1.5439839e-18
1.5442093e-18
1.5453226e-18
1.5444687e-18
1.5439397e-18
1.5436172e-18
1.5434315e-18
1.543339e-18
1.5433155e-18
1.5433538e-18
1.5434672e-18
1.5437e-18
1.5449989e-18
1.5441456e-18
1.5436172e-18
1.5432954e-18
1.5431104e-18
1.5430189e-18
1.5429968e-18
1.5430373e-18
1.5431536e-18
1.5433894e-18
1.5448121e-18
1.5439592e-18
1.5434315e-18
1.5431104e-18
1.5429261e-18
1.5428355e-18
1.5428145e-18
1.5428564e-18
1.5429744e-18
1.5432114e-18
1.5447179e-18
1.5438658e-18
1.543339e-18
1.5430189e-18
1.5428355e-18
1.5427456e-18
1.5427255e-18
1.5427683e-18
1.5428872e-18
1.5431248e-18
1.5446914e-18
1.5438406e-18
1.5433155e-18
1.5429968e-18
1.5428145e-18
1.5427255e-18
1.5427059e-18
1.5427494e-18
1.5428688e-18
1.5431067e-18
1.5447237e-18
1.5438758e-18
1.5433538e-18
1.5430373e-18
1.5428564e-18
1.5427683e-18
1.5427494e-18
1.5427932e-18
1.542913e-18
1.5431511e-18
1.5448242e-18
1.5439839e-18
1.5434672e-18
1.5431536e-18
1.5429744e-18
1.5428872e-18
1.5428688e-18
1.542913e-18
1.543033e-18
1.5432714e-18
1.5450277e-18
1.5442093e-18
1.5437e-18
1.5433894e-18
1.5432114e-18
1.5431248e-18
1.5431067e-18
1.5431511e-18
1.5432714e-18
1.5435105e-18
2.793499e-18
2.7920069e-18
2.7910794e-18
2.7905123e-18
2.7901843e-18
2.7900188e-18
2.7899717e-18
2.7900274e-18
2.7902007e-18
2.790549e-18
2.7920069e-18
2.7905197e-18
2.7895941e-18
2.789028e-18
2.7887009e-18
2.7885366e-18
2.7884919e-18
2.7885529e-18
2.7887398e-18
2.7891273e-18
2.7910794e-18
2.7895941e-18
2.78867e-18
2.788105e-18
2.787779e-18
2.7876165e-18
2.7875748e-18
2.7876411e-18
2.7878375e-18
2.7882384e-18
2.7905123e-18
2.789028e-18
2.788105e-18
2.7875412e-18
2.7872164e-18
2.7870556e-18
2.7870165e-18
2.7870868e-18
2.7872885e-18
2.7876946e-18
2.7901843e-18
2.7887009e-18
2.787779e-18
2.7872164e-18
2.786893e-18
2.7867337e-18
2.7866966e-18
2.7867694e-18
2.786974e-18
2.7873824e-18
2.7900188e-18
2.7885366e-18
2.7876165e-18
2.7870556e-18
2.7867337e-18
2.7865758e-18
2.7865402e-18
2.7866146e-18
2.7868207e-18
2.7872302e-18
2.7899717e-18
2.7884919e-18
2.7875748e-18
2.7870165e-18
2.7866966e-18
2.7865402e-18
2.7865057e-18
2.7865812e-18
2.7867882e-18
2.7871983e-18
2.7900274e-18
2.7885529e-18
2.7876411e-18
2.7870868e-18
2.7867694e-18
2.7866146e-18
2.7865812e-18
2.7866575e-18
2.7868651e-18
2.7872755e-18
2.7902007e-18
2.7887398e-18
2.7878375e-18
2.7872885e-18
2.786974e-18
2.7868207e-18
2.7867882e-18
2.7868651e-18
2.7870733e-18
2.7874841e-18
2.790549e-18
2.7891273e-18
2.7882384e-18
2.7876946e-18
2.7873824e-18
2.7872302e-18
2.7871983e-18
2.7872755e-18
2.7874841e-18
2.7878962e-18
5.092878e-18
5.0902595e-18
5.088625e-18
5.0876227e-18
5.0870417e-18
5.0867482e-18
5.0866641e-18
5.0867608e-18
5.0870625e-18
5.0876643e-18
5.0902595e-18
5.0876497e-18
5.0860185e-18
5.0850179e-18
5.0844385e-18
5.0841472e-18
5.0840674e-18
5.0841737e-18
5.0844998e-18
5.0851723e-18
5.088625e-18
5.0860185e-18
5.0843898e-18
5.0833912e-18
5.0828139e-18
5.0825256e-18
5.0824512e-18
5.0825673e-18
5.0829104e-18
5.083607e-18
5.0876227e-18
5.0850179e-18
5.0833912e-18
5.0823946e-18
5.0818196e-18
5.0815344e-18
5.0814646e-18
5.0815877e-18
5.0819405e-18
5.0826466e-18
5.0870417e-18
5.0844385e-18
5.0828139e-18
5.0818196e-18
5.0812469e-18
5.0809645e-18
5.0808982e-18
5.0810259e-18
5.0813838e-18
5.082094e-18
5.0867482e-18
5.0841472e-18
5.0825256e-18
5.0815344e-18
5.0809645e-18
5.0806846e-18
5.080621e-18
5.0807515e-18
5.0811123e-18
5.0818244e-18
5.0866641e-18
5.0840674e-18
5.0824512e-18
5.0814646e-18
5.0808982e-18
5.080621e-18
5.0805595e-18
5.080692e-18
5.0810544e-18
5.0817675e-18
5.0867608e-18
5.0841737e-18
5.0825673e-18
5.0815877e-18
5.0810259e-18
5.0807515e-18
5.080692e-18
5.0808259e-18
5.0811894e-18
5.0819032e-18
5.0870625e-18
5.0844998e-18
5.0829104e-18
5.0819405e-18
5.0813838e-18
5.0811123e-18
5.0810544e-18
5.0811894e-18
5.0815538e-18
5.0822684e-18
5.0876643e-18
5.0851723e-18
5.083607e-18
5.0826466e-18
5.082094e-18
5.0818244e-18
5.0817675e-18
5.0819032e-18
5.0822684e-18
5.082985e-18
9.3726836e-18
9.3680475e-18
9.3651413e-18
9.363354e-18
9.362316e-18
9.3617907e-18
9.3616393e-18
9.3618091e-18
9.3623388e-18
9.3633879e-18
9.3680475e-18
9.3634265e-18
9.360526e-18
9.3587419e-18
9.3577067e-18
9.3571855e-18
9.3570418e-18
9.357229e-18
9.3578032e-18
9.3589811e-18
9.3651413e-18
9.360526e-18
9.35763e-18
9.3558494e-18
9.354818e-18
9.3543024e-18
9.3541684e-18
9.3543733e-18
9.3549785e-18
9.3562004e-18
9.363354e-18
9.3587419e-18
9.3558494e-18
9.3540724e-18
9.3530451e-18
9.352535e-18
9.3524095e-18
9.3526272e-18
9.3532499e-18
9.354489e-18
9.362316e-18
9.3577067e-18
9.354818e-18
9.3530451e-18
9.3520222e-18
9.351517e-18
9.3513979e-18
9.3516239e-18
9.3522561e-18
9.3535025e-18
9.3617907e-18
9.3571855e-18
9.3543024e-18
9.352535e-18
9.351517e-18
9.3510166e-18
9.3509022e-18
9.3511334e-18
9.3517708e-18
9.3530207e-18
9.3616393e-18
9.3570418e-18
9.3541684e-18
9.3524095e-18
9.3513979e-18
9.3509022e-18
9.3507918e-18
9.3510265e-18
9.3516668e-18
9.3529186e-18
9.3618091e-18
9.357229e-18
9.3543733e-18
9.3526272e-18
9.3516239e-18
9.3511334e-18
9.3510265e-18
9.3512638e-18
9.3519061e-18
9.3531591e-18
9.3623388e-18
9.3578032e-18
9.3549785e-18
9.3532499e-18
9.3522561e-18
9.3517708e-18
9.3516668e-18
9.3519061e-18
9.3525499e-18
9.3538043e-18
9.3633879e-18
9.3589811e-18
9.3562004e-18
9.354489e-18
9.3535025e-18
9.3530207e-18
9.3529186e-18
9.3531591e-18
9.3538043e-18
9.3550622e-18
1.7412335e-17
1.7404053e-17
1.7398839e-17
1.7395624e-17
1.7393753e-17
1.7392805e-17
1.739253e-17
1.7392831e-17
1.739377e-17
1.7395615e-17
1.7404053e-17
1.7395797e-17
1.7390594e-17
1.7387385e-17
1.7385519e-17
1.7384578e-17
1.7384317e-17
1.738465e-17
1.7385671e-17
1.7387753e-17
1.7398839e-17
1.7390594e-17
1.7385399e-17
1.7382196e-17
1.7380337e-17
1.7379406e-17
1.7379163e-17
1.7379529e-17
1.7380606e-17
1.7382769e-17
1.7395624e-17
1.7387385e-17
1.7382196e-17
1.7378999e-17
1.7377148e-17
1.7376227e-17
1.7376e-17
1.7376388e-17
1.7377498e-17
1.7379692e-17
1.7393753e-17
1.7385519e-17
1.7380337e-17
1.7377148e-17
1.7375304e-17
1.7374393e-17
1.7374177e-17
1.7374581e-17
1.7375708e-17
1.7377916e-17
1.7392805e-17
1.7384578e-17
1.7379406e-17
1.7376227e-17
1.7374393e-17
1.737349e-17
1.7373283e-17
1.7373697e-17
1.7374833e-17
1.7377047e-17
1.739253e-17
1.7384317e-17
1.7379163e-17
1.7376e-17
1.7374177e-17
1.7373283e-17
1.7373083e-17
1.7373503e-17
1.7374645e-17
1.7376863e-17
1.7392831e-17
1.738465e-17
1.7379529e-17
1.7376388e-17
1.7374581e-17
1.7373697e-17
1.7373503e-17
1.7373927e-17
1.7375073e-17
1.7377293e-17
1.739377e-17
1.7385671e-17
1.7380606e-17
1.7377498e-17
1.7375708e-17
1.7374833e-17
1.7374645e-17
1.7375073e-17
1.7376221e-17
1.7378444e-17
1.7395615e-17
1.7387753e-17
1.7382769e-17
1.7379692e-17
1.7377916e-17
1.7377047e-17
1.7376863e-17
1.7377293e-17
1.7378444e-17
1.7380672e-17
3.2654639e-17
3.2639711e-17
3.2630276e-17
3.2624441e-17
3.262104e-17
3.2619313e-17
3.2618809e-17
3.2619347e-17
3.2621027e-17
3.2624303e-17
3.2639711e-17
3.2624832e-17
3.2615415e-17
3.260959e-17
3.2606198e-17
3.2604485e-17
3.2604008e-17
3.2604605e-17
3.2606436e-17
3.261015e-17
3.2630276e-17
3.2615415e-17
3.2606012e-17
3.2600199e-17
3.259682e-17
3.2595126e-17
3.2594681e-17
3.2595338e-17
3.2597274e-17
3.2601139e-17
3.2624441e-17
3.260959e-17
3.2600199e-17
3.2594397e-17
3.2591032e-17
3.2589357e-17
3.2588941e-17
3.2589641e-17
3.2591637e-17
3.259556e-17
3.262104e-17
3.2606198e-17
3.259682e-17
3.2591032e-17
3.2587681e-17
3.2586022e-17
3.2585628e-17
3.2586356e-17
3.2588384e-17
3.2592332e-17
3.2619313e-17
3.2604485e-17
3.2595126e-17
3.2589357e-17
3.2586022e-17
3.258438e-17
3.2584001e-17
3.2584748e-17
3.2586793e-17
3.2590753e-17
3.2618809e-17
3.2604008e-17
3.2594681e-17
3.2588941e-17
3.2585628e-17
3.2584001e-17
3.2583636e-17
3.2584394e-17
3.258645e-17
3.2590416e-17
3.2619347e-17
3.2604605e-17
3.2595338e-17
3.2589641e-17
3.2586356e-17
3.2584748e-17
3.2584394e-17
3.2585161e-17
3.2587223e-17
3.2591193e-17
3.2621027e-17
3.2606436e-17
3.2597274e-17
3.2591637e-17
3.2588384e-17
3.2586793e-17
3.258645e-17
3.2587223e-17
3.258929e-17
3.2593265e-17
3.2624303e-17
3.261015e-17
3.2601139e-17
3.259556e-17
3.2592332e-17
3.2590753e-17
3.2590416e-17
3.2591193e-17
3.2593265e-17
3.259725e-17
6.1819561e-17
6.1792415e-17
6.1775188e-17
6.1764504e-17
6.1758266e-17
6.1755095e-17
6.1754165e-17
6.1755136e-17
6.1758168e-17
6.1764038e-17
6.1792415e-17
6.1765357e-17
6.1748163e-17
6.1737498e-17
6.1731276e-17
6.172813e-17
6.1727249e-17
6.1728331e-17
6.1731646e-17
6.1738336e-17
6.1775188e-17
6.1748163e-17
6.1730995e-17
6.1720351e-17
6.1714153e-17
6.1711042e-17
6.1710223e-17
6.1711416e-17
6.1714928e-17
6.1721897e-17
6.1764504e-17
6.1737498e-17
6.1720351e-17
6.1709729e-17
6.1703557e-17
6.1700481e-17
6.1699715e-17
6.1700989e-17
6.1704612e-17
6.171169e-17
6.1758266e-17
6.1731276e-17
6.1714153e-17
6.1703557e-17
6.1697411e-17
6.1694367e-17
6.1693641e-17
6.1694967e-17
6.169865e-17
6.1705776e-17
6.1755095e-17
6.172813e-17
6.1711042e-17
6.1700481e-17
6.1694367e-17
6.1691352e-17
6.1690656e-17
6.1692016e-17
6.1695731e-17
6.1702879e-17
6.1754165e-17
6.1727249e-17
6.1710223e-17
6.1699715e-17
6.1693641e-17
6.1690656e-17
6.1689985e-17
6.1691367e-17
6.1695101e-17
6.170226e-17
6.1755136e-17
6.1728331e-17
6.1711416e-17
6.1700989e-17
6.1694967e-17
6.1692016e-17
6.1691367e-17
6.1692764e-17
6.169651e-17
6.1703677e-17
6.1758168e-17
6.1731646e-17
6.1714928e-17
6.1704612e-17
6.169865e-17
6.1695731e-17
6.1695101e-17
6.169651e-17
6.1700266e-17
6.1707441e-17
6.1764038e-17
6.1738336e-17
6.1721897e-17
6.171169e-17
6.1705776e-17
6.1702879e-17
6.170226e-17
6.1703677e-17
6.1707441e-17
6.1714635e-17
1.181392e-16
1.1808939e-16
1.1805766e-16
1.1803793e-16
1.1802639e-16
1.1802051e-16
1.1801878e-16
1.1802055e-16
1.1802608e-16
1.1803669e-16
1.1808939e-16
1.1803975e-16
1.1800808e-16
1.1798838e-16
1.1797687e-16
1.1797104e-16
1.179694e-16
1.1797138e-16
1.1797744e-16
1.179896e-16
1.1805766e-16
1.1800808e-16
1.1797646e-16
1.179568e-16
1.1794533e-16
1.1793957e-16
1.1793805e-16
1.1794023e-16
1.1794666e-16
1.1795935e-16
1.1803793e-16
1.1798838e-16
1.179568e-16
1.1793718e-16
1.1792576e-16
1.1792007e-16
1.1791864e-16
1.1792098e-16
1.1792762e-16
1.1794051e-16
1.1802639e-16
1.1797687e-16
1.1794533e-16
1.1792576e-16
1.1791439e-16
1.1790876e-16
1.1790741e-16
1.1790985e-16
1.179166e-16
1.1792958e-16
1.1802051e-16
1.1797104e-16
1.1793957e-16
1.1792007e-16
1.1790876e-16
1.1790318e-16
1.1790188e-16
1.1790439e-16
1.179112e-16
1.1792422e-16
1.1801878e-16
1.179694e-16
1.1793805e-16
1.1791864e-16
1.1790741e-16
1.1790188e-16
1.1790064e-16
1.1790318e-16
1.1791003e-16
1.1792307e-16
1.1802055e-16
1.1797138e-16
1.1794023e-16
1.1792098e-16
1.1790985e-16
1.1790439e-16
1.1790318e-16
1.1790576e-16
1.1791263e-16
1.1792568e-16
1.1802608e-16
1.1797744e-16
1.1794666e-16
1.1792762e-16
1.179166e-16
1.179112e-16
1.1791003e-16
1.1791263e-16
1.1791951e-16
1.1793259e-16
1.1803669e-16
1.179896e-16
1.1795935e-16
1.1794051e-16
1.1792958e-16
1.1792422e-16
1.1792307e-16
1.1792568e-16
1.1793259e-16
1.1794569e-16
2.278969e-16
2.2780472e-16
2.2774576e-16
2.27709e-16
2.2768746e-16
2.2767648e-16
2.2767323e-16
2.2767649e-16
2.2768665e-16
2.2770601e-16
2.2780472e-16
2.2771284e-16
2.2765399e-16
2.2761729e-16
2.2759581e-16
2.2758492e-16
2.2758185e-16
2.275855e-16
2.2759668e-16
2.2761898e-16
2.2774576e-16
2.2765399e-16
2.2759523e-16
2.2755861e-16
2.2753721e-16
2.2752645e-16
2.2752359e-16
2.2752764e-16
2.2753952e-16
2.2756283e-16
2.27709e-16
2.2761729e-16
2.2755861e-16
2.2752206e-16
2.2750075e-16
2.2749011e-16
2.2748745e-16
2.2749179e-16
2.2750407e-16
2.2752776e-16
2.2768746e-16
2.2759581e-16
2.2753721e-16
2.2750075e-16
2.2747954e-16
2.2746901e-16
2.2746649e-16
2.2747102e-16
2.2748351e-16
2.2750737e-16
2.2767648e-16
2.2758492e-16
2.2752645e-16
2.2749011e-16
2.2746901e-16
2.2745859e-16
2.2745618e-16
2.2746082e-16
2.2747343e-16
2.2749738e-16
2.2767323e-16
2.2758185e-16
2.2752359e-16
2.2748745e-16
2.2746649e-16
2.2745618e-16
2.2745385e-16
2.2745858e-16
2.2747125e-16
2.2749524e-16
2.2767649e-16
2.275855e-16
2.2752764e-16
2.2749179e-16
2.2747102e-16
2.2746082e-16
2.2745858e-16
2.2746336e-16
2.2747608e-16
2.2750009e-16
2.2768665e-16
2.2759668e-16
2.2753952e-16
2.2750407e-16
2.2748351e-16
2.2747343e-16
2.2747125e-16
2.2747608e-16
2.2748883e-16
2.2751287e-16
2.2770601e-16
2.2761898e-16
2.2756283e-16
2.2752776e-16
2.2750737e-16
2.2749738e-16
2.2749524e-16
2.2750009e-16
2.2751287e-16
2.2753697e-16
4.4375514e-16
4.4358305e-16
4.4347253e-16
4.4340345e-16
4.433629e-16
4.4334222e-16
4.4333607e-16
4.4334212e-16
4.4336098e-16
4.4339661e-16
4.4358305e-16
4.4341149e-16
4.4330119e-16
4.4323223e-16
4.4319179e-16
4.4317128e-16
4.4316546e-16
4.4317227e-16
4.4319307e-16
4.4323436e-16
4.4347253e-16
4.4330119e-16
4.4319105e-16
4.4312223e-16
4.4308195e-16
4.4306167e-16
4.4305628e-16
4.4306385e-16
4.4308601e-16
4.4312922e-16
4.4340345e-16
4.4323223e-16
4.4312223e-16
4.4305355e-16
4.4301345e-16
4.4299341e-16
4.4298838e-16
4.4299651e-16
4.4301942e-16
4.4306338e-16
4.433629e-16
4.4319179e-16
4.4308195e-16
4.4301345e-16
4.4297352e-16
4.429537e-16
4.4294895e-16
4.4295743e-16
4.4298076e-16
4.4302504e-16
4.4334222e-16
4.4317128e-16
4.4306167e-16
4.4299341e-16
4.429537e-16
4.4293408e-16
4.4292953e-16
4.4293824e-16
4.4296179e-16
4.4300622e-16
4.4333607e-16
4.4316546e-16
4.4305628e-16
4.4298838e-16
4.4294895e-16
4.4292953e-16
4.4292515e-16
4.4293401e-16
4.4295769e-16
4.430022e-16
4.4334212e-16
4.4317227e-16
4.4306385e-16
4.4299651e-16
4.4295743e-16
4.4293824e-16
4.4293401e-16
4.4294298e-16
4.4296674e-16
4.4301131e-16
4.4336098e-16
4.4319307e-16
4.4308601e-16
4.4301942e-16
4.4298076e-16
4.4296179e-16
4.4295769e-16
4.4296674e-16
4.4299056e-16
4.4303518e-16
4.4339661e-16
4.4323436e-16
4.4312922e-16
4.4306338e-16
4.4302504e-16
4.4300622e-16
4.430022e-16