/*--------------------------------*- C++ -*----------------------------------*\
| =========                 |                                                 |
| \\      /  F ield         | OpenFOAM: The Open Source CFD Toolbox           |
|  \\    /   O peration     | Version:  dev                                   |
|   \\  /    A nd           | Web:      www.OpenFOAM.org                      |
|    \\/     M anipulation  |                                                 |
\*---------------------------------------------------------------------------*/
FoamFile
{
    version     2.0;
    format      ascii;
    class       volScalarField;
    location    "70.995";
    object      A;
}
// * * * * * * * * * * * * * * * * * * * * * * * * * * * * * * * * * * * * * //

dimensions      [0 0 0 0 1 0 0];

internalField   nonuniform List<scalar> 
10000
(
2.1284625e-26
2.1256408e-26
2.1241854e-26
2.1234304e-26
2.1230661e-26
2.1229169e-26
2.1228957e-26
2.122983e-26
2.1232255e-26
2.1237315e-26
2.1256408e-26
2.1228312e-26
2.12138e-26
2.1206269e-26
2.1202636e-26
2.1201157e-26
2.1200971e-26
2.1201906e-26
2.1204498e-26
2.1210044e-26
2.1241854e-26
2.12138e-26
2.1199312e-26
2.1191794e-26
2.1188173e-26
2.1186708e-26
2.1186551e-26
2.1187546e-26
2.1190251e-26
2.1195962e-26
2.1234304e-26
2.1206269e-26
2.1191794e-26
2.1184287e-26
2.1180674e-26
2.1179222e-26
2.1179086e-26
2.118012e-26
2.1182884e-26
2.1188657e-26
2.1230661e-26
2.1202636e-26
2.1188173e-26
2.1180674e-26
2.1177069e-26
2.1175625e-26
2.1175503e-26
2.1176558e-26
2.117935e-26
2.1185146e-26
2.1229169e-26
2.1201157e-26
2.1186708e-26
2.1179222e-26
2.1175625e-26
2.117419e-26
2.1174076e-26
2.1175142e-26
2.1177946e-26
2.1183751e-26
2.1228957e-26
2.1200971e-26
2.1186551e-26
2.1179086e-26
2.1175503e-26
2.1174076e-26
2.1173968e-26
2.1175039e-26
2.117785e-26
2.1183659e-26
2.122983e-26
2.1201906e-26
2.1187546e-26
2.118012e-26
2.1176558e-26
2.1175142e-26
2.1175039e-26
2.1176115e-26
2.1178928e-26
2.118474e-26
2.1232255e-26
2.1204498e-26
2.1190251e-26
2.1182884e-26
2.117935e-26
2.1177946e-26
2.117785e-26
2.1178928e-26
2.1181746e-26
2.1187563e-26
2.1237315e-26
2.1210044e-26
2.1195962e-26
2.1188657e-26
2.1185146e-26
2.1183751e-26
2.1183659e-26
2.118474e-26
2.1187563e-26
2.1193397e-26
7.2230427e-26
7.213828e-26
7.208945e-26
7.2064065e-26
7.2051806e-26
7.2046784e-26
7.2046066e-26
7.2048988e-26
7.2057129e-26
7.2074747e-26
7.213828e-26
7.2046519e-26
7.1997827e-26
7.1972503e-26
7.196028e-26
7.1955301e-26
7.1954668e-26
7.1957802e-26
7.196651e-26
7.1985783e-26
7.208945e-26
7.1997827e-26
7.1949218e-26
7.192394e-26
7.1911753e-26
7.1906823e-26
7.1906289e-26
7.1909625e-26
7.1918715e-26
7.1938547e-26
7.2064065e-26
7.1972503e-26
7.192394e-26
7.1898696e-26
7.1886538e-26
7.1881649e-26
7.1881189e-26
7.1884657e-26
7.1893947e-26
7.1913985e-26
7.2051806e-26
7.196028e-26
7.1911753e-26
7.1886538e-26
7.1874406e-26
7.1869547e-26
7.1869133e-26
7.1872673e-26
7.1882057e-26
7.1902174e-26
7.2046784e-26
7.1955301e-26
7.1906823e-26
7.1881649e-26
7.1869547e-26
7.1864714e-26
7.1864327e-26
7.1867903e-26
7.1877329e-26
7.1897478e-26
7.2046066e-26
7.1954668e-26
7.1906289e-26
7.1881189e-26
7.1869133e-26
7.1864327e-26
7.1863961e-26
7.1867556e-26
7.1877002e-26
7.1897163e-26
7.2048988e-26
7.1957802e-26
7.1909625e-26
7.1884657e-26
7.1872673e-26
7.1867903e-26
7.1867556e-26
7.1871165e-26
7.1880622e-26
7.1900793e-26
7.2057129e-26
7.196651e-26
7.1918715e-26
7.1893947e-26
7.1882057e-26
7.1877329e-26
7.1877002e-26
7.1880622e-26
7.1890091e-26
7.1910282e-26
7.2074747e-26
7.1985783e-26
7.1938547e-26
7.1913985e-26
7.1902174e-26
7.1897478e-26
7.1897163e-26
7.1900793e-26
7.1910282e-26
7.1930531e-26
1.52358e-25
1.5216995e-25
1.5206896e-25
1.5201631e-25
1.5199085e-25
1.5198041e-25
1.519789e-25
1.5198492e-25
1.5200171e-25
1.5203918e-25
1.5216995e-25
1.5198267e-25
1.5188196e-25
1.5182944e-25
1.5180405e-25
1.517937e-25
1.5179237e-25
1.5179883e-25
1.5181681e-25
1.5185777e-25
1.5206896e-25
1.5188196e-25
1.5178142e-25
1.5172899e-25
1.5170368e-25
1.5169343e-25
1.5169231e-25
1.5169919e-25
1.5171798e-25
1.5176011e-25
1.5201631e-25
1.5182944e-25
1.5172899e-25
1.5167663e-25
1.5165138e-25
1.5164122e-25
1.5164025e-25
1.5164741e-25
1.5166662e-25
1.5170918e-25
1.5199085e-25
1.5180405e-25
1.5170368e-25
1.5165138e-25
1.5162619e-25
1.5161609e-25
1.5161522e-25
1.5162253e-25
1.5164193e-25
1.5168466e-25
1.5198041e-25
1.517937e-25
1.5169343e-25
1.5164122e-25
1.5161609e-25
1.5160604e-25
1.5160523e-25
1.5161262e-25
1.5163211e-25
1.516749e-25
1.519789e-25
1.5179237e-25
1.5169231e-25
1.5164025e-25
1.5161522e-25
1.5160523e-25
1.5160446e-25
1.5161188e-25
1.5163141e-25
1.5167423e-25
1.5198492e-25
1.5179883e-25
1.5169919e-25
1.5164741e-25
1.5162253e-25
1.5161262e-25
1.5161188e-25
1.5161934e-25
1.516389e-25
1.5168173e-25
1.5200171e-25
1.5181681e-25
1.5171798e-25
1.5166662e-25
1.5164193e-25
1.5163211e-25
1.5163141e-25
1.516389e-25
1.5165848e-25
1.5170135e-25
1.5203918e-25
1.5185777e-25
1.5176011e-25
1.5170918e-25
1.5168466e-25
1.516749e-25
1.5167423e-25
1.5168173e-25
1.5170135e-25
1.5174436e-25
2.9576266e-25
2.9540936e-25
2.952181e-25
2.951181e-25
2.9506967e-25
2.9504978e-25
2.9504687e-25
2.9505818e-25
2.9508974e-25
2.9516078e-25
2.9540936e-25
2.950575e-25
2.9486676e-25
2.9476699e-25
2.9471871e-25
2.9469899e-25
2.9469642e-25
2.9470859e-25
2.9474246e-25
2.9482023e-25
2.952181e-25
2.9486676e-25
2.9467634e-25
2.9457675e-25
2.9452861e-25
2.9450909e-25
2.9450691e-25
2.945199e-25
2.9455532e-25
2.9463536e-25
2.951181e-25
2.9476699e-25
2.9457675e-25
2.944773e-25
2.9442927e-25
2.9440992e-25
2.9440804e-25
2.9442156e-25
2.9445779e-25
2.9453866e-25
2.9506967e-25
2.9471871e-25
2.9452861e-25
2.9442927e-25
2.9438134e-25
2.9436211e-25
2.9436042e-25
2.9437423e-25
2.9441084e-25
2.9449204e-25
2.9504978e-25
2.9469899e-25
2.9450909e-25
2.9440992e-25
2.9436211e-25
2.9434298e-25
2.943414e-25
2.9435536e-25
2.9439214e-25
2.9447346e-25
2.9504687e-25
2.9469642e-25
2.9450691e-25
2.9440804e-25
2.9436042e-25
2.943414e-25
2.9433991e-25
2.9435394e-25
2.943908e-25
2.9447217e-25
2.9505818e-25
2.9470859e-25
2.945199e-25
2.9442156e-25
2.9437423e-25
2.9435536e-25
2.9435394e-25
2.9436803e-25
2.9440493e-25
2.9448635e-25
2.9508974e-25
2.9474246e-25
2.9455532e-25
2.9445779e-25
2.9441084e-25
2.9439214e-25
2.943908e-25
2.9440493e-25
2.9444188e-25
2.9452337e-25
2.9516078e-25
2.9482023e-25
2.9463536e-25
2.9453866e-25
2.9449204e-25
2.9447346e-25
2.9447217e-25
2.9448635e-25
2.9452337e-25
2.946051e-25
5.6620655e-25
5.6555218e-25
5.6519592e-25
5.6500913e-25
5.6491852e-25
5.6488126e-25
5.6487571e-25
5.648966e-25
5.6495478e-25
5.6508543e-25
5.6555218e-25
5.6490043e-25
5.6454514e-25
5.6435878e-25
5.6426843e-25
5.6423149e-25
5.6422659e-25
5.6424912e-25
5.6431168e-25
5.6445516e-25
5.6519592e-25
5.6454514e-25
5.6419042e-25
5.640044e-25
5.6391432e-25
5.6387775e-25
5.6387361e-25
5.6389769e-25
5.6396319e-25
5.64111e-25
5.6500913e-25
5.6435878e-25
5.640044e-25
5.6381862e-25
5.6372876e-25
5.6369251e-25
5.6368893e-25
5.6371402e-25
5.6378106e-25
5.6393045e-25
5.6491852e-25
5.6426843e-25
5.6391432e-25
5.6372876e-25
5.6363909e-25
5.6360307e-25
5.6359984e-25
5.6362548e-25
5.6369325e-25
5.6384325e-25
5.6488126e-25
5.6423149e-25
5.6387775e-25
5.6369251e-25
5.6360307e-25
5.6356724e-25
5.6356422e-25
5.6359014e-25
5.6365823e-25
5.6380847e-25
5.6487571e-25
5.6422659e-25
5.6387361e-25
5.6368893e-25
5.6359984e-25
5.6356422e-25
5.6356136e-25
5.6358743e-25
5.6365567e-25
5.6380601e-25
5.648966e-25
5.6424912e-25
5.6389769e-25
5.6371402e-25
5.6362548e-25
5.6359014e-25
5.6358743e-25
5.636136e-25
5.6368192e-25
5.6383233e-25
5.6495478e-25
5.6431168e-25
5.6396319e-25
5.6378106e-25
5.6369325e-25
5.6365823e-25
5.6365567e-25
5.6368192e-25
5.6375034e-25
5.6390088e-25
5.6508543e-25
5.6445516e-25
5.64111e-25
5.6393045e-25
5.6384325e-25
5.6380847e-25
5.6380601e-25
5.6383233e-25
5.6390088e-25
5.6405189e-25
1.0883747e-24
1.0871582e-24
1.0864928e-24
1.086143e-24
1.085973e-24
1.085903e-24
1.0858924e-24
1.0859311e-24
1.0860384e-24
1.0862779e-24
1.0871582e-24
1.0859465e-24
1.0852829e-24
1.0849339e-24
1.0847644e-24
1.084695e-24
1.0846856e-24
1.0847274e-24
1.0848431e-24
1.0851072e-24
1.0864928e-24
1.0852829e-24
1.0846204e-24
1.084272e-24
1.084103e-24
1.0840343e-24
1.0840264e-24
1.0840711e-24
1.0841924e-24
1.0844648e-24
1.086143e-24
1.0849339e-24
1.084272e-24
1.083924e-24
1.0837554e-24
1.0836873e-24
1.0836805e-24
1.0837272e-24
1.0838514e-24
1.0841268e-24
1.085973e-24
1.0847644e-24
1.084103e-24
1.0837554e-24
1.0835872e-24
1.0835196e-24
1.0835134e-24
1.0835611e-24
1.0836868e-24
1.0839633e-24
1.085903e-24
1.084695e-24
1.0840343e-24
1.0836873e-24
1.0835196e-24
1.0834523e-24
1.0834465e-24
1.0834948e-24
1.083621e-24
1.083898e-24
1.0858924e-24
1.0846856e-24
1.0840264e-24
1.0836805e-24
1.0835134e-24
1.0834465e-24
1.083441e-24
1.0834896e-24
1.0836161e-24
1.0838933e-24
1.0859311e-24
1.0847274e-24
1.0840711e-24
1.0837272e-24
1.0835611e-24
1.0834948e-24
1.0834896e-24
1.0835383e-24
1.083665e-24
1.0839423e-24
1.0860384e-24
1.0848431e-24
1.0841924e-24
1.0838514e-24
1.0836868e-24
1.083621e-24
1.0836161e-24
1.083665e-24
1.0837919e-24
1.0840694e-24
1.0862779e-24
1.0851072e-24
1.0844648e-24
1.0841268e-24
1.0839633e-24
1.083898e-24
1.0838933e-24
1.0839423e-24
1.0840694e-24
1.0843478e-24
2.1112962e-24
2.1090149e-24
2.1077618e-24
2.1071012e-24
2.1067797e-24
2.1066471e-24
2.1066267e-24
2.1066988e-24
2.1068984e-24
2.1073404e-24
2.1090149e-24
2.1067427e-24
2.1054928e-24
2.1048337e-24
2.1045131e-24
2.1043816e-24
2.1043636e-24
2.1044418e-24
2.1046575e-24
2.1051468e-24
2.1077618e-24
2.1054928e-24
2.1042449e-24
2.103587e-24
2.1032673e-24
2.1031372e-24
2.103122e-24
2.1032058e-24
2.1034324e-24
2.1039375e-24
2.1071012e-24
2.1048337e-24
2.103587e-24
2.1029299e-24
2.102611e-24
2.1024821e-24
2.1024689e-24
2.1025564e-24
2.1027886e-24
2.1032996e-24
2.1067797e-24
2.1045131e-24
2.1032673e-24
2.102611e-24
2.1022929e-24
2.1021647e-24
2.1021529e-24
2.1022424e-24
2.1024772e-24
2.1029905e-24
2.1066471e-24
2.1043816e-24
2.1031372e-24
2.1024821e-24
2.1021647e-24
2.1020373e-24
2.1020262e-24
2.1021168e-24
2.1023528e-24
2.1028669e-24
2.1066267e-24
2.1043636e-24
2.103122e-24
2.1024689e-24
2.1021529e-24
2.1020262e-24
2.1020157e-24
2.1021068e-24
2.1023433e-24
2.1028578e-24
2.1066988e-24
2.1044418e-24
2.1032058e-24
2.1025564e-24
2.1022424e-24
2.1021168e-24
2.1021068e-24
2.1021982e-24
2.1024351e-24
2.1029498e-24
2.1068984e-24
2.1046575e-24
2.1034324e-24
2.1027886e-24
2.1024772e-24
2.1023528e-24
2.1023433e-24
2.1024351e-24
2.1026723e-24
2.1031875e-24
2.1073404e-24
2.1051468e-24
2.1039375e-24
2.1032996e-24
2.1029905e-24
2.1028669e-24
2.1028578e-24
2.1029498e-24
2.1031875e-24
2.1037042e-24
4.1392153e-24
4.1348935e-24
4.1325096e-24
4.1312497e-24
4.1306354e-24
4.1303817e-24
4.1303422e-24
4.1304782e-24
4.130853e-24
4.1316759e-24
4.1348935e-24
4.1305886e-24
4.1282109e-24
4.1269538e-24
4.1263412e-24
4.1260897e-24
4.1260549e-24
4.1262025e-24
4.1266087e-24
4.1275238e-24
4.1325096e-24
4.1282109e-24
4.125837e-24
4.124582e-24
4.1239713e-24
4.1237225e-24
4.1236929e-24
4.1238516e-24
4.1242788e-24
4.1252249e-24
4.1312497e-24
4.1269538e-24
4.124582e-24
4.1233288e-24
4.1227196e-24
4.1224729e-24
4.1224474e-24
4.1226132e-24
4.1230514e-24
4.1240089e-24
4.1306354e-24
4.1263412e-24
4.1239713e-24
4.1227196e-24
4.1221117e-24
4.1218667e-24
4.1218437e-24
4.1220134e-24
4.1224567e-24
4.1234185e-24
4.1303817e-24
4.1260897e-24
4.1237225e-24
4.1224729e-24
4.1218667e-24
4.121623e-24
4.1216015e-24
4.1217732e-24
4.1222188e-24
4.1231823e-24
4.1303422e-24
4.1260549e-24
4.1236929e-24
4.1224474e-24
4.1218437e-24
4.1216015e-24
4.1215811e-24
4.1217538e-24
4.1222005e-24
4.1231647e-24
4.1304782e-24
4.1262025e-24
4.1238516e-24
4.1226132e-24
4.1220134e-24
4.1217732e-24
4.1217538e-24
4.1219273e-24
4.1223745e-24
4.1233393e-24
4.130853e-24
4.1266087e-24
4.1242788e-24
4.1230514e-24
4.1224567e-24
4.1222188e-24
4.1222005e-24
4.1223745e-24
4.1228224e-24
4.1237879e-24
4.1316759e-24
4.1275238e-24
4.1252249e-24
4.1240089e-24
4.1234185e-24
4.1231823e-24
4.1231647e-24
4.1233393e-24
4.1237879e-24
4.1247563e-24
8.2049796e-24
8.1967049e-24
8.192122e-24
8.1896938e-24
8.1885079e-24
8.1880174e-24
8.18794e-24
8.1881991e-24
8.1889105e-24
8.1904589e-24
8.1967049e-24
8.1884623e-24
8.1838912e-24
8.1814681e-24
8.1802856e-24
8.1797994e-24
8.1797311e-24
8.180013e-24
8.1807861e-24
8.1825162e-24
8.192122e-24
8.1838912e-24
8.1793273e-24
8.1769085e-24
8.1757294e-24
8.1752484e-24
8.1751906e-24
8.1754942e-24
8.1763086e-24
8.1780994e-24
8.1896938e-24
8.1814681e-24
8.1769085e-24
8.1744929e-24
8.1733168e-24
8.1728401e-24
8.1727901e-24
8.1731078e-24
8.1739437e-24
8.1757568e-24
8.1885079e-24
8.1802856e-24
8.1757294e-24
8.1733168e-24
8.1721433e-24
8.1716698e-24
8.1716247e-24
8.1719501e-24
8.1727961e-24
8.1746178e-24
8.1880174e-24
8.1797994e-24
8.1752484e-24
8.1728401e-24
8.1716698e-24
8.1711989e-24
8.1711568e-24
8.171486e-24
8.1723364e-24
8.1741616e-24
8.18794e-24
8.1797311e-24
8.1751906e-24
8.1727901e-24
8.1716247e-24
8.1711568e-24
8.1711168e-24
8.171448e-24
8.1723005e-24
8.1741271e-24
8.1881991e-24
8.180013e-24
8.1754942e-24
8.1731078e-24
8.1719501e-24
8.171486e-24
8.171448e-24
8.1717807e-24
8.1726343e-24
8.1744618e-24
8.1889105e-24
8.1807861e-24
8.1763086e-24
8.1739437e-24
8.1727961e-24
8.1723364e-24
8.1723005e-24
8.1726343e-24
8.1734892e-24
8.1753182e-24
8.1904589e-24
8.1825162e-24
8.1780994e-24
8.1757568e-24
8.1746178e-24
8.1741616e-24
8.1741271e-24
8.1744618e-24
8.1753182e-24
8.1771525e-24
1.6447442e-23
1.6431428e-23
1.6422523e-23
1.6417792e-23
1.6415479e-23
1.641452e-23
1.6414367e-23
1.6414866e-23
1.6416231e-23
1.6419176e-23
1.6431428e-23
1.6415475e-23
1.6406592e-23
1.6401872e-23
1.6399565e-23
1.6398615e-23
1.639848e-23
1.6399024e-23
1.6400512e-23
1.6403818e-23
1.6422523e-23
1.6406592e-23
1.6397724e-23
1.6393012e-23
1.6390711e-23
1.6389772e-23
1.6389657e-23
1.6390245e-23
1.6391814e-23
1.6395242e-23
1.6417792e-23
1.6401872e-23
1.6393012e-23
1.6388306e-23
1.6386011e-23
1.638508e-23
1.6384981e-23
1.6385597e-23
1.6387209e-23
1.6390681e-23
1.6415479e-23
1.6399565e-23
1.6390711e-23
1.6386011e-23
1.6383722e-23
1.6382797e-23
1.6382708e-23
1.6383338e-23
1.6384971e-23
1.6388459e-23
1.641452e-23
1.6398615e-23
1.6389772e-23
1.638508e-23
1.6382797e-23
1.6381877e-23
1.6381794e-23
1.6382432e-23
1.6384074e-23
1.6387569e-23
1.6414367e-23
1.639848e-23
1.6389657e-23
1.6384981e-23
1.6382708e-23
1.6381794e-23
1.6381715e-23
1.6382357e-23
1.6384003e-23
1.6387501e-23
1.6414866e-23
1.6399024e-23
1.6390245e-23
1.6385597e-23
1.6383338e-23
1.6382432e-23
1.6382357e-23
1.6383002e-23
1.638465e-23
1.638815e-23
1.6416231e-23
1.6400512e-23
1.6391814e-23
1.6387209e-23
1.6384971e-23
1.6384074e-23
1.6384003e-23
1.638465e-23
1.63863e-23
1.6389803e-23
1.6419176e-23
1.6403818e-23
1.6395242e-23
1.6390681e-23
1.6388459e-23
1.6387569e-23
1.6387501e-23
1.638815e-23
1.6389803e-23
1.6393316e-23
3.3343921e-23
3.3312591e-23
3.32951e-23
3.3285786e-23
3.3281223e-23
3.327933e-23
3.3279024e-23
3.3279996e-23
3.3282645e-23
3.3288308e-23
3.3312591e-23
3.328138e-23
3.3263933e-23
3.3254638e-23
3.3250087e-23
3.3248212e-23
3.3247942e-23
3.3249005e-23
3.32519e-23
3.3258289e-23
3.32951e-23
3.3263933e-23
3.3246513e-23
3.3237234e-23
3.3232697e-23
3.3230842e-23
3.3230614e-23
3.3231763e-23
3.3234822e-23
3.3241455e-23
3.3285786e-23
3.3254638e-23
3.3237234e-23
3.3227968e-23
3.3223442e-23
3.3221604e-23
3.3221407e-23
3.3222612e-23
3.3225757e-23
3.3232479e-23
3.3281223e-23
3.3250087e-23
3.3232697e-23
3.3223442e-23
3.3218927e-23
3.3217101e-23
3.3216924e-23
3.321816e-23
3.3221345e-23
3.3228101e-23
3.327933e-23
3.3248212e-23
3.3230842e-23
3.3221604e-23
3.3217101e-23
3.3215286e-23
3.321512e-23
3.3216372e-23
3.3219574e-23
3.3226344e-23
3.3279024e-23
3.3247942e-23
3.3230614e-23
3.3221407e-23
3.3216924e-23
3.321512e-23
3.3214963e-23
3.3216222e-23
3.3219433e-23
3.3226208e-23
3.3279996e-23
3.3249005e-23
3.3231763e-23
3.3222612e-23
3.321816e-23
3.3216372e-23
3.3216222e-23
3.3217487e-23
3.3220702e-23
3.3227481e-23
3.3282645e-23
3.32519e-23
3.3234822e-23
3.3225757e-23
3.3221345e-23
3.3219574e-23
3.3219433e-23
3.3220702e-23
3.3223922e-23
3.3230707e-23
3.3288308e-23
3.3258289e-23
3.3241455e-23
3.3232479e-23
3.3228101e-23
3.3226344e-23
3.3226208e-23
3.3227481e-23
3.3230707e-23
3.323751e-23
6.8368666e-23
6.8306702e-23
6.8271974e-23
6.8253436e-23
6.8244338e-23
6.8240561e-23
6.8239944e-23
6.8241858e-23
6.8247054e-23
6.8258064e-23
6.8306702e-23
6.8244971e-23
6.8210329e-23
6.8191828e-23
6.8182756e-23
6.8179013e-23
6.8178469e-23
6.8180568e-23
6.8186264e-23
6.8198751e-23
6.8271974e-23
6.8210329e-23
6.8175741e-23
6.8157272e-23
6.8148227e-23
6.8144525e-23
6.8144065e-23
6.8146339e-23
6.8152369e-23
6.8165349e-23
6.8253436e-23
6.8191828e-23
6.8157272e-23
6.8138827e-23
6.8129806e-23
6.8126138e-23
6.8125741e-23
6.8128129e-23
6.8134332e-23
6.8147494e-23
6.8244338e-23
6.8182756e-23
6.8148227e-23
6.8129806e-23
6.8120805e-23
6.8117162e-23
6.8116805e-23
6.8119255e-23
6.8125539e-23
6.813877e-23
6.8240561e-23
6.8179013e-23
6.8144525e-23
6.8126138e-23
6.8117162e-23
6.8113541e-23
6.8113207e-23
6.8115688e-23
6.8122009e-23
6.8135267e-23
6.8239944e-23
6.8178469e-23
6.8144065e-23
6.8125741e-23
6.8116805e-23
6.8113207e-23
6.8112891e-23
6.8115388e-23
6.8121726e-23
6.8134995e-23
6.8241858e-23
6.8180568e-23
6.8146339e-23
6.8128129e-23
6.8119255e-23
6.8115688e-23
6.8115388e-23
6.8117896e-23
6.8124242e-23
6.8137519e-23
6.8247054e-23
6.8186264e-23
6.8152369e-23
6.8134332e-23
6.8125539e-23
6.8122009e-23
6.8121726e-23
6.8124242e-23
6.8130597e-23
6.8143885e-23
6.8258064e-23
6.8198751e-23
6.8165349e-23
6.8147494e-23
6.813877e-23
6.8135267e-23
6.8134995e-23
6.8137519e-23
6.8143885e-23
6.815721e-23
1.4178779e-22
1.416639e-22
1.4159419e-22
1.4155689e-22
1.4153856e-22
1.4153094e-22
1.4152968e-22
1.415335e-22
1.415438e-22
1.4156545e-22
1.416639e-22
1.4154047e-22
1.4147093e-22
1.4143371e-22
1.4141543e-22
1.4140787e-22
1.4140677e-22
1.4141096e-22
1.4142229e-22
1.4144697e-22
1.4159419e-22
1.4147093e-22
1.4140151e-22
1.4136434e-22
1.4134612e-22
1.4133865e-22
1.4133771e-22
1.4134227e-22
1.4135428e-22
1.4137998e-22
1.4155689e-22
1.4143371e-22
1.4136434e-22
1.4132723e-22
1.4130905e-22
1.4130165e-22
1.4130085e-22
1.4130563e-22
1.4131801e-22
1.4134407e-22
1.4153856e-22
1.4141543e-22
1.4134612e-22
1.4130905e-22
1.4129091e-22
1.4128357e-22
1.4128284e-22
1.4128775e-22
1.413003e-22
1.413265e-22
1.4153094e-22
1.4140787e-22
1.4133865e-22
1.4130165e-22
1.4128357e-22
1.4127627e-22
1.4127559e-22
1.4128056e-22
1.4129318e-22
1.4131944e-22
1.4152968e-22
1.4140677e-22
1.4133771e-22
1.4130085e-22
1.4128284e-22
1.4127559e-22
1.4127495e-22
1.4127996e-22
1.4129261e-22
1.4131889e-22
1.415335e-22
1.4141096e-22
1.4134227e-22
1.4130563e-22
1.4128775e-22
1.4128056e-22
1.4127996e-22
1.4128499e-22
1.4129765e-22
1.4132395e-22
1.415438e-22
1.4142229e-22
1.4135428e-22
1.4131801e-22
1.413003e-22
1.4129318e-22
1.4129261e-22
1.4129765e-22
1.4131034e-22
1.4133666e-22
1.4156545e-22
1.4144697e-22
1.4137998e-22
1.4134407e-22
1.413265e-22
1.4131944e-22
1.4131889e-22
1.4132395e-22
1.4133666e-22
1.4136305e-22
2.9742456e-22
2.9717412e-22
2.9703269e-22
2.9695682e-22
2.9691948e-22
2.9690393e-22
2.9690135e-22
2.9690903e-22
2.9692971e-22
2.9697273e-22
2.9717412e-22
2.969246e-22
2.9678351e-22
2.967078e-22
2.9667056e-22
2.9665516e-22
2.9665288e-22
2.9666135e-22
2.9668416e-22
2.9673349e-22
2.9703269e-22
2.9678351e-22
2.9664264e-22
2.9656705e-22
2.9652992e-22
2.9651469e-22
2.9651278e-22
2.9652199e-22
2.9654622e-22
2.9659765e-22
2.9695682e-22
2.967078e-22
2.9656705e-22
2.9649156e-22
2.9645453e-22
2.9643945e-22
2.964378e-22
2.9644749e-22
2.9647246e-22
2.9652466e-22
2.9691948e-22
2.9667056e-22
2.9652992e-22
2.9645453e-22
2.9641759e-22
2.9640261e-22
2.9640113e-22
2.9641109e-22
2.964364e-22
2.964889e-22
2.9690393e-22
2.9665516e-22
2.9651469e-22
2.9643945e-22
2.9640261e-22
2.9638773e-22
2.9638635e-22
2.9639643e-22
2.964219e-22
2.9647451e-22
2.9690135e-22
2.9665288e-22
2.9651278e-22
2.964378e-22
2.9640113e-22
2.9638635e-22
2.9638504e-22
2.9639519e-22
2.9642073e-22
2.9647339e-22
2.9690903e-22
2.9666135e-22
2.9652199e-22
2.9644749e-22
2.9641109e-22
2.9639643e-22
2.9639519e-22
2.964054e-22
2.9643097e-22
2.9648366e-22
2.9692971e-22
2.9668416e-22
2.9654622e-22
2.9647246e-22
2.964364e-22
2.964219e-22
2.9642073e-22
2.9643097e-22
2.9645658e-22
2.9650931e-22
2.9697273e-22
2.9673349e-22
2.9659765e-22
2.9652466e-22
2.964889e-22
2.9647451e-22
2.9647339e-22
2.9648366e-22
2.9650931e-22
2.9656219e-22
6.3107642e-22
6.3056462e-22
6.3027451e-22
6.3011852e-22
6.3004163e-22
6.3000959e-22
6.3000422e-22
6.3001987e-22
6.3006182e-22
6.3014829e-22
6.3056462e-22
6.300547e-22
6.2976528e-22
6.296096e-22
6.2953291e-22
6.2950117e-22
6.2949645e-22
6.2951375e-22
6.2956018e-22
6.2965989e-22
6.3027451e-22
6.2976528e-22
6.2947629e-22
6.2932088e-22
6.2924442e-22
6.2921304e-22
6.2920907e-22
6.2922793e-22
6.2927733e-22
6.2938146e-22
6.3011852e-22
6.296096e-22
6.2932088e-22
6.2916567e-22
6.2908941e-22
6.2905834e-22
6.2905492e-22
6.2907479e-22
6.2912574e-22
6.2923149e-22
6.3004163e-22
6.2953291e-22
6.2924442e-22
6.2908941e-22
6.2901335e-22
6.2898249e-22
6.2897943e-22
6.2899985e-22
6.2905152e-22
6.2915789e-22
6.3000959e-22
6.2950117e-22
6.2921304e-22
6.2905834e-22
6.2898249e-22
6.2895183e-22
6.2894897e-22
6.2896967e-22
6.2902166e-22
6.2912828e-22
6.3000422e-22
6.2949645e-22
6.2920907e-22
6.2905492e-22
6.2897943e-22
6.2894897e-22
6.2894627e-22
6.2896711e-22
6.2901925e-22
6.2912596e-22
6.3001987e-22
6.2951375e-22
6.2922793e-22
6.2907479e-22
6.2899985e-22
6.2896967e-22
6.2896711e-22
6.2898804e-22
6.2904026e-22
6.2914704e-22
6.3006182e-22
6.2956018e-22
6.2927733e-22
6.2912574e-22
6.2905152e-22
6.2902166e-22
6.2901925e-22
6.2904026e-22
6.2909255e-22
6.2919942e-22
6.3014829e-22
6.2965989e-22
6.2938146e-22
6.2923149e-22
6.2915789e-22
6.2912828e-22
6.2912596e-22
6.2914704e-22
6.2919942e-22
6.2930656e-22
1.3544435e-21
1.3533861e-21
1.3527845e-21
1.3524603e-21
1.3523002e-21
1.3522335e-21
1.3522222e-21
1.3522545e-21
1.3523405e-21
1.3525163e-21
1.3533861e-21
1.3523325e-21
1.3517324e-21
1.3514088e-21
1.3512492e-21
1.351183e-21
1.3511731e-21
1.3512089e-21
1.3513044e-21
1.3515083e-21
1.3527845e-21
1.3517324e-21
1.3511331e-21
1.35081e-21
1.3506509e-21
1.3505855e-21
1.3505772e-21
1.3506163e-21
1.3507182e-21
1.3509314e-21
1.3524603e-21
1.3514088e-21
1.35081e-21
1.3504874e-21
1.3503287e-21
1.350264e-21
1.3502569e-21
1.3502981e-21
1.3504032e-21
1.3506199e-21
1.3523002e-21
1.3512492e-21
1.3506509e-21
1.3503287e-21
1.3501704e-21
1.3501061e-21
1.3500997e-21
1.3501421e-21
1.3502488e-21
1.3504668e-21
1.3522335e-21
1.351183e-21
1.3505855e-21
1.350264e-21
1.3501061e-21
1.3500423e-21
1.3500363e-21
1.3500793e-21
1.3501866e-21
1.3504052e-21
1.3522222e-21
1.3511731e-21
1.3505772e-21
1.3502569e-21
1.3500997e-21
1.3500363e-21
1.3500307e-21
1.3500739e-21
1.3501816e-21
1.3504004e-21
1.3522545e-21
1.3512089e-21
1.3506163e-21
1.3502981e-21
1.3501421e-21
1.3500793e-21
1.3500739e-21
1.3501174e-21
1.3502252e-21
1.3504441e-21
1.3523405e-21
1.3513044e-21
1.3507182e-21
1.3504032e-21
1.3502488e-21
1.3501866e-21
1.3501816e-21
1.3502252e-21
1.3503332e-21
1.3505523e-21
1.3525163e-21
1.3515083e-21
1.3509314e-21
1.3506199e-21
1.3504668e-21
1.3504052e-21
1.3504004e-21
1.3504441e-21
1.3505523e-21
1.3507719e-21
2.9404637e-21
2.9382551e-21
2.9369941e-21
2.9363128e-21
2.9359761e-21
2.9358355e-21
2.9358116e-21
2.9358788e-21
2.9360574e-21
2.9364187e-21
2.9382551e-21
2.9360545e-21
2.9347964e-21
2.9341165e-21
2.9337806e-21
2.9336413e-21
2.9336204e-21
2.9336951e-21
2.9338941e-21
2.9343157e-21
2.9369941e-21
2.9347964e-21
2.93354e-21
2.9328613e-21
2.9325264e-21
2.9323888e-21
2.9323712e-21
2.932453e-21
2.9326656e-21
2.9331073e-21
2.9363128e-21
2.9341165e-21
2.9328613e-21
2.9321834e-21
2.9318495e-21
2.9317132e-21
2.9316982e-21
2.9317846e-21
2.9320041e-21
2.9324532e-21
2.9359761e-21
2.9337806e-21
2.9325264e-21
2.9318495e-21
2.9315164e-21
2.9313811e-21
2.9313677e-21
2.9314565e-21
2.9316794e-21
2.9321313e-21
2.9358355e-21
2.9336413e-21
2.9323888e-21
2.9317132e-21
2.9313811e-21
2.9312467e-21
2.9312342e-21
2.9313243e-21
2.9315486e-21
2.9320016e-21
2.9358116e-21
2.9336204e-21
2.9323712e-21
2.9316982e-21
2.9313677e-21
2.9312342e-21
2.9312224e-21
2.9313132e-21
2.9315381e-21
2.9319916e-21
2.9358788e-21
2.9336951e-21
2.932453e-21
2.9317846e-21
2.9314565e-21
2.9313243e-21
2.9313132e-21
2.9314044e-21
2.9316297e-21
2.9320834e-21
2.9360574e-21
2.9338941e-21
2.9326656e-21
2.9320041e-21
2.9316794e-21
2.9315486e-21
2.9315381e-21
2.9316297e-21
2.9318553e-21
2.9323094e-21
2.9364187e-21
2.9343157e-21
2.9331073e-21
2.9324532e-21
2.9321313e-21
2.9320016e-21
2.9319916e-21
2.9320834e-21
2.9323094e-21
2.9327646e-21
6.4571996e-21
6.452536e-21
6.4498637e-21
6.4484169e-21
6.4477006e-21
6.4474013e-21
6.4473501e-21
6.4474919e-21
6.4478668e-21
6.4486178e-21
6.452536e-21
6.4478892e-21
6.4452229e-21
6.4437789e-21
6.4430645e-21
6.4427681e-21
6.4427233e-21
6.4428813e-21
6.4433003e-21
6.4441822e-21
6.4498637e-21
6.4452229e-21
6.4425606e-21
6.441119e-21
6.4404068e-21
6.4401139e-21
6.4400764e-21
6.4402498e-21
6.4406981e-21
6.4416235e-21
6.4484169e-21
6.4437789e-21
6.441119e-21
6.4396793e-21
6.438969e-21
6.4386791e-21
6.4386471e-21
6.4388303e-21
6.4392939e-21
6.4402353e-21
6.4477006e-21
6.4430645e-21
6.4404068e-21
6.438969e-21
6.4382606e-21
6.4379728e-21
6.4379442e-21
6.4381329e-21
6.4386035e-21
6.4395511e-21
6.4474013e-21
6.4427681e-21
6.4401139e-21
6.4386791e-21
6.4379728e-21
6.4376869e-21
6.4376603e-21
6.4378517e-21
6.4383255e-21
6.4392754e-21
6.4473501e-21
6.4427233e-21
6.4400764e-21
6.4386471e-21
6.4379442e-21
6.4376603e-21
6.4376353e-21
6.4378281e-21
6.4383033e-21
6.4392542e-21
6.4474919e-21
6.4428813e-21
6.4402498e-21
6.4388303e-21
6.4381329e-21
6.4378517e-21
6.4378281e-21
6.4380218e-21
6.4384978e-21
6.4394492e-21
6.4478668e-21
6.4433003e-21
6.4406981e-21
6.4392939e-21
6.4386035e-21
6.4383255e-21
6.4383033e-21
6.4384978e-21
6.4389744e-21
6.4399266e-21
6.4486178e-21
6.4441822e-21
6.4416235e-21
6.4402353e-21
6.4395511e-21
6.4392754e-21
6.4392542e-21
6.4394492e-21
6.4399266e-21
6.4408813e-21
1.4342949e-20
1.4332994e-20
1.432727e-20
1.4324164e-20
1.4322624e-20
1.432198e-20
1.432187e-20
1.4322172e-20
1.4322968e-20
1.4324546e-20
1.4332994e-20
1.4323075e-20
1.4317364e-20
1.4314263e-20
1.4312728e-20
1.431209e-20
1.4311993e-20
1.4312331e-20
1.4313224e-20
1.4315089e-20
1.432727e-20
1.4317364e-20
1.431166e-20
1.4308565e-20
1.4307035e-20
1.4306404e-20
1.4306324e-20
1.4306695e-20
1.4307652e-20
1.4309613e-20
1.4324164e-20
1.4314263e-20
1.4308565e-20
1.4305475e-20
1.4303948e-20
1.4303324e-20
1.4303256e-20
1.4303649e-20
1.4304639e-20
1.4306635e-20
1.4322624e-20
1.4312728e-20
1.4307035e-20
1.4303948e-20
1.4302425e-20
1.4301806e-20
1.4301745e-20
1.430215e-20
1.4303155e-20
1.4305165e-20
1.432198e-20
1.431209e-20
1.4306404e-20
1.4303324e-20
1.4301806e-20
1.4301191e-20
1.4301135e-20
1.4301546e-20
1.4302558e-20
1.4304573e-20
1.432187e-20
1.4311993e-20
1.4306324e-20
1.4303256e-20
1.4301745e-20
1.4301135e-20
1.4301081e-20
1.4301495e-20
1.4302511e-20
1.4304528e-20
1.4322172e-20
1.4312331e-20
1.4306695e-20
1.4303649e-20
1.430215e-20
1.4301546e-20
1.4301495e-20
1.4301911e-20
1.4302928e-20
1.4304946e-20
1.4322968e-20
1.4313224e-20
1.4307652e-20
1.4304639e-20
1.4303155e-20
1.4302558e-20
1.4302511e-20
1.4302928e-20
1.4303947e-20
1.4305967e-20
1.4324546e-20
1.4315089e-20
1.4309613e-20
1.4306635e-20
1.4305165e-20
1.4304573e-20
1.4304528e-20
1.4304946e-20
1.4305967e-20
1.4307991e-20
3.2224459e-20
3.2202979e-20
3.2190585e-20
3.2183845e-20
3.2180499e-20
3.2179099e-20
3.2178858e-20
3.217951e-20
3.2181218e-20
3.2184573e-20
3.2202979e-20
3.2181575e-20
3.2169209e-20
3.2162481e-20
3.2159145e-20
3.2157758e-20
3.2157547e-20
3.2158278e-20
3.21602e-20
3.2164192e-20
3.2190585e-20
3.2169209e-20
3.215686e-20
3.2150144e-20
3.2146817e-20
3.2145448e-20
3.2145273e-20
3.2146078e-20
3.2148142e-20
3.2152346e-20
3.2183845e-20
3.2162481e-20
3.2150144e-20
3.2143437e-20
3.214012e-20
3.2138764e-20
3.2138616e-20
3.2139469e-20
3.2141607e-20
3.2145888e-20
3.2180499e-20
3.2159145e-20
3.2146817e-20
3.214012e-20
3.2136811e-20
3.2135466e-20
3.2135334e-20
3.2136213e-20
3.2138386e-20
3.2142697e-20
3.2179099e-20
3.2157758e-20
3.2145448e-20
3.2138764e-20
3.2135466e-20
3.213413e-20
3.2134008e-20
3.21349e-20
3.2137088e-20
3.214141e-20
3.2178858e-20
3.2157547e-20
3.2145273e-20
3.2138616e-20
3.2135334e-20
3.2134008e-20
3.2133893e-20
3.2134792e-20
3.2136987e-20
3.2141314e-20
3.217951e-20
3.2158278e-20
3.2146078e-20
3.2139469e-20
3.2136213e-20
3.21349e-20
3.2134792e-20
3.2135696e-20
3.2137894e-20
3.2142224e-20
3.2181218e-20
3.21602e-20
3.2148142e-20
3.2141607e-20
3.2138386e-20
3.2137088e-20
3.2136987e-20
3.2137894e-20
3.2140095e-20
3.2144429e-20
3.2184573e-20
3.2164192e-20
3.2152346e-20
3.2145888e-20
3.2142697e-20
3.214141e-20
3.2141314e-20
3.2142224e-20
3.2144429e-20
3.2148772e-20
7.3226306e-20
7.3179459e-20
7.3152336e-20
7.3137555e-20
7.3130208e-20
7.3127131e-20
7.3126599e-20
7.3128022e-20
7.3131729e-20
7.313894e-20
7.3179459e-20
7.3132776e-20
7.3105712e-20
7.3090959e-20
7.3083631e-20
7.3080585e-20
7.3080121e-20
7.3081721e-20
7.3085907e-20
7.3094545e-20
7.3152336e-20
7.3105712e-20
7.3078688e-20
7.3063959e-20
7.3056654e-20
7.3053645e-20
7.3053261e-20
7.3055027e-20
7.3059531e-20
7.3068644e-20
7.3137555e-20
7.3090959e-20
7.3063959e-20
7.3049249e-20
7.3041965e-20
7.3038988e-20
7.3038663e-20
7.3040536e-20
7.3045206e-20
7.3054492e-20
7.3130208e-20
7.3083631e-20
7.3056654e-20
7.3041965e-20
7.30347e-20
7.3031747e-20
7.3031459e-20
7.303339e-20
7.3038137e-20
7.304749e-20
7.3127131e-20
7.3080585e-20
7.3053645e-20
7.3038988e-20
7.3031747e-20
7.3028813e-20
7.3028547e-20
7.3030508e-20
7.3035289e-20
7.3044667e-20
7.3126599e-20
7.3080121e-20
7.3053261e-20
7.3038663e-20
7.3031459e-20
7.3028547e-20
7.3028298e-20
7.3030274e-20
7.303507e-20
7.3044459e-20
7.3128022e-20
7.3081721e-20
7.3055027e-20
7.3040536e-20
7.303339e-20
7.3030508e-20
7.3030274e-20
7.303226e-20
7.3037064e-20
7.3046459e-20
7.3131729e-20
7.3085907e-20
7.3059531e-20
7.3045206e-20
7.3038137e-20
7.3035289e-20
7.303507e-20
7.3037064e-20
7.3041875e-20
7.3051277e-20
7.313894e-20
7.3094545e-20
7.3068644e-20
7.3054492e-20
7.304749e-20
7.3044667e-20