/*--------------------------------*- C++ -*----------------------------------*\
| =========                 |                                                 |
| \\      /  F ield         | OpenFOAM: The Open Source CFD Toolbox           |
|  \\    /   O peration     | Version:  dev                                   |
|   \\  /    A nd           | Web:      www.OpenFOAM.org                      |
|    \\/     M anipulation  |                                                 |
\*---------------------------------------------------------------------------*/
FoamFile
{
    version     2.0;
    format      ascii;
    class       volScalarField;
    location    "70.995";
    object      A_0;
}
// * * * * * * * * * * * * * * * * * * * * * * * * * * * * * * * * * * * * * //

dimensions      [0 0 0 0 1 0 0];

internalField   nonuniform List<scalar> 
10000
(
2.069332e-26
2.0665858e-26
2.0651696e-26
2.0644354e-26
2.0640812e-26
2.0639363e-26
2.0639158e-26
2.0640006e-26
2.0642364e-26
2.0647287e-26
2.0665858e-26
2.0638513e-26
2.0624393e-26
2.0617068e-26
2.0613537e-26
2.0612101e-26
2.061192e-26
2.0612829e-26
2.061535e-26
2.0620745e-26
2.0651696e-26
2.0624393e-26
2.0610296e-26
2.0602985e-26
2.0599464e-26
2.0598042e-26
2.059789e-26
2.0598857e-26
2.0601488e-26
2.0607043e-26
2.0644354e-26
2.0617068e-26
2.0602985e-26
2.0595683e-26
2.0592171e-26
2.0590761e-26
2.059063e-26
2.0591635e-26
2.0594323e-26
2.0599938e-26
2.0640812e-26
2.0613537e-26
2.0599464e-26
2.0592171e-26
2.0588667e-26
2.0587265e-26
2.0587147e-26
2.0588173e-26
2.0590888e-26
2.0596526e-26
2.0639363e-26
2.0612101e-26
2.0598042e-26
2.0590761e-26
2.0587265e-26
2.058587e-26
2.058576e-26
2.0586797e-26
2.0589524e-26
2.059517e-26
2.0639158e-26
2.061192e-26
2.059789e-26
2.059063e-26
2.0587147e-26
2.058576e-26
2.0585656e-26
2.0586698e-26
2.0589431e-26
2.0595081e-26
2.0640006e-26
2.0612829e-26
2.0598857e-26
2.0591635e-26
2.0588173e-26
2.0586797e-26
2.0586698e-26
2.0587744e-26
2.059048e-26
2.0596133e-26
2.0642364e-26
2.061535e-26
2.0601488e-26
2.0594323e-26
2.0590888e-26
2.0589524e-26
2.0589431e-26
2.059048e-26
2.059322e-26
2.0598878e-26
2.0647287e-26
2.0620745e-26
2.0607043e-26
2.0599938e-26
2.0596526e-26
2.059517e-26
2.0595081e-26
2.0596133e-26
2.0598878e-26
2.0604553e-26
7.0231493e-26
7.0141801e-26
7.0094285e-26
7.0069594e-26
7.0057676e-26
7.0052798e-26
7.0052102e-26
7.0054944e-26
7.0062861e-26
7.0079999e-26
7.0141801e-26
7.0052484e-26
7.0005103e-26
6.9980471e-26
6.9968588e-26
6.9963751e-26
6.9963138e-26
6.9966186e-26
6.9974655e-26
6.9993404e-26
7.0094285e-26
7.0005103e-26
6.9957802e-26
6.9933215e-26
6.9921367e-26
6.9916578e-26
6.9916061e-26
6.9919306e-26
6.9928146e-26
6.9947439e-26
7.0069594e-26
6.9980471e-26
6.9933215e-26
6.9908661e-26
6.9896841e-26
6.9892092e-26
6.9891647e-26
6.989502e-26
6.9904055e-26
6.9923548e-26
7.0057676e-26
6.9968588e-26
6.9921367e-26
6.9896841e-26
6.9885047e-26
6.9880327e-26
6.9879927e-26
6.9883369e-26
6.9892496e-26
6.9912066e-26
7.0052798e-26
6.9963751e-26
6.9916578e-26
6.9892092e-26
6.9880327e-26
6.9875631e-26
6.9875258e-26
6.9878736e-26
6.9887903e-26
6.9907504e-26
7.0052102e-26
6.9963138e-26
6.9916061e-26
6.9891647e-26
6.9879927e-26
6.9875258e-26
6.9874904e-26
6.98784e-26
6.9887587e-26
6.99072e-26
7.0054944e-26
6.9966186e-26
6.9919306e-26
6.989502e-26
6.9883369e-26
6.9878736e-26
6.98784e-26
6.988191e-26
6.9891107e-26
6.991073e-26
7.0062861e-26
6.9974655e-26
6.9928146e-26
6.9904055e-26
6.9892496e-26
6.9887903e-26
6.9887587e-26
6.9891107e-26
6.9900317e-26
6.9919959e-26
7.0079999e-26
6.9993404e-26
6.9947439e-26
6.9923548e-26
6.9912066e-26
6.9907504e-26
6.99072e-26
6.991073e-26
6.9919959e-26
6.9939657e-26
1.4817119e-25
1.479881e-25
1.4788981e-25
1.4783859e-25
1.4781384e-25
1.4780369e-25
1.4780223e-25
1.4780808e-25
1.4782441e-25
1.4786087e-25
1.479881e-25
1.4780578e-25
1.4770776e-25
1.4765666e-25
1.4763198e-25
1.4762192e-25
1.4762063e-25
1.4762692e-25
1.4764441e-25
1.4768425e-25
1.4788981e-25
1.4770776e-25
1.476099e-25
1.475589e-25
1.4753429e-25
1.4752433e-25
1.4752324e-25
1.4752994e-25
1.4754821e-25
1.475892e-25
1.4783859e-25
1.4765666e-25
1.475589e-25
1.4750796e-25
1.4748341e-25
1.4747353e-25
1.474726e-25
1.4747956e-25
1.4749824e-25
1.4753965e-25
1.4781384e-25
1.4763198e-25
1.4753429e-25
1.4748341e-25
1.4745891e-25
1.474491e-25
1.4744825e-25
1.4745537e-25
1.4747424e-25
1.4751581e-25
1.4780369e-25
1.4762192e-25
1.4752433e-25
1.4747353e-25
1.474491e-25
1.4743934e-25
1.4743855e-25
1.4744574e-25
1.474647e-25
1.4750633e-25
1.4780223e-25
1.4762063e-25
1.4752324e-25
1.474726e-25
1.4744825e-25
1.4743855e-25
1.474378e-25
1.4744503e-25
1.4746403e-25
1.4750569e-25
1.4780808e-25
1.4762692e-25
1.4752994e-25
1.4747956e-25
1.4745537e-25
1.4744574e-25
1.4744503e-25
1.4745228e-25
1.474713e-25
1.4751299e-25
1.4782441e-25
1.4764441e-25
1.4754821e-25
1.4749824e-25
1.4747424e-25
1.474647e-25
1.4746403e-25
1.474713e-25
1.4749035e-25
1.4753207e-25
1.4786087e-25
1.4768425e-25
1.475892e-25
1.4753965e-25
1.4751581e-25
1.4750633e-25
1.4750569e-25
1.4751299e-25
1.4753207e-25
1.4757392e-25
2.8770913e-25
2.8736508e-25
2.8717888e-25
2.8708157e-25
2.8703447e-25
2.8701515e-25
2.8701232e-25
2.8702333e-25
2.8705404e-25
2.8712316e-25
2.8736508e-25
2.8702243e-25
2.8683675e-25
2.8673966e-25
2.866927e-25
2.8667354e-25
2.8667104e-25
2.8668289e-25
2.8671584e-25
2.8679153e-25
2.8717888e-25
2.8683675e-25
2.8665136e-25
2.8655446e-25
2.8650763e-25
2.8648866e-25
2.8648656e-25
2.864992e-25
2.8653366e-25
2.8661155e-25
2.8708157e-25
2.8673966e-25
2.8655446e-25
2.8645768e-25
2.8641097e-25
2.8639216e-25
2.8639034e-25
2.864035e-25
2.8643875e-25
2.8651746e-25
2.8703447e-25
2.866927e-25
2.8650763e-25
2.8641097e-25
2.8636436e-25
2.8634567e-25
2.8634403e-25
2.8635747e-25
2.8639309e-25
2.8647211e-25
2.8701515e-25
2.8667354e-25
2.8648866e-25
2.8639216e-25
2.8634567e-25
2.8632707e-25
2.8632555e-25
2.8633913e-25
2.8637491e-25
2.8645405e-25
2.8701232e-25
2.8667104e-25
2.8648656e-25
2.8639034e-25
2.8634403e-25
2.8632555e-25
2.863241e-25
2.8633776e-25
2.8637361e-25
2.8645281e-25
2.8702333e-25
2.8668289e-25
2.864992e-25
2.864035e-25
2.8635747e-25
2.8633913e-25
2.8633776e-25
2.8635147e-25
2.8638737e-25
2.864666e-25
2.8705404e-25
2.8671584e-25
2.8653366e-25
2.8643875e-25
2.8639309e-25
2.8637491e-25
2.8637361e-25
2.8638737e-25
2.8642332e-25
2.8650262e-25
2.8712316e-25
2.8679153e-25
2.8661155e-25
2.8651746e-25
2.8647211e-25
2.8645405e-25
2.8645281e-25
2.864666e-25
2.8650262e-25
2.8658217e-25
5.5094802e-25
5.5031059e-25
5.4996366e-25
5.4978185e-25
5.496937e-25
5.4965747e-25
5.4965209e-25
5.4967243e-25
5.4972905e-25
5.4985622e-25
5.5031059e-25
5.4967573e-25
5.4932974e-25
5.4914834e-25
5.4906044e-25
5.4902453e-25
5.4901978e-25
5.4904171e-25
5.491026e-25
5.4924228e-25
5.4996366e-25
5.4932974e-25
5.4898432e-25
5.4880325e-25
5.4871561e-25
5.4868006e-25
5.4867605e-25
5.4869948e-25
5.4876324e-25
5.4890713e-25
5.4978185e-25
5.4914834e-25
5.4880325e-25
5.4862242e-25
5.4853499e-25
5.4849975e-25
5.4849628e-25
5.485207e-25
5.4858596e-25
5.4873139e-25
5.496937e-25
5.4906044e-25
5.4871561e-25
5.4853499e-25
5.4844776e-25
5.4841273e-25
5.4840961e-25
5.4843457e-25
5.4850053e-25
5.4864655e-25
5.4965747e-25
5.4902453e-25
5.4868006e-25
5.4849975e-25
5.4841273e-25
5.483779e-25
5.4837498e-25
5.4840021e-25
5.4846648e-25
5.4861274e-25
5.4965209e-25
5.4901978e-25
5.4867605e-25
5.4849628e-25
5.4840961e-25
5.4837498e-25
5.4837222e-25
5.4839759e-25
5.48464e-25
5.4861036e-25
5.4967243e-25
5.4904171e-25
5.4869948e-25
5.485207e-25
5.4843457e-25
5.4840021e-25
5.4839759e-25
5.4842306e-25
5.4848955e-25
5.4863598e-25
5.4972905e-25
5.491026e-25
5.4876324e-25
5.4858596e-25
5.4850053e-25
5.4846648e-25
5.48464e-25
5.4848955e-25
5.4855614e-25
5.487027e-25
5.4985622e-25
5.4924228e-25
5.4890713e-25
5.4873139e-25
5.4864655e-25
5.4861274e-25
5.4861036e-25
5.4863598e-25
5.487027e-25
5.4884969e-25
1.0593674e-24
1.058182e-24
1.0575338e-24
1.0571932e-24
1.0570278e-24
1.0569597e-24
1.0569495e-24
1.0569871e-24
1.0570916e-24
1.0573249e-24
1.058182e-24
1.0570014e-24
1.0563549e-24
1.0560151e-24
1.0558502e-24
1.0557827e-24
1.0557736e-24
1.0558143e-24
1.0559269e-24
1.0561841e-24
1.0575338e-24
1.0563549e-24
1.0557096e-24
1.0553703e-24
1.0552059e-24
1.0551391e-24
1.0551314e-24
1.055175e-24
1.0552931e-24
1.0555583e-24
1.0571932e-24
1.0560151e-24
1.0553703e-24
1.0550315e-24
1.0548675e-24
1.0548013e-24
1.0547947e-24
1.0548401e-24
1.0549611e-24
1.0552292e-24
1.0570278e-24
1.0558502e-24
1.0552059e-24
1.0548675e-24
1.0547038e-24
1.054638e-24
1.054632e-24
1.0546785e-24
1.0548008e-24
1.0550701e-24
1.0569597e-24
1.0557827e-24
1.0551391e-24
1.0548013e-24
1.054638e-24
1.0545726e-24
1.054567e-24
1.054614e-24
1.0547369e-24
1.0550066e-24
1.0569495e-24
1.0557736e-24
1.0551314e-24
1.0547947e-24
1.054632e-24
1.054567e-24
1.0545617e-24
1.0546089e-24
1.0547321e-24
1.055002e-24
1.0569871e-24
1.0558143e-24
1.055175e-24
1.0548401e-24
1.0546785e-24
1.054614e-24
1.0546089e-24
1.0546564e-24
1.0547797e-24
1.0550498e-24
1.0570916e-24
1.0559269e-24
1.0552931e-24
1.0549611e-24
1.0548008e-24
1.0547369e-24
1.0547321e-24
1.0547797e-24
1.0549032e-24
1.0551735e-24
1.0573249e-24
1.0561841e-24
1.0555583e-24
1.0552292e-24
1.0550701e-24
1.0550066e-24
1.055002e-24
1.0550498e-24
1.0551735e-24
1.0554446e-24
2.0556714e-24
2.0534479e-24
2.0522268e-24
2.0515834e-24
2.0512704e-24
2.0511414e-24
2.0511216e-24
2.0511919e-24
2.0513862e-24
2.0518167e-24
2.0534479e-24
2.051233e-24
2.0500152e-24
2.0493732e-24
2.0490611e-24
2.0489332e-24
2.0489158e-24
2.0489919e-24
2.049202e-24
2.0496785e-24
2.0522268e-24
2.0500152e-24
2.0487992e-24
2.0481584e-24
2.0478472e-24
2.0477207e-24
2.0477059e-24
2.0477876e-24
2.0480082e-24
2.0485003e-24
2.0515834e-24
2.0493732e-24
2.0481584e-24
2.0475184e-24
2.047208e-24
2.0470826e-24
2.0470698e-24
2.0471551e-24
2.0473812e-24
2.0478789e-24
2.0512704e-24
2.0490611e-24
2.0478472e-24
2.047208e-24
2.0468983e-24
2.0467737e-24
2.0467622e-24
2.0468494e-24
2.0470781e-24
2.047578e-24
2.0511414e-24
2.0489332e-24
2.0477207e-24
2.0470826e-24
2.0467737e-24
2.0466497e-24
2.046639e-24
2.0467272e-24
2.046957e-24
2.0474578e-24
2.0511216e-24
2.0489158e-24
2.0477059e-24
2.0470698e-24
2.0467622e-24
2.046639e-24
2.0466288e-24
2.0467175e-24
2.0469478e-24
2.047449e-24
2.0511919e-24
2.0489919e-24
2.0477876e-24
2.0471551e-24
2.0468494e-24
2.0467272e-24
2.0467175e-24
2.0468066e-24
2.0470372e-24
2.0475386e-24
2.0513862e-24
2.049202e-24
2.0480082e-24
2.0473812e-24
2.0470781e-24
2.046957e-24
2.0469478e-24
2.0470372e-24
2.0472682e-24
2.04777e-24
2.0518167e-24
2.0496785e-24
2.0485003e-24
2.0478789e-24
2.047578e-24
2.0474578e-24
2.047449e-24
2.0475386e-24
2.04777e-24
2.0482734e-24
4.0314535e-24
4.0272396e-24
4.024916e-24
4.0236885e-24
4.0230903e-24
4.0228434e-24
4.0228051e-24
4.0229375e-24
4.0233027e-24
4.0241045e-24
4.0272396e-24
4.0230423e-24
4.0207247e-24
4.0194998e-24
4.0189034e-24
4.0186586e-24
4.0186248e-24
4.0187686e-24
4.0191643e-24
4.0200561e-24
4.024916e-24
4.0207247e-24
4.0184107e-24
4.0171881e-24
4.0165934e-24
4.0163512e-24
4.0163226e-24
4.0164772e-24
4.0168934e-24
4.0178152e-24
4.0236885e-24
4.0194998e-24
4.0171881e-24
4.015967e-24
4.0153738e-24
4.0151338e-24
4.0151091e-24
4.0152706e-24
4.0156975e-24
4.0166304e-24
4.0230903e-24
4.0189034e-24
4.0165934e-24
4.0153738e-24
4.0147819e-24
4.0145435e-24
4.0145212e-24
4.0146866e-24
4.0151184e-24
4.0160556e-24
4.0228434e-24
4.0186586e-24
4.0163512e-24
4.0151338e-24
4.0145435e-24
4.0143063e-24
4.0142855e-24
4.0144528e-24
4.0148869e-24
4.0158257e-24
4.0228051e-24
4.0186248e-24
4.0163226e-24
4.0151091e-24
4.0145212e-24
4.0142855e-24
4.0142657e-24
4.014434e-24
4.0148691e-24
4.0158087e-24
4.0229375e-24
4.0187686e-24
4.0164772e-24
4.0152706e-24
4.0146866e-24
4.0144528e-24
4.014434e-24
4.014603e-24
4.0150387e-24
4.0159787e-24
4.0233027e-24
4.0191643e-24
4.0168934e-24
4.0156975e-24
4.0151184e-24
4.0148869e-24
4.0148691e-24
4.0150387e-24
4.015475e-24
4.0164158e-24
4.0241045e-24
4.0200561e-24
4.0178152e-24
4.0166304e-24
4.0160556e-24
4.0158257e-24
4.0158087e-24
4.0159787e-24
4.0164158e-24
4.0173594e-24
7.9939708e-24
7.9859001e-24
7.9814316e-24
7.979065e-24
7.9779099e-24
7.9774325e-24
7.9773573e-24
7.9776097e-24
7.978303e-24
7.9798122e-24
7.9859001e-24
7.9778608e-24
7.9734037e-24
7.9710422e-24
7.9698903e-24
7.9694171e-24
7.9693508e-24
7.9696255e-24
7.9703789e-24
7.9720652e-24
7.9814316e-24
7.9734037e-24
7.9689538e-24
7.9665964e-24
7.9654479e-24
7.9649797e-24
7.9649236e-24
7.9652195e-24
7.9660131e-24
7.9677587e-24
7.979065e-24
7.9710422e-24
7.9665964e-24
7.9642421e-24
7.9630965e-24
7.9626325e-24
7.9625841e-24
7.9628937e-24
7.9637082e-24
7.9654756e-24
7.9779099e-24
7.9698903e-24
7.9654479e-24
7.9630965e-24
7.9619535e-24
7.9614925e-24
7.9614489e-24
7.9617659e-24
7.9625904e-24
7.9643661e-24
7.9774325e-24
7.9694171e-24
7.9649797e-24
7.9626325e-24
7.9614925e-24
7.9610341e-24
7.9609933e-24
7.9613142e-24
7.962143e-24
7.9639219e-24
7.9773573e-24
7.9693508e-24
7.9649236e-24
7.9625841e-24
7.9614489e-24
7.9609933e-24
7.9609546e-24
7.9612774e-24
7.9621082e-24
7.9638885e-24
7.9776097e-24
7.9696255e-24
7.9652195e-24
7.9628937e-24
7.9617659e-24
7.9613142e-24
7.9612774e-24
7.9616016e-24
7.9624335e-24
7.9642147e-24
7.978303e-24
7.9703789e-24
7.9660131e-24
7.9637082e-24
7.9625904e-24
7.962143e-24
7.9621082e-24
7.9624335e-24
7.9632665e-24
7.9650493e-24
7.9798122e-24
7.9720652e-24
7.9677587e-24
7.9654756e-24
7.9643661e-24
7.9639219e-24
7.9638885e-24
7.9642147e-24
7.9650493e-24
7.9668372e-24
1.6029759e-23
1.6014135e-23
1.6005449e-23
1.6000838e-23
1.5998583e-23
1.599765e-23
1.5997501e-23
1.5997987e-23
1.5999318e-23
1.6002189e-23
1.6014135e-23
1.599857e-23
1.5989907e-23
1.5985305e-23
1.5983056e-23
1.5982131e-23
1.5982e-23
1.5982531e-23
1.5983981e-23
1.5987205e-23
1.6005449e-23
1.5989907e-23
1.5981257e-23
1.5976663e-23
1.5974421e-23
1.5973506e-23
1.5973395e-23
1.5973968e-23
1.5975498e-23
1.597884e-23
1.6000838e-23
1.5985305e-23
1.5976663e-23
1.5972075e-23
1.5969839e-23
1.5968932e-23
1.5968836e-23
1.5969436e-23
1.5971008e-23
1.5974393e-23
1.5998583e-23
1.5983056e-23
1.5974421e-23
1.5969839e-23
1.5967608e-23
1.5966707e-23
1.5966621e-23
1.5967236e-23
1.5968827e-23
1.5972229e-23
1.599765e-23
1.5982131e-23
1.5973506e-23
1.5968932e-23
1.5966707e-23
1.5965812e-23
1.5965731e-23
1.5966353e-23
1.5967953e-23
1.5971361e-23
1.5997501e-23
1.5982e-23
1.5973395e-23
1.5968836e-23
1.5966621e-23
1.5965731e-23
1.5965655e-23
1.5966281e-23
1.5967885e-23
1.5971296e-23
1.5997987e-23
1.5982531e-23
1.5973968e-23
1.5969436e-23
1.5967236e-23
1.5966353e-23
1.5966281e-23
1.596691e-23
1.5968516e-23
1.5971928e-23
1.5999318e-23
1.5983981e-23
1.5975498e-23
1.5971008e-23
1.5968827e-23
1.5967953e-23
1.5967885e-23
1.5968516e-23
1.5970124e-23
1.5973539e-23
1.6002189e-23
1.5987205e-23
1.597884e-23
1.5974393e-23
1.5972229e-23
1.5971361e-23
1.5971296e-23
1.5971928e-23
1.5973539e-23
1.5976965e-23
3.2508059e-23
3.247748e-23
3.2460415e-23
3.2451331e-23
3.2446883e-23
3.244504e-23
3.2444743e-23
3.2445691e-23
3.2448273e-23
3.2453796e-23
3.247748e-23
3.2447018e-23
3.2429996e-23
3.2420931e-23
3.2416495e-23
3.2414668e-23
3.2414406e-23
3.2415443e-23
3.2418266e-23
3.2424498e-23
3.2460415e-23
3.2429996e-23
3.2413e-23
3.2403951e-23
3.2399528e-23
3.2397721e-23
3.23975e-23
3.239862e-23
3.2401604e-23
3.2408073e-23
3.2451331e-23
3.2420931e-23
3.2403951e-23
3.2394913e-23
3.2390502e-23
3.2388712e-23
3.2388521e-23
3.2389696e-23
3.2392763e-23
3.2399319e-23
3.2446883e-23
3.2416495e-23
3.2399528e-23
3.2390502e-23
3.2386101e-23
3.2384323e-23
3.2384151e-23
3.2385356e-23
3.2388462e-23
3.2395051e-23
3.244504e-23
3.2414668e-23
3.2397721e-23
3.2388712e-23
3.2384323e-23
3.2382554e-23
3.2382394e-23
3.2383614e-23
3.2386737e-23
3.239334e-23
3.2444743e-23
3.2414406e-23
3.23975e-23
3.2388521e-23
3.2384151e-23
3.2382394e-23
3.2382241e-23
3.2383469e-23
3.23866e-23
3.2393209e-23
3.2445691e-23
3.2415443e-23
3.239862e-23
3.2389696e-23
3.2385356e-23
3.2383614e-23
3.2383469e-23
3.2384703e-23
3.2387838e-23
3.239445e-23
3.2448273e-23
3.2418266e-23
3.2401604e-23
3.2392763e-23
3.2388462e-23
3.2386737e-23
3.23866e-23
3.2387838e-23
3.2390978e-23
3.2397595e-23
3.2453796e-23
3.2424498e-23
3.2408073e-23
3.2399319e-23
3.2395051e-23
3.239334e-23
3.2393209e-23
3.239445e-23
3.2397595e-23
3.2404231e-23
6.6677503e-23
6.6617005e-23
6.658311e-23
6.6565024e-23
6.6556154e-23
6.6552473e-23
6.6551873e-23
6.6553741e-23
6.6558809e-23
6.656955e-23
6.6617005e-23
6.6556735e-23
6.6522924e-23
6.6504875e-23
6.6496029e-23
6.6492382e-23
6.6491853e-23
6.6493901e-23
6.6499458e-23
6.6511641e-23
6.658311e-23
6.6522924e-23
6.6489165e-23
6.6471147e-23
6.6462328e-23
6.645872e-23
6.6458274e-23
6.6460493e-23
6.6466375e-23
6.647904e-23
6.6565024e-23
6.6504875e-23
6.6471147e-23
6.6453153e-23
6.6444356e-23
6.6440782e-23
6.6440398e-23
6.6442727e-23
6.6448778e-23
6.646162e-23
6.6556154e-23
6.6496029e-23
6.6462328e-23
6.6444356e-23
6.643558e-23
6.6432031e-23
6.6431684e-23
6.6434074e-23
6.6440205e-23
6.6453114e-23
6.6552473e-23
6.6492382e-23
6.645872e-23
6.6440782e-23
6.6432031e-23
6.6428502e-23
6.6428179e-23
6.6430599e-23
6.6436765e-23
6.6449701e-23
6.6551873e-23
6.6491853e-23
6.6458274e-23
6.6440398e-23
6.6431684e-23
6.6428179e-23
6.6427872e-23
6.6430308e-23
6.643649e-23
6.6449437e-23
6.6553741e-23
6.6493901e-23
6.6460493e-23
6.6442727e-23
6.6434074e-23
6.6430599e-23
6.6430308e-23
6.6432755e-23
6.6438945e-23
6.6451899e-23
6.6558809e-23
6.6499458e-23
6.6466375e-23
6.6448778e-23
6.6440205e-23
6.6436765e-23
6.643649e-23
6.6438945e-23
6.6445144e-23
6.6458109e-23
6.656955e-23
6.6511641e-23
6.647904e-23
6.646162e-23
6.6453114e-23
6.6449701e-23
6.6449437e-23
6.6451899e-23
6.6458109e-23
6.647111e-23
1.383283e-22
1.3820729e-22
1.3813924e-22
1.3810284e-22
1.3808496e-22
1.3807753e-22
1.3807631e-22
1.3808003e-22
1.3809008e-22
1.3811121e-22
1.3820729e-22
1.3808674e-22
1.3801885e-22
1.3798253e-22
1.3796469e-22
1.3795733e-22
1.3795626e-22
1.3796035e-22
1.3797141e-22
1.3799549e-22
1.3813924e-22
1.3801885e-22
1.3795107e-22
1.379148e-22
1.3789702e-22
1.3788974e-22
1.3788884e-22
1.3789328e-22
1.3790501e-22
1.3793008e-22
1.3810284e-22
1.3798253e-22
1.379148e-22
1.3787858e-22
1.3786085e-22
1.3785364e-22
1.3785286e-22
1.3785753e-22
1.378696e-22
1.3789504e-22
1.3808496e-22
1.3796469e-22
1.3789702e-22
1.3786085e-22
1.3784316e-22
1.37836e-22
1.378353e-22
1.3784009e-22
1.3785233e-22
1.3787791e-22
1.3807753e-22
1.3795733e-22
1.3788974e-22
1.3785364e-22
1.37836e-22
1.3782888e-22
1.3782823e-22
1.3783308e-22
1.3784539e-22
1.3787102e-22
1.3807631e-22
1.3795626e-22
1.3788884e-22
1.3785286e-22
1.378353e-22
1.3782823e-22
1.378276e-22
1.3783249e-22
1.3784483e-22
1.3787049e-22
1.3808003e-22
1.3796035e-22
1.3789328e-22
1.3785753e-22
1.3784009e-22
1.3783308e-22
1.3783249e-22
1.378374e-22
1.3784976e-22
1.3787543e-22
1.3809008e-22
1.3797141e-22
1.3790501e-22
1.378696e-22
1.3785233e-22
1.3784539e-22
1.3784483e-22
1.3784976e-22
1.3786214e-22
1.3788783e-22
1.3811121e-22
1.3799549e-22
1.3793008e-22
1.3789504e-22
1.3787791e-22
1.3787102e-22
1.3787049e-22
1.3787543e-22
1.3788783e-22
1.3791359e-22
2.9026932e-22
2.9002463e-22
2.898865e-22
2.8981243e-22
2.8977599e-22
2.8976084e-22
2.8975832e-22
2.8976582e-22
2.8978601e-22
2.8982801e-22
2.9002463e-22
2.8978086e-22
2.8964305e-22
2.8956913e-22
2.895328e-22
2.8951778e-22
2.8951557e-22
2.8952384e-22
2.895461e-22
2.8959426e-22
2.898865e-22
2.8964305e-22
2.8950546e-22
2.8943166e-22
2.8939544e-22
2.8938059e-22
2.8937873e-22
2.8938772e-22
2.8941137e-22
2.8946159e-22
2.8981243e-22
2.8956913e-22
2.8943166e-22
2.8935797e-22
2.8932184e-22
2.8930713e-22
2.8930553e-22
2.8931499e-22
2.8933937e-22
2.8939034e-22
2.8977599e-22
2.895328e-22
2.8939544e-22
2.8932184e-22
2.8928579e-22
2.8927119e-22
2.8926975e-22
2.8927947e-22
2.8930418e-22
2.8935544e-22
2.8976084e-22
2.8951778e-22
2.8938059e-22
2.8930713e-22
2.8927119e-22
2.8925667e-22
2.8925533e-22
2.8926518e-22
2.8929004e-22
2.8934141e-22
2.8975832e-22
2.8951557e-22
2.8937873e-22
2.8930553e-22
2.8926975e-22
2.8925533e-22
2.8925406e-22
2.8926398e-22
2.892889e-22
2.8934032e-22
2.8976582e-22
2.8952384e-22
2.8938772e-22
2.8931499e-22
2.8927947e-22
2.8926518e-22
2.8926398e-22
2.8927394e-22
2.892989e-22
2.8935035e-22
2.8978601e-22
2.895461e-22
2.8941137e-22
2.8933937e-22
2.8930418e-22
2.8929004e-22
2.892889e-22
2.892989e-22
2.893239e-22
2.8937539e-22
2.8982801e-22
2.8959426e-22
2.8946159e-22
2.8939034e-22
2.8935544e-22
2.8934141e-22
2.8934032e-22
2.8935035e-22
2.8937539e-22
2.8942702e-22
6.1611317e-22
6.1561295e-22
6.1532951e-22
6.1517717e-22
6.1510211e-22
6.1507086e-22
6.1506563e-22
6.1508092e-22
6.1512188e-22
6.1520633e-22
6.1561295e-22
6.1511458e-22
6.148318e-22
6.1467976e-22
6.1460491e-22
6.1457395e-22
6.1456936e-22
6.1458625e-22
6.1463159e-22
6.1472898e-22
6.1532951e-22
6.148318e-22
6.1454945e-22
6.1439767e-22
6.1432304e-22
6.1429244e-22
6.1428857e-22
6.1430699e-22
6.1435524e-22
6.1445694e-22
6.1517717e-22
6.1467976e-22
6.1439767e-22
6.1424609e-22
6.1417166e-22
6.1414135e-22
6.1413803e-22
6.1415744e-22
6.1420719e-22
6.1431048e-22
6.1510211e-22
6.1460491e-22
6.1432304e-22
6.1417166e-22
6.1409741e-22
6.1406732e-22
6.1406434e-22
6.1408428e-22
6.1413474e-22
6.1423864e-22
6.1507086e-22
6.1457395e-22
6.1429244e-22
6.1414135e-22
6.1406732e-22
6.140374e-22
6.1403463e-22
6.1405484e-22
6.1410562e-22
6.1420975e-22
6.1506563e-22
6.1456936e-22
6.1428857e-22
6.1413803e-22
6.1406434e-22
6.1403463e-22
6.1403201e-22
6.1405236e-22
6.1410327e-22
6.142075e-22
6.1508092e-22
6.1458625e-22
6.1430699e-22
6.1415744e-22
6.1408428e-22
6.1405484e-22
6.1405236e-22
6.1407281e-22
6.141238e-22
6.1422809e-22
6.1512188e-22
6.1463159e-22
6.1435524e-22
6.1420719e-22
6.1413474e-22
6.1410562e-22
6.1410327e-22
6.141238e-22
6.1417486e-22
6.1427924e-22
6.1520633e-22
6.1472898e-22
6.1445694e-22
6.1431048e-22
6.1423864e-22
6.1420975e-22
6.142075e-22
6.1422809e-22
6.1427924e-22
6.1438389e-22
1.3228049e-21
1.321771e-21
1.3211831e-21
1.3208663e-21
1.32071e-21
1.3206449e-21
1.3206339e-21
1.3206654e-21
1.3207495e-21
1.3209212e-21
1.321771e-21
1.320741e-21
1.3201544e-21
1.3198382e-21
1.3196824e-21
1.3196178e-21
1.3196082e-21
1.3196431e-21
1.3197365e-21
1.3199357e-21
1.3211831e-21
1.3201544e-21
1.3195686e-21
1.319253e-21
1.3190976e-21
1.3190339e-21
1.3190258e-21
1.3190639e-21
1.3191635e-21
1.3193718e-21
1.3208663e-21
1.3198382e-21
1.319253e-21
1.3189379e-21
1.3187829e-21
1.3187197e-21
1.3187128e-21
1.318753e-21
1.3188558e-21
1.3190675e-21
1.32071e-21
1.3196824e-21
1.3190976e-21
1.3187829e-21
1.3186283e-21
1.3185656e-21
1.3185594e-21
1.3186008e-21
1.318705e-21
1.318918e-21
1.3206449e-21
1.3196178e-21
1.3190339e-21
1.3187197e-21
1.3185656e-21
1.3185033e-21
1.3184975e-21
1.3185394e-21
1.3186443e-21
1.3188578e-21
1.3206339e-21
1.3196082e-21
1.3190258e-21
1.3187128e-21
1.3185594e-21
1.3184975e-21
1.318492e-21
1.3185343e-21
1.3186395e-21
1.3188532e-21
1.3206654e-21
1.3196431e-21
1.3190639e-21
1.318753e-21
1.3186008e-21
1.3185394e-21
1.3185343e-21
1.3185767e-21
1.3186821e-21
1.3188959e-21
1.3207495e-21
1.3197365e-21
1.3191635e-21
1.3188558e-21
1.318705e-21
1.3186443e-21
1.3186395e-21
1.3186821e-21
1.3187876e-21
1.3190016e-21
1.3209212e-21
1.3199357e-21
1.3193718e-21
1.3190675e-21
1.318918e-21
1.3188578e-21
1.3188532e-21
1.3188959e-21
1.3190016e-21
1.3192162e-21
2.8728252e-21
2.8706651e-21
2.869432e-21
2.8687663e-21
2.8684373e-21
2.8683001e-21
2.8682768e-21
2.8683425e-21
2.8685171e-21
2.8688702e-21
2.8706651e-21
2.8685127e-21
2.8672825e-21
2.866618e-21
2.86629e-21
2.866154e-21
2.8661336e-21
2.8662067e-21
2.8664011e-21
2.8668132e-21
2.869432e-21
2.8672825e-21
2.8660542e-21
2.8653908e-21
2.8650637e-21
2.8649294e-21
2.8649123e-21
2.8649923e-21
2.8651999e-21
2.8656317e-21
2.8687663e-21
2.866618e-21
2.8653908e-21
2.8647283e-21
2.8644021e-21
2.8642691e-21
2.8642545e-21
2.8643389e-21
2.8645535e-21
2.8649924e-21
2.8684373e-21
2.86629e-21
2.8650637e-21
2.8644021e-21
2.8640768e-21
2.8639447e-21
2.8639316e-21
2.8640185e-21
2.8642363e-21
2.864678e-21
2.8683001e-21
2.866154e-21
2.8649294e-21
2.8642691e-21
2.8639447e-21
2.8638135e-21
2.8638014e-21
2.8638895e-21
2.8641086e-21
2.8645514e-21
2.8682768e-21
2.8661336e-21
2.8649123e-21
2.8642545e-21
2.8639316e-21
2.8638014e-21
2.8637899e-21
2.8638786e-21
2.8640984e-21
2.8645417e-21
2.8683425e-21
2.8662067e-21
2.8649923e-21
2.8643389e-21
2.8640185e-21
2.8638895e-21
2.8638786e-21
2.8639678e-21
2.8641879e-21
2.8646314e-21
2.8685171e-21
2.8664011e-21
2.8651999e-21
2.8645535e-21
2.8642363e-21
2.8641086e-21
2.8640984e-21
2.8641879e-21
2.8644084e-21
2.8648522e-21
2.8688702e-21
2.8668132e-21
2.8656317e-21
2.8649924e-21
2.864678e-21
2.8645514e-21
2.8645417e-21
2.8646314e-21
2.8648522e-21
2.8652972e-21
6.3110002e-21
6.3064371e-21
6.3038233e-21
6.3024088e-21
6.3017089e-21
6.3014167e-21
6.3013668e-21
6.3015054e-21
6.3018719e-21
6.3026061e-21
6.3064371e-21
6.3018905e-21
6.2992826e-21
6.2978708e-21
6.2971728e-21
6.2968833e-21
6.2968397e-21
6.2969942e-21
6.2974038e-21
6.2982661e-21
6.3038233e-21
6.2992826e-21
6.2966785e-21
6.2952691e-21
6.2945732e-21
6.2942872e-21
6.2942507e-21
6.2944202e-21
6.2948585e-21
6.2957634e-21
6.3024088e-21
6.2978708e-21
6.2952691e-21
6.2938615e-21
6.2931675e-21
6.2928844e-21
6.2928533e-21
6.2930325e-21
6.2934856e-21
6.2944061e-21
6.3017089e-21
6.2971728e-21
6.2945732e-21
6.2931675e-21
6.2924753e-21
6.2921943e-21
6.2921665e-21
6.2923509e-21
6.2928111e-21
6.2937376e-21
6.3014167e-21
6.2968833e-21
6.2942872e-21
6.2928844e-21
6.2921943e-21
6.291915e-21
6.2918893e-21
6.2920764e-21
6.2925395e-21
6.2934684e-21
6.3013668e-21
6.2968397e-21
6.2942507e-21
6.2928533e-21
6.2921665e-21
6.2918893e-21
6.291865e-21
6.2920534e-21
6.292518e-21
6.2934478e-21
6.3015054e-21
6.2969942e-21
6.2944202e-21
6.2930325e-21
6.2923509e-21
6.2920764e-21
6.2920534e-21
6.2922428e-21
6.2927081e-21
6.2936385e-21
6.3018719e-21
6.2974038e-21
6.2948585e-21
6.2934856e-21
6.2928111e-21
6.2925395e-21
6.292518e-21
6.2927081e-21
6.293174e-21
6.2941052e-21
6.3026061e-21
6.2982661e-21
6.2957634e-21
6.2944061e-21
6.2937376e-21
6.2934684e-21
6.2934478e-21
6.2936385e-21
6.2941052e-21
6.2950386e-21
1.4023459e-20
1.4013715e-20
1.4008114e-20
1.4005076e-20
1.4003571e-20
1.4002942e-20
1.4002834e-20
1.400313e-20
1.4003908e-20
1.4005452e-20
1.4013715e-20
1.4004006e-20
1.3998418e-20
1.3995386e-20
1.3993884e-20
1.3993261e-20
1.3993167e-20
1.3993498e-20
1.399437e-20
1.3996195e-20
1.4008114e-20
1.3998418e-20
1.3992837e-20
1.398981e-20
1.3988314e-20
1.3987698e-20
1.398762e-20
1.3987983e-20
1.3988919e-20
1.3990837e-20
1.4005076e-20
1.3995386e-20
1.398981e-20
1.3986787e-20
1.3985295e-20
1.3984686e-20
1.3984619e-20
1.3985003e-20
1.3985971e-20
1.3987924e-20
1.4003571e-20
1.3993884e-20
1.3988314e-20
1.3985295e-20
1.3983806e-20
1.3983202e-20
1.3983142e-20
1.3983538e-20
1.3984522e-20
1.3986487e-20
1.4002942e-20
1.3993261e-20
1.3987698e-20
1.3984686e-20
1.3983202e-20
1.3982601e-20
1.3982546e-20
1.3982948e-20
1.3983938e-20
1.3985909e-20
1.4002834e-20
1.3993167e-20
1.398762e-20
1.3984619e-20
1.3983142e-20
1.3982546e-20
1.3982494e-20
1.3982899e-20
1.3983892e-20
1.3985865e-20
1.400313e-20
1.3993498e-20
1.3987983e-20
1.3985003e-20
1.3983538e-20
1.3982948e-20
1.3982899e-20
1.3983306e-20
1.3984301e-20
1.3986275e-20
1.4003908e-20
1.399437e-20
1.3988919e-20
1.3985971e-20
1.3984522e-20
1.3983938e-20
1.3983892e-20
1.3984301e-20
1.3985297e-20
1.3987272e-20
1.4005452e-20
1.3996195e-20
1.3990837e-20
1.3987924e-20
1.3986487e-20
1.3985909e-20
1.3985865e-20
1.3986275e-20
1.3987272e-20
1.3989253e-20
3.1518616e-20
3.1497584e-20
3.1485452e-20
3.1478858e-20
3.1475586e-20
3.1474218e-20
3.1473982e-20
3.147462e-20
3.1476291e-20
3.1479574e-20
3.1497584e-20
3.1476626e-20
3.1464521e-20
3.1457939e-20
3.1454676e-20
3.1453321e-20
3.1453115e-20
3.1453831e-20
3.1455711e-20
3.1459617e-20
3.1485452e-20
3.1464521e-20
3.1452433e-20
3.1445862e-20
3.1442609e-20
3.1441271e-20
3.14411e-20
3.1441888e-20
3.1443908e-20
3.1448021e-20
3.1478858e-20
3.1457939e-20
3.1445862e-20
3.14393e-20
3.1436056e-20
3.1434731e-20
3.1434587e-20
3.1435422e-20
3.1437513e-20
3.1441703e-20
3.1475586e-20
3.1454676e-20
3.1442609e-20
3.1436056e-20
3.1432821e-20
3.1431506e-20
3.1431378e-20
3.1432238e-20
3.1434364e-20
3.1438582e-20
3.1474218e-20
3.1453321e-20
3.1441271e-20
3.1434731e-20
3.1431506e-20
3.1430201e-20
3.1430082e-20
3.1430955e-20
3.1433095e-20
3.1437325e-20
3.1473982e-20
3.1453115e-20
3.14411e-20
3.1434587e-20
3.1431378e-20
3.1430082e-20
3.142997e-20
3.143085e-20
3.1432997e-20
3.1437231e-20
3.147462e-20
3.1453831e-20
3.1441888e-20
3.1435422e-20
3.1432238e-20
3.1430955e-20
3.143085e-20
3.1431734e-20
3.1433885e-20
3.1438122e-20
3.1476291e-20
3.1455711e-20
3.1443908e-20
3.1437513e-20
3.1434364e-20
3.1433095e-20
3.1432997e-20
3.1433885e-20
3.1436038e-20
3.1440279e-20
3.1479574e-20
3.1459617e-20
3.1448021e-20
3.1441703e-20
3.1438582e-20
3.1437325e-20
3.1437231e-20
3.1438122e-20
3.1440279e-20
3.1444529e-20
7.1649894e-20
7.1604005e-20
7.1577445e-20
7.1562978e-20
7.1555791e-20
7.1552783e-20
7.1552264e-20
7.1553657e-20
7.1557284e-20
7.1564343e-20
7.1604005e-20
7.1558276e-20
7.1531775e-20
7.1517334e-20
7.1510166e-20
7.1507188e-20
7.1506736e-20
7.1508302e-20
7.1512399e-20
7.1520855e-20
7.1577445e-20
7.1531775e-20
7.1505312e-20
7.1490895e-20
7.1483749e-20
7.1480808e-20
7.1480434e-20
7.1482162e-20
7.1486571e-20
7.1495491e-20
7.1562978e-20
7.1517334e-20
7.1490895e-20
7.1476498e-20
7.1469372e-20
7.1466462e-20
7.1466145e-20
7.1467979e-20
7.1472549e-20
7.148164e-20
7.1555791e-20
7.1510166e-20
7.1483749e-20
7.1469372e-20
7.1462265e-20
7.1459378e-20
7.1459098e-20
7.1460988e-20
7.1465634e-20
7.1474789e-20
7.1552783e-20
7.1507188e-20
7.1480808e-20
7.1466462e-20
7.1459378e-20
7.1456509e-20
7.1456251e-20
7.145817e-20
7.146285e-20
7.147203e-20
7.1552264e-20
7.1506736e-20
7.1480434e-20
7.1466145e-20
7.1459098e-20
7.1456251e-20
7.1456008e-20
7.1457942e-20
7.1462637e-20
7.1471828e-20
7.1553657e-20
7.1508302e-20
7.1482162e-20
7.1467979e-20
7.1460988e-20
7.145817e-20
7.1457942e-20
7.1459886e-20
7.1464588e-20
7.1473785e-20
7.1557284e-20
7.1512399e-20
7.1486571e-20
7.1472549e-20
7.1465634e-20
7.146285e-20
7.1462637e-20
7.1464588e-20
7.1469297e-20
7.1478501e-20
7.1564343e-20
7.1520855e-20
7.1495491e-20
7.148164e-20
7.1474789e-20
7.147203e-20
7.1471828e-20
7.1473785e-20
7.1478501e-20