/*--------------------------------*- C++ -*----------------------------------*\
| =========                 |                                                 |
| \\      /  F ield         | OpenFOAM: The Open Source CFD Toolbox           |
|  \\    /   O peration     | Version:  dev                                   |
|   \\  /    A nd           | Web:      www.OpenFOAM.org                      |
|    \\/     M anipulation  |                                                 |
\*---------------------------------------------------------------------------*/
FoamFile
{
    version     2.0;
    format      ascii;
    class       volScalarField;
    location    "1";
    object      A;
}
// * * * * * * * * * * * * * * * * * * * * * * * * * * * * * * * * * * * * * //

dimensions      [0 0 0 0 1 0 0];

internalField   nonuniform List<scalar> 
10000
(
1.1526758e-138
1.1457783e-138
1.145441e-138
1.1454297e-138
1.1454294e-138
1.1454294e-138
1.1454294e-138
1.1454294e-138
1.1454295e-138
1.1454303e-138
1.1457783e-138
1.138925e-138
1.1385899e-138
1.1385787e-138
1.1385784e-138
1.1385784e-138
1.1385784e-138
1.1385784e-138
1.1385788e-138
1.1385872e-138
1.145441e-138
1.1385899e-138
1.1382549e-138
1.1382437e-138
1.1382434e-138
1.1382434e-138
1.1382434e-138
1.1382434e-138
1.1382439e-138
1.1382526e-138
1.1454297e-138
1.1385787e-138
1.1382437e-138
1.1382325e-138
1.1382322e-138
1.1382322e-138
1.1382322e-138
1.1382322e-138
1.1382327e-138
1.1382414e-138
1.1454294e-138
1.1385784e-138
1.1382434e-138
1.1382322e-138
1.1382319e-138
1.1382319e-138
1.1382319e-138
1.138232e-138
1.1382324e-138
1.1382411e-138
1.1454294e-138
1.1385784e-138
1.1382434e-138
1.1382322e-138
1.1382319e-138
1.1382319e-138
1.1382319e-138
1.1382319e-138
1.1382324e-138
1.1382411e-138
1.1454294e-138
1.1385784e-138
1.1382434e-138
1.1382322e-138
1.1382319e-138
1.1382319e-138
1.1382319e-138
1.1382319e-138
1.1382324e-138
1.1382411e-138
1.1454294e-138
1.1385784e-138
1.1382434e-138
1.1382322e-138
1.138232e-138
1.1382319e-138
1.1382319e-138
1.138232e-138
1.1382324e-138
1.1382411e-138
1.1454295e-138
1.1385788e-138
1.1382439e-138
1.1382327e-138
1.1382324e-138
1.1382324e-138
1.1382324e-138
1.1382324e-138
1.1382329e-138
1.1382416e-138
1.1454303e-138
1.1385872e-138
1.1382526e-138
1.1382414e-138
1.1382411e-138
1.1382411e-138
1.1382411e-138
1.1382411e-138
1.1382416e-138
1.1382503e-138
5.230279e-137
5.1997394e-137
5.198246e-137
5.1981961e-137
5.1981948e-137
5.1981948e-137
5.1981948e-137
5.1981948e-137
5.1981949e-137
5.1981989e-137
5.1997394e-137
5.1693916e-137
5.1679076e-137
5.167858e-137
5.1678567e-137
5.1678567e-137
5.1678567e-137
5.1678568e-137
5.1678586e-137
5.1678963e-137
5.198246e-137
5.1679076e-137
5.1664241e-137
5.1663745e-137
5.1663732e-137
5.1663732e-137
5.1663732e-137
5.1663733e-137
5.1663753e-137
5.1664145e-137
5.1981961e-137
5.167858e-137
5.1663745e-137
5.1663249e-137
5.1663236e-137
5.1663236e-137
5.1663236e-137
5.1663237e-137
5.1663257e-137
5.1663649e-137
5.1981948e-137
5.1678567e-137
5.1663732e-137
5.1663236e-137
5.1663224e-137
5.1663223e-137
5.1663223e-137
5.1663224e-137
5.1663244e-137
5.1663636e-137
5.1981948e-137
5.1678567e-137
5.1663732e-137
5.1663236e-137
5.1663223e-137
5.1663223e-137
5.1663223e-137
5.1663224e-137
5.1663244e-137
5.1663636e-137
5.1981948e-137
5.1678567e-137
5.1663732e-137
5.1663236e-137
5.1663223e-137
5.1663223e-137
5.1663223e-137
5.1663224e-137
5.1663244e-137
5.1663636e-137
5.1981948e-137
5.1678568e-137
5.1663733e-137
5.1663237e-137
5.1663224e-137
5.1663224e-137
5.1663224e-137
5.1663225e-137
5.1663244e-137
5.1663637e-137
5.1981949e-137
5.1678586e-137
5.1663753e-137
5.1663257e-137
5.1663244e-137
5.1663244e-137
5.1663244e-137
5.1663244e-137
5.1663264e-137
5.1663657e-137
5.1981989e-137
5.1678963e-137
5.1664145e-137
5.1663649e-137
5.1663636e-137
5.1663636e-137
5.1663636e-137
5.1663637e-137
5.1663657e-137
5.1664049e-137
2.3981387e-135
2.384485e-135
2.3838174e-135
2.3837951e-135
2.3837945e-135
2.3837945e-135
2.3837945e-135
2.3837945e-135
2.3837946e-135
2.3837963e-135
2.384485e-135
2.370915e-135
2.3702516e-135
2.3702294e-135
2.3702288e-135
2.3702288e-135
2.3702288e-135
2.3702288e-135
2.3702297e-135
2.3702468e-135
2.3838174e-135
2.3702516e-135
2.3695883e-135
2.3695662e-135
2.3695656e-135
2.3695656e-135
2.3695656e-135
2.3695656e-135
2.3695665e-135
2.3695843e-135
2.3837951e-135
2.3702294e-135
2.3695662e-135
2.369544e-135
2.3695434e-135
2.3695434e-135
2.3695434e-135
2.3695434e-135
2.3695443e-135
2.3695621e-135
2.3837945e-135
2.3702288e-135
2.3695656e-135
2.3695434e-135
2.3695429e-135
2.3695429e-135
2.3695429e-135
2.3695429e-135
2.3695438e-135
2.3695616e-135
2.3837945e-135
2.3702288e-135
2.3695656e-135
2.3695434e-135
2.3695429e-135
2.3695428e-135
2.3695428e-135
2.3695429e-135
2.3695438e-135
2.3695616e-135
2.3837945e-135
2.3702288e-135
2.3695656e-135
2.3695434e-135
2.3695429e-135
2.3695428e-135
2.3695428e-135
2.3695429e-135
2.3695438e-135
2.3695616e-135
2.3837945e-135
2.3702288e-135
2.3695656e-135
2.3695434e-135
2.3695429e-135
2.3695429e-135
2.3695429e-135
2.3695429e-135
2.3695438e-135
2.3695616e-135
2.3837946e-135
2.3702297e-135
2.3695665e-135
2.3695443e-135
2.3695438e-135
2.3695438e-135
2.3695438e-135
2.3695438e-135
2.3695447e-135
2.3695625e-135
2.3837963e-135
2.3702468e-135
2.3695843e-135
2.3695621e-135
2.3695616e-135
2.3695616e-135
2.3695616e-135
2.3695616e-135
2.3695625e-135
2.3695803e-135
1.1362096e-133
1.1299046e-133
1.1295964e-133
1.1295861e-133
1.1295858e-133
1.1295858e-133
1.1295858e-133
1.1295858e-133
1.1295859e-133
1.1295867e-133
1.1299046e-133
1.1236374e-133
1.123331e-133
1.1233208e-133
1.1233205e-133
1.1233205e-133
1.1233205e-133
1.1233205e-133
1.1233209e-133
1.1233289e-133
1.1295964e-133
1.123331e-133
1.1230248e-133
1.1230145e-133
1.1230143e-133
1.1230143e-133
1.1230143e-133
1.1230143e-133
1.1230147e-133
1.123023e-133
1.1295861e-133
1.1233208e-133
1.1230145e-133
1.1230043e-133
1.1230041e-133
1.123004e-133
1.123004e-133
1.1230041e-133
1.1230045e-133
1.1230128e-133
1.1295858e-133
1.1233205e-133
1.1230143e-133
1.1230041e-133
1.1230038e-133
1.1230038e-133
1.1230038e-133
1.1230038e-133
1.1230042e-133
1.1230125e-133
1.1295858e-133
1.1233205e-133
1.1230143e-133
1.123004e-133
1.1230038e-133
1.1230038e-133
1.1230038e-133
1.1230038e-133
1.1230042e-133
1.1230125e-133
1.1295858e-133
1.1233205e-133
1.1230143e-133
1.123004e-133
1.1230038e-133
1.1230038e-133
1.1230038e-133
1.1230038e-133
1.1230042e-133
1.1230125e-133
1.1295858e-133
1.1233205e-133
1.1230143e-133
1.1230041e-133
1.1230038e-133
1.1230038e-133
1.1230038e-133
1.1230038e-133
1.1230042e-133
1.1230126e-133
1.1295859e-133
1.1233209e-133
1.1230147e-133
1.1230045e-133
1.1230042e-133
1.1230042e-133
1.1230042e-133
1.1230042e-133
1.1230047e-133
1.123013e-133
1.1295867e-133
1.1233289e-133
1.123023e-133
1.1230128e-133
1.1230125e-133
1.1230125e-133
1.1230125e-133
1.1230126e-133
1.123013e-133
1.1230213e-133
5.5616924e-132
5.5316253e-132
5.5301559e-132
5.5301068e-132
5.5301056e-132
5.5301055e-132
5.5301055e-132
5.5301055e-132
5.5301057e-132
5.5301094e-132
5.5316253e-132
5.5017342e-132
5.5002734e-132
5.5002246e-132
5.5002233e-132
5.5002233e-132
5.5002233e-132
5.5002234e-132
5.5002253e-132
5.500264e-132
5.5301559e-132
5.5002734e-132
5.498813e-132
5.4987642e-132
5.498763e-132
5.498763e-132
5.498763e-132
5.4987631e-132
5.4987651e-132
5.4988053e-132
5.5301068e-132
5.5002246e-132
5.4987642e-132
5.4987154e-132
5.4987142e-132
5.4987142e-132
5.4987142e-132
5.4987143e-132
5.4987163e-132
5.4987565e-132
5.5301056e-132
5.5002233e-132
5.498763e-132
5.4987142e-132
5.498713e-132
5.498713e-132
5.498713e-132
5.498713e-132
5.4987151e-132
5.4987553e-132
5.5301055e-132
5.5002233e-132
5.498763e-132
5.4987142e-132
5.498713e-132
5.4987129e-132
5.4987129e-132
5.498713e-132
5.498715e-132
5.4987553e-132
5.5301055e-132
5.5002233e-132
5.498763e-132
5.4987142e-132
5.498713e-132
5.4987129e-132
5.4987129e-132
5.498713e-132
5.498715e-132
5.4987553e-132
5.5301055e-132
5.5002234e-132
5.4987631e-132
5.4987143e-132
5.498713e-132
5.498713e-132
5.498713e-132
5.4987131e-132
5.4987151e-132
5.4987554e-132
5.5301057e-132
5.5002253e-132
5.4987651e-132
5.4987163e-132
5.4987151e-132
5.498715e-132
5.498715e-132
5.4987151e-132
5.4987172e-132
5.4987574e-132
5.5301094e-132
5.500264e-132
5.4988053e-132
5.4987565e-132
5.4987553e-132
5.4987553e-132
5.4987553e-132
5.4987554e-132
5.4987574e-132
5.4987976e-132
2.8121672e-130
2.7973631e-130
2.7966397e-130
2.7966156e-130
2.796615e-130
2.7966149e-130
2.7966149e-130
2.7966149e-130
2.796615e-130
2.7966168e-130
2.7973631e-130
2.7826435e-130
2.7819243e-130
2.7819003e-130
2.7818997e-130
2.7818997e-130
2.7818997e-130
2.7818997e-130
2.7819007e-130
2.78192e-130
2.7966397e-130
2.7819243e-130
2.7812053e-130
2.7811813e-130
2.7811807e-130
2.7811807e-130
2.7811807e-130
2.7811807e-130
2.7811818e-130
2.7812018e-130
2.7966156e-130
2.7819003e-130
2.7811813e-130
2.7811573e-130
2.7811567e-130
2.7811567e-130
2.7811567e-130
2.7811567e-130
2.7811578e-130
2.7811778e-130
2.796615e-130
2.7818997e-130
2.7811807e-130
2.7811567e-130
2.7811561e-130
2.7811561e-130
2.7811561e-130
2.7811561e-130
2.7811571e-130
2.7811772e-130
2.7966149e-130
2.7818997e-130
2.7811807e-130
2.7811567e-130
2.7811561e-130
2.7811561e-130
2.7811561e-130
2.7811561e-130
2.7811571e-130
2.7811772e-130
2.7966149e-130
2.7818997e-130
2.7811807e-130
2.7811567e-130
2.7811561e-130
2.7811561e-130
2.7811561e-130
2.7811561e-130
2.7811571e-130
2.7811772e-130
2.7966149e-130
2.7818997e-130
2.7811807e-130
2.7811567e-130
2.7811561e-130
2.7811561e-130
2.7811561e-130
2.7811561e-130
2.7811572e-130
2.7811773e-130
2.796615e-130
2.7819007e-130
2.7811818e-130
2.7811578e-130
2.7811571e-130
2.7811571e-130
2.7811571e-130
2.7811572e-130
2.7811582e-130
2.7811783e-130
2.7966168e-130
2.78192e-130
2.7812018e-130
2.7811778e-130
2.7811772e-130
2.7811772e-130
2.7811772e-130
2.7811773e-130
2.7811783e-130
2.7811984e-130
1.4685156e-128
1.4609912e-128
1.4606237e-128
1.4606114e-128
1.4606111e-128
1.4606111e-128
1.4606111e-128
1.4606111e-128
1.4606111e-128
1.460612e-128
1.4609912e-128
1.4535088e-128
1.4531433e-128
1.4531311e-128
1.4531308e-128
1.4531308e-128
1.4531308e-128
1.4531308e-128
1.4531313e-128
1.4531412e-128
1.4606237e-128
1.4531433e-128
1.4527779e-128
1.4527657e-128
1.4527654e-128
1.4527653e-128
1.4527653e-128
1.4527654e-128
1.4527659e-128
1.4527762e-128
1.4606114e-128
1.4531311e-128
1.4527657e-128
1.4527535e-128
1.4527532e-128
1.4527531e-128
1.4527531e-128
1.4527532e-128
1.4527537e-128
1.4527641e-128
1.4606111e-128
1.4531308e-128
1.4527654e-128
1.4527532e-128
1.4527528e-128
1.4527528e-128
1.4527528e-128
1.4527529e-128
1.4527534e-128
1.4527638e-128
1.4606111e-128
1.4531308e-128
1.4527653e-128
1.4527531e-128
1.4527528e-128
1.4527528e-128
1.4527528e-128
1.4527528e-128
1.4527534e-128
1.4527637e-128
1.4606111e-128
1.4531308e-128
1.4527653e-128
1.4527531e-128
1.4527528e-128
1.4527528e-128
1.4527528e-128
1.4527528e-128
1.4527534e-128
1.4527637e-128
1.4606111e-128
1.4531308e-128
1.4527654e-128
1.4527532e-128
1.4527529e-128
1.4527528e-128
1.4527528e-128
1.4527529e-128
1.4527534e-128
1.4527638e-128
1.4606111e-128
1.4531313e-128
1.4527659e-128
1.4527537e-128
1.4527534e-128
1.4527534e-128
1.4527534e-128
1.4527534e-128
1.4527539e-128
1.4527643e-128
1.460612e-128
1.4531412e-128
1.4527762e-128
1.4527641e-128
1.4527638e-128
1.4527637e-128
1.4527637e-128
1.4527638e-128
1.4527643e-128
1.4527747e-128
7.9183192e-127
7.8788495e-127
7.8769218e-127
7.8768574e-127
7.8768558e-127
7.8768558e-127
7.8768558e-127
7.8768558e-127
7.876856e-127
7.8768607e-127
7.8788495e-127
7.8395943e-127
7.8376772e-127
7.8376132e-127
7.8376115e-127
7.8376115e-127
7.8376115e-127
7.8376116e-127
7.8376143e-127
7.8376672e-127
7.8769218e-127
7.8376772e-127
7.8357605e-127
7.8356965e-127
7.8356949e-127
7.8356949e-127
7.8356949e-127
7.835695e-127
7.8356978e-127
7.8357529e-127
7.8768574e-127
7.8376132e-127
7.8356965e-127
7.8356326e-127
7.8356309e-127
7.8356309e-127
7.8356309e-127
7.835631e-127
7.8356338e-127
7.835689e-127
7.8768558e-127
7.8376115e-127
7.8356949e-127
7.8356309e-127
7.8356293e-127
7.8356293e-127
7.8356293e-127
7.8356294e-127
7.8356322e-127
7.8356874e-127
7.8768558e-127
7.8376115e-127
7.8356949e-127
7.8356309e-127
7.8356293e-127
7.8356293e-127
7.8356293e-127
7.8356294e-127
7.8356322e-127
7.8356874e-127
7.8768558e-127
7.8376115e-127
7.8356949e-127
7.8356309e-127
7.8356293e-127
7.8356293e-127
7.8356293e-127
7.8356294e-127
7.8356322e-127
7.8356874e-127
7.8768558e-127
7.8376116e-127
7.835695e-127
7.835631e-127
7.8356294e-127
7.8356294e-127
7.8356294e-127
7.8356295e-127
7.8356323e-127
7.8356875e-127
7.876856e-127
7.8376143e-127
7.8356978e-127
7.8356338e-127
7.8356322e-127
7.8356322e-127
7.8356322e-127
7.8356323e-127
7.8356351e-127
7.8356903e-127
7.8768607e-127
7.8376672e-127
7.8357529e-127
7.835689e-127
7.8356874e-127
7.8356874e-127
7.8356874e-127
7.8356875e-127
7.8356903e-127
7.8357455e-127
4.4077224e-125
4.3863592e-125
4.3853161e-125
4.3852813e-125
4.3852804e-125
4.3852804e-125
4.3852804e-125
4.3852804e-125
4.3852805e-125
4.385283e-125
4.3863592e-125
4.3651093e-125
4.3640717e-125
4.3640371e-125
4.3640362e-125
4.3640362e-125
4.3640362e-125
4.3640362e-125
4.3640377e-125
4.3640668e-125
4.3853161e-125
4.3640717e-125
4.3630344e-125
4.3629998e-125
4.3629989e-125
4.3629989e-125
4.3629989e-125
4.3629989e-125
4.3630005e-125
4.3630308e-125
4.3852813e-125
4.3640371e-125
4.3629998e-125
4.3629652e-125
4.3629643e-125
4.3629643e-125
4.3629643e-125
4.3629643e-125
4.3629659e-125
4.3629962e-125
4.3852804e-125
4.3640362e-125
4.3629989e-125
4.3629643e-125
4.3629634e-125
4.3629634e-125
4.3629634e-125
4.3629635e-125
4.362965e-125
4.3629954e-125
4.3852804e-125
4.3640362e-125
4.3629989e-125
4.3629643e-125
4.3629634e-125
4.3629634e-125
4.3629634e-125
4.3629634e-125
4.362965e-125
4.3629953e-125
4.3852804e-125
4.3640362e-125
4.3629989e-125
4.3629643e-125
4.3629634e-125
4.3629634e-125
4.3629634e-125
4.3629634e-125
4.362965e-125
4.3629953e-125
4.3852804e-125
4.3640362e-125
4.3629989e-125
4.3629643e-125
4.3629635e-125
4.3629634e-125
4.3629634e-125
4.3629635e-125
4.362965e-125
4.3629954e-125
4.3852805e-125
4.3640377e-125
4.3630005e-125
4.3629659e-125
4.362965e-125
4.362965e-125
4.362965e-125
4.362965e-125
4.3629666e-125
4.3629969e-125
4.385283e-125
4.3640668e-125
4.3630308e-125
4.3629962e-125
4.3629954e-125
4.3629953e-125
4.3629953e-125
4.3629954e-125
4.3629969e-125
4.3630273e-125
2.5323746e-123
2.5204465e-123
2.5198641e-123
2.5198447e-123
2.5198442e-123
2.5198442e-123
2.5198442e-123
2.5198442e-123
2.5198443e-123
2.5198457e-123
2.5204465e-123
2.5085799e-123
2.5080006e-123
2.5079813e-123
2.5079808e-123
2.5079808e-123
2.5079808e-123
2.5079808e-123
2.5079816e-123
2.5079982e-123
2.5198641e-123
2.5080006e-123
2.5074215e-123
2.5074022e-123
2.5074017e-123
2.5074017e-123
2.5074017e-123
2.5074017e-123
2.5074026e-123
2.5074198e-123
2.5198447e-123
2.5079813e-123
2.5074022e-123
2.5073828e-123
2.5073824e-123
2.5073823e-123
2.5073824e-123
2.5073824e-123
2.5073833e-123
2.5074005e-123
2.5198442e-123
2.5079808e-123
2.5074017e-123
2.5073824e-123
2.5073819e-123
2.5073819e-123
2.5073819e-123
2.5073819e-123
2.5073828e-123
2.5074e-123
2.5198442e-123
2.5079808e-123
2.5074017e-123
2.5073823e-123
2.5073819e-123
2.5073819e-123
2.5073819e-123
2.5073819e-123
2.5073828e-123
2.5074e-123
2.5198442e-123
2.5079808e-123
2.5074017e-123
2.5073824e-123
2.5073819e-123
2.5073819e-123
2.5073819e-123
2.5073819e-123
2.5073828e-123
2.5074e-123
2.5198442e-123
2.5079808e-123
2.5074017e-123
2.5073824e-123
2.5073819e-123
2.5073819e-123
2.5073819e-123
2.5073819e-123
2.5073828e-123
2.5074e-123
2.5198443e-123
2.5079816e-123
2.5074026e-123
2.5073833e-123
2.5073828e-123
2.5073828e-123
2.5073828e-123
2.5073828e-123
2.5073837e-123
2.5074009e-123
2.5198457e-123
2.5079982e-123
2.5074198e-123
2.5074005e-123
2.5074e-123
2.5074e-123
2.5074e-123
2.5074e-123
2.5074009e-123
2.5074181e-123
1.5013282e-121
1.4944594e-121
1.4941242e-121
1.494113e-121
1.4941127e-121
1.4941127e-121
1.4941127e-121
1.4941127e-121
1.4941127e-121
1.4941135e-121
1.4944594e-121
1.4876251e-121
1.4872916e-121
1.4872805e-121
1.4872802e-121
1.4872802e-121
1.4872802e-121
1.4872802e-121
1.4872807e-121
1.4872904e-121
1.4941242e-121
1.4872916e-121
1.4869581e-121
1.486947e-121
1.4869467e-121
1.4869467e-121
1.4869467e-121
1.4869467e-121
1.4869473e-121
1.4869573e-121
1.494113e-121
1.4872805e-121
1.486947e-121
1.4869359e-121
1.4869356e-121
1.4869356e-121
1.4869356e-121
1.4869356e-121
1.4869361e-121
1.4869462e-121
1.4941127e-121
1.4872802e-121
1.4869467e-121
1.4869356e-121
1.4869353e-121
1.4869353e-121
1.4869353e-121
1.4869353e-121
1.4869359e-121
1.4869459e-121
1.4941127e-121
1.4872802e-121
1.4869467e-121
1.4869356e-121
1.4869353e-121
1.4869353e-121
1.4869353e-121
1.4869353e-121
1.4869359e-121
1.4869459e-121
1.4941127e-121
1.4872802e-121
1.4869467e-121
1.4869356e-121
1.4869353e-121
1.4869353e-121
1.4869353e-121
1.4869353e-121
1.4869359e-121
1.4869459e-121
1.4941127e-121
1.4872802e-121
1.4869467e-121
1.4869356e-121
1.4869353e-121
1.4869353e-121
1.4869353e-121
1.4869354e-121
1.4869359e-121
1.486946e-121
1.4941127e-121
1.4872807e-121
1.4869473e-121
1.4869361e-121
1.4869359e-121
1.4869359e-121
1.4869359e-121
1.4869359e-121
1.4869364e-121
1.4869465e-121
1.4941135e-121
1.4872904e-121
1.4869573e-121
1.4869462e-121
1.4869459e-121
1.4869459e-121
1.4869459e-121
1.486946e-121
1.4869465e-121
1.4869565e-121
9.1823631e-120
9.1415799e-120
9.1395899e-120
9.1395235e-120
9.1395219e-120
9.1395218e-120
9.1395218e-120
9.1395218e-120
9.1395221e-120
9.1395267e-120
9.1415799e-120
9.1009964e-120
9.0990162e-120
9.0989502e-120
9.0989485e-120
9.0989485e-120
9.0989485e-120
9.0989486e-120
9.0989515e-120
9.0990099e-120
9.1395899e-120
9.0990162e-120
9.0970365e-120
9.0969705e-120
9.0969689e-120
9.0969688e-120
9.0969688e-120
9.0969689e-120
9.096972e-120
9.0970328e-120
9.1395235e-120
9.0989502e-120
9.0969705e-120
9.0969045e-120
9.0969029e-120
9.0969028e-120
9.0969028e-120
9.0969029e-120
9.096906e-120
9.0969669e-120
9.1395219e-120
9.0989485e-120
9.0969689e-120
9.0969029e-120
9.0969012e-120
9.0969012e-120
9.0969012e-120
9.0969013e-120
9.0969044e-120
9.0969652e-120
9.1395218e-120
9.0989485e-120
9.0969688e-120
9.0969028e-120
9.0969012e-120
9.0969011e-120
9.0969011e-120
9.0969013e-120
9.0969043e-120
9.0969652e-120
9.1395218e-120
9.0989485e-120
9.0969688e-120
9.0969028e-120
9.0969012e-120
9.0969011e-120
9.0969011e-120
9.0969013e-120
9.0969043e-120
9.0969652e-120
9.1395218e-120
9.0989486e-120
9.0969689e-120
9.0969029e-120
9.0969013e-120
9.0969013e-120
9.0969013e-120
9.0969014e-120
9.0969045e-120
9.0969653e-120
9.1395221e-120
9.0989515e-120
9.096972e-120
9.096906e-120
9.0969044e-120
9.0969043e-120
9.0969043e-120
9.0969045e-120
9.0969075e-120
9.0969684e-120
9.1395267e-120
9.0990099e-120
9.0970328e-120
9.0969669e-120
9.0969652e-120
9.0969652e-120
9.0969652e-120
9.0969653e-120
9.0969684e-120
9.0970293e-120
5.7923794e-118
5.7674187e-118
5.7662011e-118
5.7661605e-118
5.7661595e-118
5.7661595e-118
5.7661595e-118
5.7661595e-118
5.7661596e-118
5.7661625e-118
5.7674187e-118
5.7425771e-118
5.7413653e-118
5.7413249e-118
5.7413239e-118
5.7413239e-118
5.7413239e-118
5.7413239e-118
5.7413257e-118
5.7413621e-118
5.7662011e-118
5.7413653e-118
5.7401538e-118
5.7401134e-118
5.7401124e-118
5.7401124e-118
5.7401124e-118
5.7401124e-118
5.7401143e-118
5.7401522e-118
5.7661605e-118
5.7413249e-118
5.7401134e-118
5.740073e-118
5.740072e-118
5.740072e-118
5.740072e-118
5.7400721e-118
5.740074e-118
5.7401119e-118
5.7661595e-118
5.7413239e-118
5.7401124e-118
5.740072e-118
5.740071e-118
5.740071e-118
5.740071e-118
5.740071e-118
5.740073e-118
5.7401109e-118
5.7661595e-118
5.7413239e-118
5.7401124e-118
5.740072e-118
5.740071e-118
5.740071e-118
5.740071e-118
5.740071e-118
5.7400729e-118
5.7401109e-118
5.7661595e-118
5.7413239e-118
5.7401124e-118
5.740072e-118
5.740071e-118
5.740071e-118
5.740071e-118
5.740071e-118
5.740073e-118
5.7401109e-118
5.7661595e-118
5.7413239e-118
5.7401124e-118
5.7400721e-118
5.740071e-118
5.740071e-118
5.740071e-118
5.7400711e-118
5.740073e-118
5.7401109e-118
5.7661596e-118
5.7413257e-118
5.7401143e-118
5.740074e-118
5.740073e-118
5.7400729e-118
5.740073e-118
5.740073e-118
5.7400749e-118
5.7401128e-118
5.7661625e-118
5.7413621e-118
5.7401522e-118
5.7401119e-118
5.7401109e-118
5.7401109e-118
5.7401109e-118
5.7401109e-118
5.7401128e-118
5.7401507e-118
3.7676557e-116
3.7519127e-116
3.7511449e-116
3.7511194e-116
3.7511187e-116
3.7511187e-116
3.7511187e-116
3.7511187e-116
3.7511188e-116
3.7511206e-116
3.7519127e-116
3.7362428e-116
3.7354786e-116
3.7354532e-116
3.7354525e-116
3.7354525e-116
3.7354525e-116
3.7354526e-116
3.7354537e-116
3.7354771e-116
3.7511449e-116
3.7354786e-116
3.7347146e-116
3.7346892e-116
3.7346885e-116
3.7346885e-116
3.7346885e-116
3.7346885e-116
3.7346898e-116
3.7347141e-116
3.7511194e-116
3.7354532e-116
3.7346892e-116
3.7346637e-116
3.7346631e-116
3.7346631e-116
3.7346631e-116
3.7346631e-116
3.7346643e-116
3.7346887e-116
3.7511187e-116
3.7354525e-116
3.7346885e-116
3.7346631e-116
3.7346624e-116
3.7346624e-116
3.7346624e-116
3.7346625e-116
3.7346637e-116
3.734688e-116
3.7511187e-116
3.7354525e-116
3.7346885e-116
3.7346631e-116
3.7346624e-116
3.7346624e-116
3.7346624e-116
3.7346624e-116
3.7346637e-116
3.734688e-116
3.7511187e-116
3.7354525e-116
3.7346885e-116
3.7346631e-116
3.7346624e-116
3.7346624e-116
3.7346624e-116
3.7346624e-116
3.7346637e-116
3.734688e-116
3.7511187e-116
3.7354526e-116
3.7346885e-116
3.7346631e-116
3.7346625e-116
3.7346624e-116
3.7346624e-116
3.7346625e-116
3.7346637e-116
3.7346881e-116
3.7511188e-116
3.7354537e-116
3.7346898e-116
3.7346643e-116
3.7346637e-116
3.7346637e-116
3.7346637e-116
3.7346637e-116
3.734665e-116
3.7346893e-116
3.7511206e-116
3.7354771e-116
3.7347141e-116
3.7346887e-116
3.734688e-116
3.734688e-116
3.734688e-116
3.7346881e-116
3.7346893e-116
3.7347136e-116
2.5262722e-114
2.5160429e-114
2.5155442e-114
2.5155276e-114
2.5155271e-114
2.5155271e-114
2.5155271e-114
2.5155271e-114
2.5155272e-114
2.5155283e-114
2.5160429e-114
2.5058598e-114
2.5053633e-114
2.5053468e-114
2.5053464e-114
2.5053464e-114
2.5053464e-114
2.5053464e-114
2.5053472e-114
2.5053626e-114
2.5155442e-114
2.5053633e-114
2.504867e-114
2.5048504e-114
2.50485e-114
2.50485e-114
2.50485e-114
2.50485e-114
2.5048509e-114
2.5048669e-114
2.5155276e-114
2.5053468e-114
2.5048504e-114
2.5048339e-114
2.5048335e-114
2.5048335e-114
2.5048335e-114
2.5048335e-114
2.5048343e-114
2.5048504e-114
2.5155271e-114
2.5053464e-114
2.50485e-114
2.5048335e-114
2.5048331e-114
2.5048331e-114
2.5048331e-114
2.5048331e-114
2.5048339e-114
2.50485e-114
2.5155271e-114
2.5053464e-114
2.50485e-114
2.5048335e-114
2.5048331e-114
2.5048331e-114
2.5048331e-114
2.5048331e-114
2.5048339e-114
2.50485e-114
2.5155271e-114
2.5053464e-114
2.50485e-114
2.5048335e-114
2.5048331e-114
2.5048331e-114
2.5048331e-114
2.5048331e-114
2.5048339e-114
2.50485e-114
2.5155271e-114
2.5053464e-114
2.50485e-114
2.5048335e-114
2.5048331e-114
2.5048331e-114
2.5048331e-114
2.5048331e-114
2.5048339e-114
2.50485e-114
2.5155272e-114
2.5053472e-114
2.5048509e-114
2.5048343e-114
2.5048339e-114
2.5048339e-114
2.5048339e-114
2.5048339e-114
2.5048348e-114
2.5048509e-114
2.5155283e-114
2.5053626e-114
2.5048669e-114
2.5048504e-114
2.50485e-114
2.50485e-114
2.50485e-114
2.50485e-114
2.5048509e-114
2.504867e-114
1.7456686e-112
1.7388232e-112
1.7384895e-112
1.7384784e-112
1.7384782e-112
1.7384782e-112
1.7384782e-112
1.7384782e-112
1.7384782e-112
1.738479e-112
1.7388232e-112
1.7320079e-112
1.7316756e-112
1.7316646e-112
1.7316643e-112
1.7316643e-112
1.7316643e-112
1.7316643e-112
1.7316649e-112
1.7316754e-112
1.7384895e-112
1.7316756e-112
1.7313435e-112
1.7313325e-112
1.7313322e-112
1.7313322e-112
1.7313322e-112
1.7313322e-112
1.7313328e-112
1.7313437e-112
1.7384784e-112
1.7316646e-112
1.7313325e-112
1.7313214e-112
1.7313211e-112
1.7313211e-112
1.7313211e-112
1.7313211e-112
1.7313217e-112
1.7313327e-112
1.7384782e-112
1.7316643e-112
1.7313322e-112
1.7313211e-112
1.7313209e-112
1.7313208e-112
1.7313209e-112
1.7313209e-112
1.7313214e-112
1.7313324e-112
1.7384782e-112
1.7316643e-112
1.7313322e-112
1.7313211e-112
1.7313208e-112
1.7313208e-112
1.7313208e-112
1.7313209e-112
1.7313214e-112
1.7313324e-112
1.7384782e-112
1.7316643e-112
1.7313322e-112
1.7313211e-112
1.7313209e-112
1.7313208e-112
1.7313208e-112
1.7313209e-112
1.7313214e-112
1.7313324e-112
1.7384782e-112
1.7316643e-112
1.7313322e-112
1.7313211e-112
1.7313209e-112
1.7313209e-112
1.7313209e-112
1.7313209e-112
1.7313214e-112
1.7313324e-112
1.7384782e-112
1.7316649e-112
1.7313328e-112
1.7313217e-112
1.7313214e-112
1.7313214e-112
1.7313214e-112
1.7313214e-112
1.731322e-112
1.731333e-112
1.738479e-112
1.7316754e-112
1.7313437e-112
1.7313327e-112
1.7313324e-112
1.7313324e-112
1.7313324e-112
1.7313324e-112
1.731333e-112
1.7313439e-112
1.2427648e-110
1.2380484e-110
1.2378185e-110
1.2378109e-110
1.2378107e-110
1.2378107e-110
1.2378107e-110
1.2378107e-110
1.2378107e-110
1.2378113e-110
1.2380484e-110
1.2333521e-110
1.2331232e-110
1.2331156e-110
1.2331154e-110
1.2331154e-110
1.2331154e-110
1.2331154e-110
1.2331158e-110
1.2331232e-110
1.2378185e-110
1.2331232e-110
1.2328944e-110
1.2328868e-110
1.2328866e-110
1.2328866e-110
1.2328866e-110
1.2328866e-110
1.232887e-110
1.2328947e-110
1.2378109e-110
1.2331156e-110
1.2328868e-110
1.2328792e-110
1.232879e-110
1.232879e-110
1.232879e-110
1.232879e-110
1.2328794e-110
1.2328871e-110
1.2378107e-110
1.2331154e-110
1.2328866e-110
1.232879e-110
1.2328788e-110
1.2328788e-110
1.2328788e-110
1.2328788e-110
1.2328792e-110
1.2328869e-110
1.2378107e-110
1.2331154e-110
1.2328866e-110
1.232879e-110
1.2328788e-110
1.2328788e-110
1.2328788e-110
1.2328788e-110
1.2328792e-110
1.2328869e-110
1.2378107e-110
1.2331154e-110
1.2328866e-110
1.232879e-110
1.2328788e-110
1.2328788e-110
1.2328788e-110
1.2328788e-110
1.2328792e-110
1.2328869e-110
1.2378107e-110
1.2331154e-110
1.2328866e-110
1.232879e-110
1.2328788e-110
1.2328788e-110
1.2328788e-110
1.2328788e-110
1.2328792e-110
1.2328869e-110
1.2378107e-110
1.2331158e-110
1.232887e-110
1.2328794e-110
1.2328792e-110
1.2328792e-110
1.2328792e-110
1.2328792e-110
1.2328796e-110
1.2328873e-110
1.2378113e-110
1.2331232e-110
1.2328947e-110
1.2328871e-110
1.2328869e-110
1.2328869e-110
1.2328869e-110
1.2328869e-110
1.2328873e-110
1.232895e-110
9.1123165e-109
9.0788704e-109
9.0772409e-109
9.0771867e-109
9.0771854e-109
9.0771853e-109
9.0771853e-109
9.0771854e-109
9.0771856e-109
9.0771893e-109
9.0788704e-109
9.0455628e-109
9.0439401e-109
9.0438861e-109
9.0438848e-109
9.0438847e-109
9.0438847e-109
9.0438848e-109
9.0438875e-109
9.0439409e-109
9.0772409e-109
9.0439401e-109
9.0423178e-109
9.0422638e-109
9.0422625e-109
9.0422624e-109
9.0422624e-109
9.0422625e-109
9.0422653e-109
9.042321e-109
9.0771867e-109
9.0438861e-109
9.0422638e-109
9.0422099e-109
9.0422085e-109
9.0422085e-109
9.0422085e-109
9.0422086e-109
9.0422114e-109
9.0422671e-109
9.0771854e-109
9.0438848e-109
9.0422625e-109
9.0422085e-109
9.0422071e-109
9.0422071e-109
9.0422071e-109
9.0422072e-109
9.04221e-109
9.0422658e-109
9.0771853e-109
9.0438847e-109
9.0422624e-109
9.0422085e-109
9.0422071e-109
9.0422071e-109
9.0422071e-109
9.0422072e-109
9.04221e-109
9.0422657e-109
9.0771853e-109
9.0438847e-109
9.0422624e-109
9.0422085e-109
9.0422071e-109
9.0422071e-109
9.0422071e-109
9.0422072e-109
9.04221e-109
9.0422657e-109
9.0771854e-109
9.0438848e-109
9.0422625e-109
9.0422086e-109
9.0422072e-109
9.0422072e-109
9.0422072e-109
9.0422073e-109
9.0422101e-109
9.0422658e-109
9.0771856e-109
9.0438875e-109
9.0422653e-109
9.0422114e-109
9.04221e-109
9.04221e-109
9.04221e-109
9.0422101e-109
9.0422129e-109
9.0422686e-109
9.0771893e-109
9.0439409e-109
9.042321e-109
9.0422671e-109
9.0422658e-109
9.0422657e-109
9.0422657e-109
9.0422658e-109
9.0422686e-109
9.0423244e-109
6.8792774e-107
6.8548744e-107
6.8536858e-107
6.8536463e-107
6.8536453e-107
6.8536452e-107
6.8536452e-107
6.8536453e-107
6.8536454e-107
6.8536482e-107
6.8548744e-107
6.8305694e-107
6.8293856e-107
6.8293462e-107
6.8293453e-107
6.8293452e-107
6.8293452e-107
6.8293453e-107
6.8293473e-107
6.829387e-107
6.8536858e-107
6.8293856e-107
6.8282021e-107
6.8281627e-107
6.8281617e-107
6.8281617e-107
6.8281617e-107
6.8281618e-107
6.8281639e-107
6.8282053e-107
6.8536463e-107
6.8293462e-107
6.8281627e-107
6.8281234e-107
6.8281224e-107
6.8281224e-107
6.8281224e-107
6.8281225e-107
6.8281245e-107
6.828166e-107
6.8536453e-107
6.8293453e-107
6.8281617e-107
6.8281224e-107
6.8281214e-107
6.8281214e-107
6.8281214e-107
6.8281215e-107
6.8281236e-107
6.828165e-107
6.8536452e-107
6.8293452e-107
6.8281617e-107
6.8281224e-107
6.8281214e-107
6.8281214e-107
6.8281214e-107
6.8281214e-107
6.8281235e-107
6.828165e-107
6.8536452e-107
6.8293452e-107
6.8281617e-107
6.8281224e-107
6.8281214e-107
6.8281214e-107
6.8281214e-107
6.8281214e-107
6.8281235e-107
6.828165e-107
6.8536453e-107
6.8293453e-107
6.8281618e-107
6.8281225e-107
6.8281215e-107
6.8281214e-107
6.8281214e-107
6.8281215e-107
6.8281236e-107
6.8281651e-107
6.8536454e-107
6.8293473e-107
6.8281639e-107
6.8281245e-107
6.8281236e-107
6.8281235e-107
6.8281235e-107
6.8281236e-107
6.8281257e-107
6.8281672e-107
6.8536482e-107
6.829387e-107
6.8282053e-107
6.828166e-107
6.828165e-107
6.828165e-107
6.828165e-107
6.8281651e-107
6.8281672e-107
6.8282087e-107
5.3454772e-105
5.3271645e-105
5.3262728e-105
5.3262432e-105
5.3262424e-105
5.3262424e-105
5.3262424e-105
5.3262424e-105
5.3262425e-105
5.3262446e-105
5.3271645e-105
5.3089231e-105
5.3080349e-105
5.3080054e-105
5.3080047e-105
5.3080047e-105
5.3080047e-105
5.3080047e-105
5.3080062e-105
5.3080367e-105
5.3262728e-105
5.3080349e-105
5.3071469e-105
5.3071174e-105
5.3071167e-105
5.3071167e-105
5.3071167e-105
5.3071167e-105
5.3071183e-105
5.30715e-105
5.3262432e-105
5.3080054e-105
5.3071174e-105
5.3070879e-105
5.3070872e-105
5.3070871e-105
5.3070871e-105
5.3070872e-105
5.3070888e-105
5.3071206e-105
5.3262424e-105
5.3080047e-105
5.3071167e-105
5.3070872e-105
5.3070864e-105
5.3070864e-105
5.3070864e-105
5.3070865e-105
5.3070881e-105
5.3071198e-105
5.3262424e-105
5.3080047e-105
5.3071167e-105
5.3070871e-105
5.3070864e-105
5.3070864e-105
5.3070864e-105
5.3070864e-105