/*--------------------------------*- C++ -*----------------------------------*\
| =========                 |                                                 |
| \\      /  F ield         | OpenFOAM: The Open Source CFD Toolbox           |
|  \\    /   O peration     | Version:  dev                                   |
|   \\  /    A nd           | Web:      www.OpenFOAM.org                      |
|    \\/     M anipulation  |                                                 |
\*---------------------------------------------------------------------------*/
FoamFile
{
    version     2.0;
    format      ascii;
    class       volScalarField;
    location    "1";
    object      A_0;
}
// * * * * * * * * * * * * * * * * * * * * * * * * * * * * * * * * * * * * * //

dimensions      [0 0 0 0 1 0 0];

internalField   nonuniform List<scalar> 
10000
(
8.2670543e-139
8.2173677e-139
8.2149495e-139
8.214869e-139
8.214867e-139
8.2148669e-139
8.2148669e-139
8.2148669e-139
8.2148672e-139
8.2148734e-139
8.2173677e-139
8.1680014e-139
8.1655989e-139
8.1655189e-139
8.1655169e-139
8.1655169e-139
8.1655169e-139
8.165517e-139
8.16552e-139
8.1655799e-139
8.2149495e-139
8.1655989e-139
8.1631973e-139
8.1631173e-139
8.1631153e-139
8.1631152e-139
8.1631152e-139
8.1631153e-139
8.1631185e-139
8.1631808e-139
8.214869e-139
8.1655189e-139
8.1631173e-139
8.1630373e-139
8.1630353e-139
8.1630353e-139
8.1630353e-139
8.1630354e-139
8.1630385e-139
8.1631009e-139
8.214867e-139
8.1655169e-139
8.1631153e-139
8.1630353e-139
8.1630333e-139
8.1630332e-139
8.1630333e-139
8.1630334e-139
8.1630365e-139
8.1630989e-139
8.2148669e-139
8.1655169e-139
8.1631152e-139
8.1630353e-139
8.1630332e-139
8.1630332e-139
8.1630332e-139
8.1630333e-139
8.1630365e-139
8.1630989e-139
8.2148669e-139
8.1655169e-139
8.1631152e-139
8.1630353e-139
8.1630333e-139
8.1630332e-139
8.1630332e-139
8.1630333e-139
8.1630365e-139
8.1630989e-139
8.2148669e-139
8.165517e-139
8.1631153e-139
8.1630354e-139
8.1630334e-139
8.1630333e-139
8.1630333e-139
8.1630334e-139
8.1630366e-139
8.163099e-139
8.2148672e-139
8.16552e-139
8.1631185e-139
8.1630385e-139
8.1630365e-139
8.1630365e-139
8.1630365e-139
8.1630366e-139
8.1630398e-139
8.1631022e-139
8.2148734e-139
8.1655799e-139
8.1631808e-139
8.1631009e-139
8.1630989e-139
8.1630989e-139
8.1630989e-139
8.163099e-139
8.1631022e-139
8.1631645e-139
3.766598e-137
3.7445081e-137
3.7434329e-137
3.7433971e-137
3.7433962e-137
3.7433962e-137
3.7433962e-137
3.7433962e-137
3.7433963e-137
3.7433992e-137
3.7445081e-137
3.7225575e-137
3.7214892e-137
3.7214536e-137
3.7214527e-137
3.7214527e-137
3.7214527e-137
3.7214527e-137
3.7214541e-137
3.7214812e-137
3.7434329e-137
3.7214892e-137
3.7204211e-137
3.7203856e-137
3.7203847e-137
3.7203847e-137
3.7203847e-137
3.7203847e-137
3.7203861e-137
3.7204143e-137
3.7433971e-137
3.7214536e-137
3.7203856e-137
3.72035e-137
3.7203491e-137
3.7203491e-137
3.7203491e-137
3.7203492e-137
3.7203506e-137
3.7203788e-137
3.7433962e-137
3.7214527e-137
3.7203847e-137
3.7203491e-137
3.7203482e-137
3.7203482e-137
3.7203482e-137
3.7203483e-137
3.7203497e-137
3.7203779e-137
3.7433962e-137
3.7214527e-137
3.7203847e-137
3.7203491e-137
3.7203482e-137
3.7203482e-137
3.7203482e-137
3.7203483e-137
3.7203497e-137
3.7203779e-137
3.7433962e-137
3.7214527e-137
3.7203847e-137
3.7203491e-137
3.7203482e-137
3.7203482e-137
3.7203482e-137
3.7203483e-137
3.7203497e-137
3.7203779e-137
3.7433962e-137
3.7214527e-137
3.7203847e-137
3.7203492e-137
3.7203483e-137
3.7203483e-137
3.7203483e-137
3.7203483e-137
3.7203497e-137
3.720378e-137
3.7433963e-137
3.7214541e-137
3.7203861e-137
3.7203506e-137
3.7203497e-137
3.7203497e-137
3.7203497e-137
3.7203497e-137
3.7203512e-137
3.7203794e-137
3.7433992e-137
3.7214812e-137
3.7204143e-137
3.7203788e-137
3.7203779e-137
3.7203779e-137
3.7203779e-137
3.720378e-137
3.7203794e-137
3.7204076e-137
1.7343178e-135
1.7243999e-135
1.7239173e-135
1.7239012e-135
1.7239008e-135
1.7239008e-135
1.7239008e-135
1.7239008e-135
1.7239009e-135
1.7239021e-135
1.7243999e-135
1.7145432e-135
1.7140635e-135
1.7140475e-135
1.7140471e-135
1.7140471e-135
1.7140471e-135
1.7140472e-135
1.7140478e-135
1.7140601e-135
1.7239173e-135
1.7140635e-135
1.713584e-135
1.713568e-135
1.7135676e-135
1.7135676e-135
1.7135676e-135
1.7135677e-135
1.7135683e-135
1.7135811e-135
1.7239012e-135
1.7140475e-135
1.713568e-135
1.7135521e-135
1.7135517e-135
1.7135517e-135
1.7135517e-135
1.7135517e-135
1.7135523e-135
1.7135652e-135
1.7239008e-135
1.7140471e-135
1.7135676e-135
1.7135517e-135
1.7135513e-135
1.7135513e-135
1.7135513e-135
1.7135513e-135
1.7135519e-135
1.7135648e-135
1.7239008e-135
1.7140471e-135
1.7135676e-135
1.7135517e-135
1.7135513e-135
1.7135513e-135
1.7135513e-135
1.7135513e-135
1.7135519e-135
1.7135648e-135
1.7239008e-135
1.7140471e-135
1.7135676e-135
1.7135517e-135
1.7135513e-135
1.7135513e-135
1.7135513e-135
1.7135513e-135
1.7135519e-135
1.7135648e-135
1.7239008e-135
1.7140472e-135
1.7135677e-135
1.7135517e-135
1.7135513e-135
1.7135513e-135
1.7135513e-135
1.7135513e-135
1.713552e-135
1.7135648e-135
1.7239009e-135
1.7140478e-135
1.7135683e-135
1.7135523e-135
1.7135519e-135
1.7135519e-135
1.7135519e-135
1.713552e-135
1.7135526e-135
1.7135655e-135
1.7239021e-135
1.7140601e-135
1.7135811e-135
1.7135652e-135
1.7135648e-135
1.7135648e-135
1.7135648e-135
1.7135648e-135
1.7135655e-135
1.7135783e-135
8.2518362e-134
8.2058427e-134
8.2036049e-134
8.2035304e-134
8.2035286e-134
8.2035285e-134
8.2035285e-134
8.2035285e-134
8.2035288e-134
8.2035345e-134
8.2058427e-134
8.1601259e-134
8.1579016e-134
8.1578276e-134
8.1578258e-134
8.1578257e-134
8.1578257e-134
8.1578258e-134
8.1578287e-134
8.1578867e-134
8.2036049e-134
8.1579016e-134
8.155678e-134
8.1556041e-134
8.1556022e-134
8.1556022e-134
8.1556022e-134
8.1556023e-134
8.1556053e-134
8.1556656e-134
8.2035304e-134
8.1578276e-134
8.1556041e-134
8.1555301e-134
8.1555282e-134
8.1555282e-134
8.1555282e-134
8.1555283e-134
8.1555314e-134
8.1555917e-134
8.2035286e-134
8.1578258e-134
8.1556022e-134
8.1555282e-134
8.1555264e-134
8.1555263e-134
8.1555263e-134
8.1555265e-134
8.1555295e-134
8.1555899e-134
8.2035285e-134
8.1578257e-134
8.1556022e-134
8.1555282e-134
8.1555263e-134
8.1555263e-134
8.1555263e-134
8.1555264e-134
8.1555295e-134
8.1555898e-134
8.2035285e-134
8.1578257e-134
8.1556022e-134
8.1555282e-134
8.1555263e-134
8.1555263e-134
8.1555263e-134
8.1555264e-134
8.1555295e-134
8.1555898e-134
8.2035285e-134
8.1578258e-134
8.1556023e-134
8.1555283e-134
8.1555265e-134
8.1555264e-134
8.1555264e-134
8.1555265e-134
8.1555296e-134
8.1555899e-134
8.2035288e-134
8.1578287e-134
8.1556053e-134
8.1555314e-134
8.1555295e-134
8.1555295e-134
8.1555295e-134
8.1555296e-134
8.1555326e-134
8.155593e-134
8.2035345e-134
8.1578867e-134
8.1556656e-134
8.1555917e-134
8.1555899e-134
8.1555898e-134
8.1555898e-134
8.1555899e-134
8.155593e-134
8.1556534e-134
4.0564351e-132
4.0344081e-132
4.0333366e-132
4.033301e-132
4.0333001e-132
4.0333001e-132
4.0333001e-132
4.0333001e-132
4.0333002e-132
4.0333029e-132
4.0344081e-132
4.0125106e-132
4.0114454e-132
4.01141e-132
4.0114091e-132
4.0114091e-132
4.0114091e-132
4.0114092e-132
4.0114106e-132
4.0114387e-132
4.0333366e-132
4.0114454e-132
4.0103806e-132
4.0103452e-132
4.0103443e-132
4.0103443e-132
4.0103443e-132
4.0103443e-132
4.0103458e-132
4.0103751e-132
4.033301e-132
4.01141e-132
4.0103452e-132
4.0103098e-132
4.0103089e-132
4.0103089e-132
4.0103089e-132
4.0103089e-132
4.0103104e-132
4.0103397e-132
4.0333001e-132
4.0114091e-132
4.0103443e-132
4.0103089e-132
4.010308e-132
4.010308e-132
4.010308e-132
4.010308e-132
4.0103095e-132
4.0103388e-132
4.0333001e-132
4.0114091e-132
4.0103443e-132
4.0103089e-132
4.010308e-132
4.010308e-132
4.010308e-132
4.010308e-132
4.0103095e-132
4.0103388e-132
4.0333001e-132
4.0114091e-132
4.0103443e-132
4.0103089e-132
4.010308e-132
4.010308e-132
4.010308e-132
4.010308e-132
4.0103095e-132
4.0103388e-132
4.0333001e-132
4.0114092e-132
4.0103443e-132
4.0103089e-132
4.010308e-132
4.010308e-132
4.010308e-132
4.0103081e-132
4.0103096e-132
4.0103389e-132
4.0333002e-132
4.0114106e-132
4.0103458e-132
4.0103104e-132
4.0103095e-132
4.0103095e-132
4.0103095e-132
4.0103096e-132
4.010311e-132
4.0103403e-132
4.0333029e-132
4.0114387e-132
4.0103751e-132
4.0103397e-132
4.0103388e-132
4.0103388e-132
4.0103388e-132
4.0103389e-132
4.0103403e-132
4.0103697e-132
2.0598317e-130
2.0489397e-130
2.04841e-130
2.0483924e-130
2.048392e-130
2.0483919e-130
2.0483919e-130
2.048392e-130
2.048392e-130
2.0483933e-130
2.0489397e-130
2.0381103e-130
2.0375836e-130
2.0375661e-130
2.0375656e-130
2.0375656e-130
2.0375656e-130
2.0375657e-130
2.0375664e-130
2.0375805e-130
2.04841e-130
2.0375836e-130
2.0370571e-130
2.0370396e-130
2.0370391e-130
2.0370391e-130
2.0370391e-130
2.0370392e-130
2.0370399e-130
2.0370546e-130
2.0483924e-130
2.0375661e-130
2.0370396e-130
2.0370221e-130
2.0370216e-130
2.0370216e-130
2.0370216e-130
2.0370217e-130
2.0370224e-130
2.0370371e-130
2.048392e-130
2.0375656e-130
2.0370391e-130
2.0370216e-130
2.0370212e-130
2.0370212e-130
2.0370212e-130
2.0370212e-130
2.037022e-130
2.0370367e-130
2.0483919e-130
2.0375656e-130
2.0370391e-130
2.0370216e-130
2.0370212e-130
2.0370212e-130
2.0370212e-130
2.0370212e-130
2.037022e-130
2.0370367e-130
2.0483919e-130
2.0375656e-130
2.0370391e-130
2.0370216e-130
2.0370212e-130
2.0370212e-130
2.0370212e-130
2.0370212e-130
2.037022e-130
2.0370367e-130
2.048392e-130
2.0375657e-130
2.0370392e-130
2.0370217e-130
2.0370212e-130
2.0370212e-130
2.0370212e-130
2.0370212e-130
2.037022e-130
2.0370367e-130
2.048392e-130
2.0375664e-130
2.0370399e-130
2.0370224e-130
2.037022e-130
2.037022e-130
2.037022e-130
2.037022e-130
2.0370227e-130
2.0370374e-130
2.0483933e-130
2.0375805e-130
2.0370546e-130
2.0370371e-130
2.0370367e-130
2.0370367e-130
2.0370367e-130
2.0370367e-130
2.0370374e-130
2.0370521e-130
1.0802636e-128
1.0747038e-128
1.0744334e-128
1.0744244e-128
1.0744242e-128
1.0744242e-128
1.0744242e-128
1.0744242e-128
1.0744242e-128
1.0744249e-128
1.0747038e-128
1.069175e-128
1.0689062e-128
1.0688973e-128
1.0688971e-128
1.0688971e-128
1.0688971e-128
1.0688971e-128
1.0688974e-128
1.0689047e-128
1.0744334e-128
1.0689062e-128
1.0686375e-128
1.0686286e-128
1.0686283e-128
1.0686283e-128
1.0686283e-128
1.0686283e-128
1.0686287e-128
1.0686363e-128
1.0744244e-128
1.0688973e-128
1.0686286e-128
1.0686196e-128
1.0686194e-128
1.0686194e-128
1.0686194e-128
1.0686194e-128
1.0686198e-128
1.0686274e-128
1.0744242e-128
1.0688971e-128
1.0686283e-128
1.0686194e-128
1.0686192e-128
1.0686192e-128
1.0686192e-128
1.0686192e-128
1.0686196e-128
1.0686272e-128
1.0744242e-128
1.0688971e-128
1.0686283e-128
1.0686194e-128
1.0686192e-128
1.0686192e-128
1.0686192e-128
1.0686192e-128
1.0686196e-128
1.0686272e-128
1.0744242e-128
1.0688971e-128
1.0686283e-128
1.0686194e-128
1.0686192e-128
1.0686192e-128
1.0686192e-128
1.0686192e-128
1.0686196e-128
1.0686272e-128
1.0744242e-128
1.0688971e-128
1.0686283e-128
1.0686194e-128
1.0686192e-128
1.0686192e-128
1.0686192e-128
1.0686192e-128
1.0686196e-128
1.0686272e-128
1.0744242e-128
1.0688974e-128
1.0686287e-128
1.0686198e-128
1.0686196e-128
1.0686196e-128
1.0686196e-128
1.0686196e-128
1.06862e-128
1.0686276e-128
1.0744249e-128
1.0689047e-128
1.0686363e-128
1.0686274e-128
1.0686272e-128
1.0686272e-128
1.0686272e-128
1.0686272e-128
1.0686276e-128
1.0686352e-128
5.8499508e-127
5.8206602e-127
5.8192363e-127
5.819189e-127
5.8191878e-127
5.8191878e-127
5.8191878e-127
5.8191878e-127
5.8191879e-127
5.8191914e-127
5.8206602e-127
5.7915294e-127
5.7901133e-127
5.7900663e-127
5.7900651e-127
5.790065e-127
5.790065e-127
5.7900651e-127
5.7900671e-127
5.7901062e-127
5.8192363e-127
5.7901133e-127
5.7886976e-127
5.7886506e-127
5.7886494e-127
5.7886494e-127
5.7886494e-127
5.7886494e-127
5.7886515e-127
5.7886922e-127
5.819189e-127
5.7900663e-127
5.7886506e-127
5.7886036e-127
5.7886024e-127
5.7886023e-127
5.7886024e-127
5.7886024e-127
5.7886045e-127
5.7886452e-127
5.8191878e-127
5.7900651e-127
5.7886494e-127
5.7886024e-127
5.7886012e-127
5.7886012e-127
5.7886012e-127
5.7886012e-127
5.7886033e-127
5.788644e-127
5.8191878e-127
5.790065e-127
5.7886494e-127
5.7886023e-127
5.7886012e-127
5.7886011e-127
5.7886011e-127
5.7886012e-127
5.7886033e-127
5.788644e-127
5.8191878e-127
5.790065e-127
5.7886494e-127
5.7886024e-127
5.7886012e-127
5.7886011e-127
5.7886011e-127
5.7886012e-127
5.7886033e-127
5.788644e-127
5.8191878e-127
5.7900651e-127
5.7886494e-127
5.7886024e-127
5.7886012e-127
5.7886012e-127
5.7886012e-127
5.7886013e-127
5.7886034e-127
5.7886441e-127
5.8191879e-127
5.7900671e-127
5.7886515e-127
5.7886045e-127
5.7886033e-127
5.7886033e-127
5.7886033e-127
5.7886034e-127
5.7886054e-127
5.7886462e-127
5.8191914e-127
5.7901062e-127
5.7886922e-127
5.7886452e-127
5.788644e-127
5.788644e-127
5.788644e-127
5.7886441e-127
5.7886462e-127
5.7886869e-127
3.2704604e-125
3.2545379e-125
3.253764e-125
3.2537383e-125
3.2537377e-125
3.2537377e-125
3.2537377e-125
3.2537377e-125
3.2537378e-125
3.2537396e-125
3.2545379e-125
3.2387001e-125
3.2379303e-125
3.2379048e-125
3.2379041e-125
3.2379041e-125
3.2379041e-125
3.2379042e-125
3.2379052e-125
3.2379268e-125
3.253764e-125
3.2379303e-125
3.2371608e-125
3.2371353e-125
3.2371346e-125
3.2371346e-125
3.2371346e-125
3.2371347e-125
3.2371358e-125
3.2371583e-125
3.2537383e-125
3.2379048e-125
3.2371353e-125
3.2371097e-125
3.2371091e-125
3.2371091e-125
3.2371091e-125
3.2371091e-125
3.2371103e-125
3.2371327e-125
3.2537377e-125
3.2379041e-125
3.2371346e-125
3.2371091e-125
3.2371084e-125
3.2371084e-125
3.2371084e-125
3.2371085e-125
3.2371096e-125
3.2371321e-125
3.2537377e-125
3.2379041e-125
3.2371346e-125
3.2371091e-125
3.2371084e-125
3.2371084e-125
3.2371084e-125
3.2371085e-125
3.2371096e-125
3.2371321e-125
3.2537377e-125
3.2379041e-125
3.2371346e-125
3.2371091e-125
3.2371084e-125
3.2371084e-125
3.2371084e-125
3.2371085e-125
3.2371096e-125
3.2371321e-125
3.2537377e-125
3.2379042e-125
3.2371347e-125
3.2371091e-125
3.2371085e-125
3.2371085e-125
3.2371085e-125
3.2371085e-125
3.2371096e-125
3.2371321e-125
3.2537378e-125
3.2379052e-125
3.2371358e-125
3.2371103e-125
3.2371096e-125
3.2371096e-125
3.2371096e-125
3.2371096e-125
3.2371108e-125
3.2371333e-125
3.2537396e-125
3.2379268e-125
3.2371583e-125
3.2371327e-125
3.2371321e-125
3.2371321e-125
3.2371321e-125
3.2371321e-125
3.2371333e-125
3.2371558e-125
1.8871457e-123
1.8782165e-123
1.8777827e-123
1.8777683e-123
1.8777679e-123
1.8777679e-123
1.8777679e-123
1.8777679e-123
1.8777679e-123
1.877769e-123
1.8782165e-123
1.8693337e-123
1.8689021e-123
1.8688877e-123
1.8688874e-123
1.8688874e-123
1.8688874e-123
1.8688874e-123
1.868888e-123
1.8689003e-123
1.8777827e-123
1.8689021e-123
1.8684706e-123
1.8684563e-123
1.8684559e-123
1.8684559e-123
1.8684559e-123
1.8684559e-123
1.8684566e-123
1.8684694e-123
1.8777683e-123
1.8688877e-123
1.8684563e-123
1.8684419e-123
1.8684416e-123
1.8684416e-123
1.8684416e-123
1.8684416e-123
1.8684422e-123
1.8684551e-123
1.8777679e-123
1.8688874e-123
1.8684559e-123
1.8684416e-123
1.8684412e-123
1.8684412e-123
1.8684412e-123
1.8684412e-123
1.8684419e-123
1.8684547e-123
1.8777679e-123
1.8688874e-123
1.8684559e-123
1.8684416e-123
1.8684412e-123
1.8684412e-123
1.8684412e-123
1.8684412e-123
1.8684419e-123
1.8684547e-123
1.8777679e-123
1.8688874e-123
1.8684559e-123
1.8684416e-123
1.8684412e-123
1.8684412e-123
1.8684412e-123
1.8684412e-123
1.8684419e-123
1.8684547e-123
1.8777679e-123
1.8688874e-123
1.8684559e-123
1.8684416e-123
1.8684412e-123
1.8684412e-123
1.8684412e-123
1.8684412e-123
1.8684419e-123
1.8684547e-123
1.8777679e-123
1.868888e-123
1.8684566e-123
1.8684422e-123
1.8684419e-123
1.8684419e-123
1.8684419e-123
1.8684419e-123
1.8684425e-123
1.8684554e-123
1.877769e-123
1.8689003e-123
1.8684694e-123
1.8684551e-123
1.8684547e-123
1.8684547e-123
1.8684547e-123
1.8684547e-123
1.8684554e-123
1.8684682e-123
1.1236815e-121
1.1185171e-121
1.1182663e-121
1.1182579e-121
1.1182577e-121
1.1182577e-121
1.1182577e-121
1.1182577e-121
1.1182578e-121
1.1182583e-121
1.1185171e-121
1.1133789e-121
1.1131293e-121
1.113121e-121
1.1131208e-121
1.1131208e-121
1.1131208e-121
1.1131208e-121
1.1131211e-121
1.1131284e-121
1.1182663e-121
1.1131293e-121
1.1128797e-121
1.1128714e-121
1.1128712e-121
1.1128712e-121
1.1128712e-121
1.1128712e-121
1.1128716e-121
1.1128792e-121
1.1182579e-121
1.113121e-121
1.1128714e-121
1.1128632e-121
1.112863e-121
1.112863e-121
1.112863e-121
1.112863e-121
1.1128633e-121
1.1128709e-121
1.1182577e-121
1.1131208e-121
1.1128712e-121
1.112863e-121
1.1128627e-121
1.1128627e-121
1.1128627e-121
1.1128628e-121
1.1128631e-121
1.1128707e-121
1.1182577e-121
1.1131208e-121
1.1128712e-121
1.112863e-121
1.1128627e-121
1.1128627e-121
1.1128627e-121
1.1128628e-121
1.1128631e-121
1.1128707e-121
1.1182577e-121
1.1131208e-121
1.1128712e-121
1.112863e-121
1.1128627e-121
1.1128627e-121
1.1128627e-121
1.1128628e-121
1.1128631e-121
1.1128707e-121
1.1182577e-121
1.1131208e-121
1.1128712e-121
1.112863e-121
1.1128628e-121
1.1128628e-121
1.1128628e-121
1.1128628e-121
1.1128631e-121
1.1128707e-121
1.1182578e-121
1.1131211e-121
1.1128716e-121
1.1128633e-121
1.1128631e-121
1.1128631e-121
1.1128631e-121
1.1128631e-121
1.1128635e-121
1.1128711e-121
1.1182583e-121
1.1131284e-121
1.1128792e-121
1.1128709e-121
1.1128707e-121
1.1128707e-121
1.1128707e-121
1.1128707e-121
1.1128711e-121
1.1128786e-121
6.902706e-120
6.8719081e-120
6.8704123e-120
6.8703627e-120
6.8703615e-120
6.8703614e-120
6.8703614e-120
6.8703614e-120
6.8703616e-120
6.8703651e-120
6.8719081e-120
6.8412617e-120
6.8397733e-120
6.839724e-120
6.8397227e-120
6.8397227e-120
6.8397227e-120
6.8397228e-120
6.839725e-120
6.8397688e-120
6.8704123e-120
6.8397733e-120
6.8382854e-120
6.838236e-120
6.8382348e-120
6.8382348e-120
6.8382348e-120
6.8382348e-120
6.8382371e-120
6.8382828e-120
6.8703627e-120
6.839724e-120
6.838236e-120
6.8381867e-120
6.8381854e-120
6.8381854e-120
6.8381854e-120
6.8381855e-120
6.8381878e-120
6.8382335e-120
6.8703615e-120
6.8397227e-120
6.8382348e-120
6.8381854e-120
6.8381842e-120
6.8381842e-120
6.8381842e-120
6.8381842e-120
6.8381866e-120
6.8382323e-120
6.8703614e-120
6.8397227e-120
6.8382348e-120
6.8381854e-120
6.8381842e-120
6.8381841e-120
6.8381841e-120
6.8381842e-120
6.8381865e-120
6.8382322e-120
6.8703614e-120
6.8397227e-120
6.8382348e-120
6.8381854e-120
6.8381842e-120
6.8381841e-120
6.8381841e-120
6.8381842e-120
6.8381865e-120
6.8382322e-120
6.8703614e-120
6.8397228e-120
6.8382348e-120
6.8381855e-120
6.8381842e-120
6.8381842e-120
6.8381842e-120
6.8381843e-120
6.8381866e-120
6.8382323e-120
6.8703616e-120
6.839725e-120
6.8382371e-120
6.8381878e-120
6.8381866e-120
6.8381865e-120
6.8381865e-120
6.8381866e-120
6.8381889e-120
6.8382346e-120
6.8703651e-120
6.8397688e-120
6.8382828e-120
6.8382335e-120
6.8382323e-120
6.8382322e-120
6.8382322e-120
6.8382323e-120
6.8382346e-120
6.8382803e-120
4.3734726e-118
4.3545401e-118
4.3536209e-118
4.3535904e-118
4.3535896e-118
4.3535896e-118
4.3535896e-118
4.3535896e-118
4.3535897e-118
4.3535918e-118
4.3545401e-118
4.3356983e-118
4.3347835e-118
4.3347531e-118
4.3347524e-118
4.3347524e-118
4.3347524e-118
4.3347524e-118
4.3347538e-118
4.3347812e-118
4.3536209e-118
4.3347835e-118
4.3338689e-118
4.3338385e-118
4.3338378e-118
4.3338378e-118
4.3338378e-118
4.3338378e-118
4.3338393e-118
4.3338678e-118
4.3535904e-118
4.3347531e-118
4.3338385e-118
4.3338082e-118
4.3338075e-118
4.3338074e-118
4.3338074e-118
4.3338075e-118
4.3338089e-118
4.3338375e-118
4.3535896e-118
4.3347524e-118
4.3338378e-118
4.3338075e-118
4.3338067e-118
4.3338067e-118
4.3338067e-118
4.3338067e-118
4.3338082e-118
4.3338368e-118
4.3535896e-118
4.3347524e-118
4.3338378e-118
4.3338074e-118
4.3338067e-118
4.3338067e-118
4.3338067e-118
4.3338067e-118
4.3338082e-118
4.3338368e-118
4.3535896e-118
4.3347524e-118
4.3338378e-118
4.3338074e-118
4.3338067e-118
4.3338067e-118
4.3338067e-118
4.3338067e-118
4.3338082e-118
4.3338368e-118
4.3535896e-118
4.3347524e-118
4.3338378e-118
4.3338075e-118
4.3338067e-118
4.3338067e-118
4.3338067e-118
4.3338068e-118
4.3338082e-118
4.3338368e-118
4.3535897e-118
4.3347538e-118
4.3338393e-118
4.3338089e-118
4.3338082e-118
4.3338082e-118
4.3338082e-118
4.3338082e-118
4.3338097e-118
4.3338382e-118
4.3535918e-118
4.3347812e-118
4.3338678e-118
4.3338375e-118
4.3338368e-118
4.3338368e-118
4.3338368e-118
4.3338368e-118
4.3338382e-118
4.3338668e-118
2.8572761e-116
2.8452824e-116
2.8447002e-116
2.8446809e-116
2.8446804e-116
2.8446804e-116
2.8446804e-116
2.8446804e-116
2.8446804e-116
2.8446818e-116
2.8452824e-116
2.8333445e-116
2.832765e-116
2.8327458e-116
2.8327453e-116
2.8327453e-116
2.8327453e-116
2.8327453e-116
2.8327462e-116
2.8327639e-116
2.8447002e-116
2.832765e-116
2.8321857e-116
2.8321665e-116
2.832166e-116
2.832166e-116
2.832166e-116
2.832166e-116
2.8321669e-116
2.8321854e-116
2.8446809e-116
2.8327458e-116
2.8321665e-116
2.8321473e-116
2.8321468e-116
2.8321468e-116
2.8321468e-116
2.8321468e-116
2.8321477e-116
2.8321662e-116
2.8446804e-116
2.8327453e-116
2.832166e-116
2.8321468e-116
2.8321463e-116
2.8321463e-116
2.8321463e-116
2.8321463e-116
2.8321473e-116
2.8321657e-116
2.8446804e-116
2.8327453e-116
2.832166e-116
2.8321468e-116
2.8321463e-116
2.8321463e-116
2.8321463e-116
2.8321463e-116
2.8321473e-116
2.8321657e-116
2.8446804e-116
2.8327453e-116
2.832166e-116
2.8321468e-116
2.8321463e-116
2.8321463e-116
2.8321463e-116
2.8321463e-116
2.8321473e-116
2.8321657e-116
2.8446804e-116
2.8327453e-116
2.832166e-116
2.8321468e-116
2.8321463e-116
2.8321463e-116
2.8321463e-116
2.8321464e-116
2.8321473e-116
2.8321657e-116
2.8446804e-116
2.8327462e-116
2.8321669e-116
2.8321477e-116
2.8321473e-116
2.8321473e-116
2.8321473e-116
2.8321473e-116
2.8321482e-116
2.8321666e-116
2.8446818e-116
2.8327639e-116
2.8321854e-116
2.8321662e-116
2.8321657e-116
2.8321657e-116
2.8321657e-116
2.8321657e-116
2.8321666e-116
2.8321851e-116
1.924331e-114
1.9165033e-114
1.9161234e-114
1.9161108e-114
1.9161105e-114
1.9161105e-114
1.9161105e-114
1.9161105e-114
1.9161105e-114
1.9161114e-114
1.9165033e-114
1.9087109e-114
1.9083328e-114
1.9083203e-114
1.90832e-114
1.9083199e-114
1.9083199e-114
1.90832e-114
1.9083206e-114
1.9083323e-114
1.9161234e-114
1.9083328e-114
1.9079547e-114
1.9079422e-114
1.9079419e-114
1.9079419e-114
1.9079419e-114
1.9079419e-114
1.9079425e-114
1.9079548e-114
1.9161108e-114
1.9083203e-114
1.9079422e-114
1.9079297e-114
1.9079294e-114
1.9079294e-114
1.9079294e-114
1.9079294e-114
1.90793e-114
1.9079423e-114
1.9161105e-114
1.90832e-114
1.9079419e-114
1.9079294e-114
1.9079291e-114
1.9079291e-114
1.9079291e-114
1.9079291e-114
1.9079297e-114
1.9079419e-114
1.9161105e-114
1.9083199e-114
1.9079419e-114
1.9079294e-114
1.9079291e-114
1.9079291e-114
1.9079291e-114
1.9079291e-114
1.9079297e-114
1.9079419e-114
1.9161105e-114
1.9083199e-114
1.9079419e-114
1.9079294e-114
1.9079291e-114
1.9079291e-114
1.9079291e-114
1.9079291e-114
1.9079297e-114
1.9079419e-114
1.9161105e-114
1.90832e-114
1.9079419e-114
1.9079294e-114
1.9079291e-114
1.9079291e-114
1.9079291e-114
1.9079291e-114
1.9079297e-114
1.907942e-114
1.9161105e-114
1.9083206e-114
1.9079425e-114
1.90793e-114
1.9079297e-114
1.9079297e-114
1.9079297e-114
1.9079297e-114
1.9079303e-114
1.9079426e-114
1.9161114e-114
1.9083323e-114
1.9079548e-114
1.9079423e-114
1.9079419e-114
1.9079419e-114
1.9079419e-114
1.907942e-114
1.9079426e-114
1.9079548e-114
1.3356328e-112
1.3303711e-112
1.3301158e-112
1.3301074e-112
1.3301072e-112
1.3301072e-112
1.3301072e-112
1.3301072e-112
1.3301072e-112
1.3301078e-112
1.3303711e-112
1.3251326e-112
1.3248784e-112
1.32487e-112
1.3248698e-112
1.3248698e-112
1.3248698e-112
1.3248698e-112
1.3248702e-112
1.3248783e-112
1.3301158e-112
1.3248784e-112
1.3246243e-112
1.3246159e-112
1.3246157e-112
1.3246157e-112
1.3246157e-112
1.3246157e-112
1.3246162e-112
1.3246245e-112
1.3301074e-112
1.32487e-112
1.3246159e-112
1.3246075e-112
1.3246073e-112
1.3246073e-112
1.3246073e-112
1.3246073e-112
1.3246077e-112
1.3246161e-112
1.3301072e-112
1.3248698e-112
1.3246157e-112
1.3246073e-112
1.3246071e-112
1.3246071e-112
1.3246071e-112
1.3246071e-112
1.3246075e-112
1.3246159e-112
1.3301072e-112
1.3248698e-112
1.3246157e-112
1.3246073e-112
1.3246071e-112
1.3246071e-112
1.3246071e-112
1.3246071e-112
1.3246075e-112
1.3246159e-112
1.3301072e-112
1.3248698e-112
1.3246157e-112
1.3246073e-112
1.3246071e-112
1.3246071e-112
1.3246071e-112
1.3246071e-112
1.3246075e-112
1.3246159e-112
1.3301072e-112
1.3248698e-112
1.3246157e-112
1.3246073e-112
1.3246071e-112
1.3246071e-112
1.3246071e-112
1.3246071e-112
1.3246075e-112
1.3246159e-112
1.3301072e-112
1.3248702e-112
1.3246162e-112
1.3246077e-112
1.3246075e-112
1.3246075e-112
1.3246075e-112
1.3246075e-112
1.324608e-112
1.3246163e-112
1.3301078e-112
1.3248783e-112
1.3246245e-112
1.3246161e-112
1.3246159e-112
1.3246159e-112
1.3246159e-112
1.3246159e-112
1.3246163e-112
1.3246247e-112
9.5509545e-111
9.5145394e-111
9.5127731e-111
9.5127146e-111
9.5127132e-111
9.5127132e-111
9.5127132e-111
9.5127132e-111
9.5127134e-111
9.5127174e-111
9.5145394e-111
9.4782801e-111
9.4765215e-111
9.4764633e-111
9.4764618e-111
9.4764618e-111
9.4764618e-111
9.4764619e-111
9.4764647e-111
9.4765214e-111
9.5127731e-111
9.4765215e-111
9.4747632e-111
9.474705e-111
9.4747036e-111
9.4747035e-111
9.4747035e-111
9.4747036e-111
9.4747066e-111
9.4747657e-111
9.5127146e-111
9.4764633e-111
9.474705e-111
9.4746468e-111
9.4746453e-111
9.4746453e-111
9.4746453e-111
9.4746454e-111
9.4746484e-111
9.4747076e-111
9.5127132e-111
9.4764618e-111
9.4747036e-111
9.4746453e-111
9.4746439e-111
9.4746439e-111
9.4746439e-111
9.474644e-111
9.474647e-111
9.4747061e-111
9.5127132e-111
9.4764618e-111
9.4747035e-111
9.4746453e-111
9.4746439e-111
9.4746438e-111
9.4746438e-111
9.4746439e-111
9.4746469e-111
9.4747061e-111
9.5127132e-111
9.4764618e-111
9.4747035e-111
9.4746453e-111
9.4746439e-111
9.4746438e-111
9.4746438e-111
9.4746439e-111
9.4746469e-111
9.4747061e-111
9.5127132e-111
9.4764619e-111
9.4747036e-111
9.4746454e-111
9.474644e-111
9.4746439e-111
9.4746439e-111
9.474644e-111
9.474647e-111
9.4747062e-111
9.5127134e-111
9.4764647e-111
9.4747066e-111
9.4746484e-111
9.474647e-111
9.4746469e-111
9.4746469e-111
9.474647e-111
9.47465e-111
9.4747092e-111
9.5127174e-111
9.4765214e-111
9.4747657e-111
9.4747076e-111
9.4747061e-111
9.4747061e-111
9.4747061e-111
9.4747062e-111
9.4747092e-111
9.4747683e-111
7.0343833e-109
7.0084439e-109
7.0071861e-109
7.0071445e-109
7.0071434e-109
7.0071434e-109
7.0071434e-109
7.0071434e-109
7.0071436e-109
7.0071465e-109
7.0084439e-109
6.9826124e-109
6.9813598e-109
6.9813184e-109
6.9813173e-109
6.9813173e-109
6.9813173e-109
6.9813174e-109
6.9813194e-109
6.9813606e-109
7.0071861e-109
6.9813598e-109
6.9801075e-109
6.9800661e-109
6.980065e-109
6.980065e-109
6.980065e-109
6.9800651e-109
6.9800673e-109
6.9801102e-109
7.0071445e-109
6.9813184e-109
6.9800661e-109
6.9800246e-109
6.9800236e-109
6.9800236e-109
6.9800236e-109
6.9800237e-109
6.9800258e-109
6.9800688e-109
7.0071434e-109
6.9813173e-109
6.980065e-109
6.9800236e-109
6.9800226e-109
6.9800225e-109
6.9800225e-109
6.9800226e-109
6.9800248e-109
6.9800678e-109
7.0071434e-109
6.9813173e-109
6.980065e-109
6.9800236e-109
6.9800225e-109
6.9800225e-109
6.9800225e-109
6.9800226e-109
6.9800248e-109
6.9800677e-109
7.0071434e-109
6.9813173e-109
6.980065e-109
6.9800236e-109
6.9800225e-109
6.9800225e-109
6.9800225e-109
6.9800226e-109
6.9800248e-109
6.9800677e-109
7.0071434e-109
6.9813174e-109
6.9800651e-109
6.9800237e-109
6.9800226e-109
6.9800226e-109
6.9800226e-109
6.9800227e-109
6.9800248e-109
6.9800678e-109
7.0071436e-109
6.9813194e-109
6.9800673e-109
6.9800258e-109
6.9800248e-109
6.9800248e-109
6.9800248e-109
6.9800248e-109
6.980027e-109
6.98007e-109
7.0071465e-109
6.9813606e-109
6.9801102e-109
6.9800688e-109
6.9800678e-109
6.9800677e-109
6.9800677e-109
6.9800678e-109
6.98007e-109
6.980113e-109
5.3344084e-107
5.3153971e-107
5.3144755e-107
5.314445e-107
5.3144443e-107
5.3144442e-107
5.3144442e-107
5.3144443e-107
5.3144444e-107
5.3144465e-107
5.3153971e-107
5.2964625e-107
5.2955447e-107
5.2955143e-107
5.2955135e-107
5.2955135e-107
5.2955135e-107
5.2955136e-107
5.2955151e-107
5.2955459e-107
5.3144755e-107
5.2955447e-107
5.294627e-107
5.2945966e-107
5.2945959e-107
5.2945958e-107
5.2945958e-107
5.2945959e-107
5.2945975e-107
5.2946296e-107
5.314445e-107
5.2955143e-107
5.2945966e-107
5.2945663e-107
5.2945655e-107
5.2945655e-107
5.2945655e-107
5.2945655e-107
5.2945672e-107
5.2945993e-107
5.3144443e-107
5.2955135e-107
5.2945959e-107
5.2945655e-107
5.2945647e-107
5.2945647e-107
5.2945647e-107
5.2945648e-107
5.2945664e-107
5.2945985e-107
5.3144442e-107
5.2955135e-107
5.2945958e-107
5.2945655e-107
5.2945647e-107
5.2945647e-107
5.2945647e-107
5.2945648e-107
5.2945664e-107
5.2945985e-107
5.3144442e-107
5.2955135e-107
5.2945958e-107
5.2945655e-107
5.2945647e-107
5.2945647e-107
5.2945647e-107
5.2945648e-107
5.2945664e-107
5.2945985e-107
5.3144443e-107
5.2955136e-107
5.2945959e-107
5.2945655e-107
5.2945648e-107
5.2945648e-107
5.2945648e-107
5.2945648e-107
5.2945664e-107
5.2945986e-107
5.3144444e-107
5.2955151e-107
5.2945975e-107
5.2945672e-107
5.2945664e-107
5.2945664e-107
5.2945664e-107
5.2945664e-107
5.2945681e-107
5.2946002e-107
5.3144465e-107
5.2955459e-107
5.2946296e-107
5.2945993e-107
5.2945985e-107
5.2945985e-107
5.2945985e-107
5.2945986e-107
5.2946002e-107
5.2946323e-107
4.163733e-105
4.1494018e-105
4.1487073e-105
4.1486843e-105
4.1486837e-105
4.1486837e-105
4.1486837e-105
4.1486837e-105
4.1486838e-105
4.1486854e-105
4.1494018e-105
4.1351267e-105
4.1344349e-105
4.1344121e-105
4.1344115e-105
4.1344115e-105
4.1344115e-105
4.1344115e-105
4.1344127e-105
4.1344364e-105
4.1487073e-105
4.1344349e-105
4.1337433e-105
4.1337204e-105
4.1337198e-105
4.1337198e-105
4.1337198e-105
4.1337199e-105
4.1337211e-105
4.1337458e-105
4.1486843e-105
4.1344121e-105
4.1337204e-105
4.1336975e-105
4.133697e-105
4.1336969e-105
4.1336969e-105
4.133697e-105
4.1336982e-105
4.1337229e-105
4.1486837e-105
4.1344115e-105
4.1337198e-105
4.133697e-105
4.1336964e-105
4.1336964e-105
4.1336964e-105
4.1336964e-105
4.1336977e-105
4.1337224e-105
4.1486837e-105
4.1344115e-105
4.1337198e-105