/*--------------------------------*- C++ -*----------------------------------*\
| =========                 |                                                 |
| \\      /  F ield         | OpenFOAM: The Open Source CFD Toolbox           |
|  \\    /   O peration     | Version:  dev                                   |
|   \\  /    A nd           | Web:      www.OpenFOAM.org                      |
|    \\/     M anipulation  |                                                 |
\*---------------------------------------------------------------------------*/
FoamFile
{
    version     2.0;
    format      ascii;
    class       volScalarField;
    location    "97.995";
    object      A;
}
// * * * * * * * * * * * * * * * * * * * * * * * * * * * * * * * * * * * * * //

dimensions      [0 0 0 0 1 0 0];

internalField   nonuniform List<scalar> 
10000
(
3.4124835e-21
3.4097728e-21
3.4082459e-21
3.4073413e-21
3.406826e-21
3.406569e-21
3.4065017e-21
3.4066083e-21
3.406933e-21
3.4075625e-21
3.4097728e-21
3.407072e-21
3.4055487e-21
3.4046459e-21
3.4041319e-21
3.4038767e-21
3.4038126e-21
3.4039262e-21
3.4042682e-21
3.404947e-21
3.4082459e-21
3.4055487e-21
3.4040278e-21
3.4031268e-21
3.4026146e-21
3.4023617e-21
3.4023016e-21
3.4024223e-21
3.4027767e-21
3.4034727e-21
3.4073413e-21
3.4046459e-21
3.4031268e-21
3.4022274e-21
3.4017171e-21
3.4014666e-21
3.40141e-21
3.4015359e-21
3.4018974e-21
3.4026001e-21
3.406826e-21
3.4041319e-21
3.4026146e-21
3.4017171e-21
3.4012086e-21
3.4009602e-21
3.4009063e-21
3.4010357e-21
3.401401e-21
3.4021067e-21
3.406569e-21
3.4038767e-21
3.4023617e-21
3.4014666e-21
3.4009602e-21
3.4007139e-21
3.400662e-21
3.4007936e-21
3.401161e-21
3.4018682e-21
3.4065017e-21
3.4038126e-21
3.4023016e-21
3.40141e-21
3.4009063e-21
3.400662e-21
3.4006119e-21
3.4007449e-21
3.4011136e-21
3.4018215e-21
3.4066083e-21
3.4039262e-21
3.4024223e-21
3.4015359e-21
3.4010357e-21
3.4007936e-21
3.4007449e-21
3.4008791e-21
3.4012487e-21
3.4019572e-21
3.406933e-21
3.4042682e-21
3.4027767e-21
3.4018974e-21
3.401401e-21
3.401161e-21
3.4011136e-21
3.4012487e-21
3.401619e-21
3.4023284e-21
3.4075625e-21
3.404947e-21
3.4034727e-21
3.4026001e-21
3.4021067e-21
3.4018682e-21
3.4018215e-21
3.4019572e-21
3.4023284e-21
3.4030397e-21
1.1103453e-20
1.1094982e-20
1.1090064e-20
1.1087143e-20
1.1085477e-20
1.1084646e-20
1.1084428e-20
1.1084771e-20
1.1085819e-20
1.1087921e-20
1.1094982e-20
1.1086541e-20
1.1081634e-20
1.1078718e-20
1.1077057e-20
1.1076232e-20
1.1076024e-20
1.107639e-20
1.1077494e-20
1.1079757e-20
1.1090064e-20
1.1081634e-20
1.1076735e-20
1.1073825e-20
1.107217e-20
1.1071352e-20
1.1071157e-20
1.1071546e-20
1.107269e-20
1.1075009e-20
1.1087143e-20
1.1078718e-20
1.1073825e-20
1.1070921e-20
1.1069271e-20
1.1068461e-20
1.1068278e-20
1.1068683e-20
1.1069851e-20
1.1072192e-20
1.1085477e-20
1.1077057e-20
1.107217e-20
1.1069271e-20
1.1067628e-20
1.1066825e-20
1.106665e-20
1.1067067e-20
1.1068247e-20
1.1070598e-20
1.1084646e-20
1.1076232e-20
1.1071352e-20
1.1068461e-20
1.1066825e-20
1.1066029e-20
1.106586e-20
1.1066284e-20
1.1067471e-20
1.1069826e-20
1.1084428e-20
1.1076024e-20
1.1071157e-20
1.1068278e-20
1.106665e-20
1.106586e-20
1.1065697e-20
1.1066126e-20
1.1067317e-20
1.1069675e-20
1.1084771e-20
1.107639e-20
1.1071546e-20
1.1068683e-20
1.1067067e-20
1.1066284e-20
1.1066126e-20
1.1066558e-20
1.1067752e-20
1.1070112e-20
1.1085819e-20
1.1077494e-20
1.107269e-20
1.1069851e-20
1.1068247e-20
1.1067471e-20
1.1067317e-20
1.1067752e-20
1.1068948e-20
1.1071311e-20
1.1087921e-20
1.1079757e-20
1.1075009e-20
1.1072192e-20
1.1070598e-20
1.1069826e-20
1.1069675e-20
1.1070112e-20
1.1071311e-20
1.1073681e-20
2.1654154e-20
2.1638192e-20
2.1628769e-20
2.1623154e-20
2.1619948e-20
2.1618346e-20
2.1617923e-20
2.1618576e-20
2.1620584e-20
2.1624744e-20
2.1638192e-20
2.1622286e-20
2.1612884e-20
2.160728e-20
2.1604083e-20
2.1602492e-20
2.1602089e-20
2.1602786e-20
2.1604903e-20
2.1609378e-20
2.1628769e-20
2.1612884e-20
2.1603497e-20
2.1597904e-20
2.1594718e-20
2.1593142e-20
2.1592764e-20
2.1593506e-20
2.1595701e-20
2.1600284e-20
2.1623154e-20
2.160728e-20
2.1597904e-20
2.1592321e-20
2.1589147e-20
2.1587586e-20
2.158723e-20
2.1588005e-20
2.1590244e-20
2.159487e-20
2.1619948e-20
2.1604083e-20
2.1594718e-20
2.1589147e-20
2.1585984e-20
2.1584436e-20
2.1584097e-20
2.1584894e-20
2.1587157e-20
2.1591802e-20
2.1618346e-20
2.1602492e-20
2.1593142e-20
2.1587586e-20
2.1584436e-20
2.1582902e-20
2.1582575e-20
2.1583386e-20
2.1585663e-20
2.1590316e-20
2.1617923e-20
2.1602089e-20
2.1592764e-20
2.158723e-20
2.1584097e-20
2.1582575e-20
2.158226e-20
2.158308e-20
2.1585364e-20
2.1590023e-20
2.1618576e-20
2.1602786e-20
2.1593506e-20
2.1588005e-20
2.1584894e-20
2.1583386e-20
2.158308e-20
2.1583907e-20
2.1586197e-20
2.1590859e-20
2.1620584e-20
2.1604903e-20
2.1595701e-20
2.1590244e-20
2.1587157e-20
2.1585663e-20
2.1585364e-20
2.1586197e-20
2.1588492e-20
2.159316e-20
2.1624744e-20
2.1609378e-20
2.1600284e-20
2.159487e-20
2.1591802e-20
2.1590316e-20
2.1590023e-20
2.1590859e-20
2.159316e-20
2.1597841e-20
3.7892879e-20
3.7865879e-20
3.7849769e-20
3.7840135e-20
3.7834624e-20
3.7831867e-20
3.7831132e-20
3.7832239e-20
3.7835656e-20
3.7842833e-20
3.7865879e-20
3.7838974e-20
3.7822899e-20
3.7813284e-20
3.7807788e-20
3.7805049e-20
3.7804349e-20
3.7805533e-20
3.7809141e-20
3.7816866e-20
3.7849769e-20
3.7822899e-20
3.7806849e-20
3.7797252e-20
3.7791776e-20
3.7789063e-20
3.7788407e-20
3.7789669e-20
3.7793412e-20
3.7801326e-20
3.7840135e-20
3.7813284e-20
3.7797252e-20
3.7787674e-20
3.7782217e-20
3.7779531e-20
3.7778913e-20
3.7780232e-20
3.7784052e-20
3.7792041e-20
3.7834624e-20
3.7807788e-20
3.7791776e-20
3.7782217e-20
3.7776781e-20
3.7774118e-20
3.7773529e-20
3.7774885e-20
3.7778748e-20
3.7786769e-20
3.7831867e-20
3.7805049e-20
3.7789063e-20
3.7779531e-20
3.7774118e-20
3.7771476e-20
3.777091e-20
3.7772291e-20
3.7776177e-20
3.7784213e-20
3.7831132e-20
3.7804349e-20
3.7788407e-20
3.7778913e-20
3.7773529e-20
3.777091e-20
3.7770362e-20
3.7771759e-20
3.7775659e-20
3.7783704e-20
3.7832239e-20
3.7805533e-20
3.7789669e-20
3.7780232e-20
3.7774885e-20
3.7772291e-20
3.7771759e-20
3.7773168e-20
3.7777077e-20
3.7785129e-20
3.7835656e-20
3.7809141e-20
3.7793412e-20
3.7784052e-20
3.7778748e-20
3.7776177e-20
3.7775659e-20
3.7777077e-20
3.7780996e-20
3.7789056e-20
3.7842833e-20
3.7816866e-20
3.7801326e-20
3.7792041e-20
3.7786769e-20
3.7784213e-20
3.7783704e-20
3.7785129e-20
3.7789056e-20
3.7797141e-20
6.4401741e-20
6.4357399e-20
6.4330739e-20
6.4314741e-20
6.4305572e-20
6.4300975e-20
6.4299738e-20
6.4301549e-20
6.4307156e-20
6.4318965e-20
6.4357399e-20
6.4313211e-20
6.4286609e-20
6.4270642e-20
6.4261497e-20
6.4256932e-20
6.4255753e-20
6.4257693e-20
6.4263624e-20
6.4276361e-20
6.4330739e-20
6.4286609e-20
6.4260048e-20
6.4244112e-20
6.4234999e-20
6.4230478e-20
6.4229374e-20
6.4231445e-20
6.4237604e-20
6.4250661e-20
6.4314741e-20
6.4270642e-20
6.4244112e-20
6.4228207e-20
6.4219127e-20
6.421465e-20
6.421361e-20
6.4215778e-20
6.4222067e-20
6.4235249e-20
6.4305572e-20
6.4261497e-20
6.4234999e-20
6.4219127e-20
6.4210082e-20
6.4205644e-20
6.4204653e-20
6.4206884e-20
6.4213245e-20
6.4226482e-20
6.4300975e-20
6.4256932e-20
6.4230478e-20
6.421465e-20
6.4205644e-20
6.4201242e-20
6.4200289e-20
6.4202561e-20
6.4208961e-20
6.4222224e-20
6.4299738e-20
6.4255753e-20
6.4229374e-20
6.421361e-20
6.4204653e-20
6.4200289e-20
6.4199367e-20
6.4201666e-20
6.4208089e-20
6.4221367e-20
6.4301549e-20
6.4257693e-20
6.4231445e-20
6.4215778e-20
6.4206884e-20
6.4202561e-20
6.4201666e-20
6.4203986e-20
6.4210425e-20
6.4223713e-20
6.4307156e-20
6.4263624e-20
6.4237604e-20
6.4222067e-20
6.4213245e-20
6.4208961e-20
6.4208089e-20
6.4210425e-20
6.4216879e-20
6.4230182e-20
6.4318965e-20
6.4276361e-20
6.4250661e-20
6.4235249e-20
6.4226482e-20
6.4222224e-20
6.4221367e-20
6.4223713e-20
6.4230182e-20
6.4243525e-20
1.0896441e-19
1.0889194e-19
1.0884812e-19
1.0882173e-19
1.0880657e-19
1.0879896e-19
1.0879689e-19
1.0879982e-19
1.0880894e-19
1.0882809e-19
1.0889194e-19
1.0881973e-19
1.0877599e-19
1.0874965e-19
1.0873454e-19
1.0872698e-19
1.0872501e-19
1.0872816e-19
1.0873782e-19
1.0875853e-19
1.0884812e-19
1.0877599e-19
1.0873233e-19
1.0870604e-19
1.0869098e-19
1.0868349e-19
1.0868164e-19
1.0868501e-19
1.0869506e-19
1.0871631e-19
1.0882173e-19
1.0874965e-19
1.0870604e-19
1.086798e-19
1.0866479e-19
1.0865738e-19
1.0865564e-19
1.0865918e-19
1.0866944e-19
1.086909e-19
1.0880657e-19
1.0873454e-19
1.0869098e-19
1.0866479e-19
1.0864984e-19
1.0864249e-19
1.0864084e-19
1.0864448e-19
1.0865486e-19
1.0867642e-19
1.0879896e-19
1.0872698e-19
1.0868349e-19
1.0865738e-19
1.0864249e-19
1.0863521e-19
1.0863361e-19
1.0863732e-19
1.0864777e-19
1.0866937e-19
1.0879689e-19
1.0872501e-19
1.0868164e-19
1.0865564e-19
1.0864084e-19
1.0863361e-19
1.0863207e-19
1.0863583e-19
1.0864631e-19
1.0866794e-19
1.0879982e-19
1.0872816e-19
1.0868501e-19
1.0865918e-19
1.0864448e-19
1.0863732e-19
1.0863583e-19
1.0863962e-19
1.0865013e-19
1.0867177e-19
1.0880894e-19
1.0873782e-19
1.0869506e-19
1.0866944e-19
1.0865486e-19
1.0864777e-19
1.0864631e-19
1.0865013e-19
1.0866067e-19
1.0868233e-19
1.0882809e-19
1.0875853e-19
1.0871631e-19
1.086909e-19
1.0867642e-19
1.0866937e-19
1.0866794e-19
1.0867177e-19
1.0868233e-19
1.0870406e-19
1.8513219e-19
1.8501332e-19
1.8494106e-19
1.848974e-19
1.8487227e-19
1.8485963e-19
1.8485615e-19
1.8486092e-19
1.8487577e-19
1.849068e-19
1.8501332e-19
1.8489486e-19
1.8482275e-19
1.8477917e-19
1.8475411e-19
1.8474156e-19
1.8473825e-19
1.8474338e-19
1.8475915e-19
1.8479281e-19
1.8494106e-19
1.8482275e-19
1.8475075e-19
1.8470726e-19
1.8468229e-19
1.8466985e-19
1.8466675e-19
1.8467226e-19
1.8468867e-19
1.8472324e-19
1.848974e-19
1.8477917e-19
1.8470726e-19
1.8466386e-19
1.8463898e-19
1.8462666e-19
1.8462375e-19
1.8462953e-19
1.8464631e-19
1.8468123e-19
1.8487227e-19
1.8475411e-19
1.8468229e-19
1.8463898e-19
1.8461419e-19
1.8460199e-19
1.8459921e-19
1.8460517e-19
1.8462215e-19
1.8465723e-19
1.8485963e-19
1.8474156e-19
1.8466985e-19
1.8462666e-19
1.8460199e-19
1.8458989e-19
1.8458722e-19
1.8459329e-19
1.8461038e-19
1.8464554e-19
1.8485615e-19
1.8473825e-19
1.8466675e-19
1.8462375e-19
1.8459921e-19
1.8458722e-19
1.8458463e-19
1.8459078e-19
1.8460794e-19
1.8464314e-19
1.8486092e-19
1.8474338e-19
1.8467226e-19
1.8462953e-19
1.8460517e-19
1.8459329e-19
1.8459078e-19
1.8459699e-19
1.8461419e-19
1.8464942e-19
1.8487577e-19
1.8475915e-19
1.8468867e-19
1.8464631e-19
1.8462215e-19
1.8461038e-19
1.8460794e-19
1.8461419e-19
1.8463143e-19
1.846667e-19
1.849068e-19
1.8479281e-19
1.8472324e-19
1.8468123e-19
1.8465723e-19
1.8464554e-19
1.8464314e-19
1.8464942e-19
1.846667e-19
1.8470207e-19
3.1684927e-19
3.1665294e-19
3.16533e-19
3.1646032e-19
3.164184e-19
3.1639725e-19
3.1639139e-19
3.1639919e-19
3.164235e-19
3.1647401e-19
3.1665294e-19
3.1645727e-19
3.1633759e-19
3.1626505e-19
3.1622323e-19
3.1620224e-19
3.1619665e-19
3.1620507e-19
3.1623094e-19
3.1628594e-19
3.16533e-19
3.1633759e-19
3.1621809e-19
3.1614569e-19
3.1610403e-19
3.1608324e-19
3.1607801e-19
3.1608705e-19
3.1611402e-19
3.1617056e-19
3.1646032e-19
3.1626505e-19
3.1614569e-19
3.1607343e-19
3.1603192e-19
3.1601134e-19
3.1600642e-19
3.1601593e-19
3.1604352e-19
3.1610066e-19
3.164184e-19
3.1622323e-19
3.1610403e-19
3.1603192e-19
3.1599057e-19
3.1597018e-19
3.1596549e-19
3.159753e-19
3.1600324e-19
3.1606064e-19
3.1639725e-19
3.1620224e-19
3.1608324e-19
3.1601134e-19
3.1597018e-19
3.1594996e-19
3.1594545e-19
3.1595546e-19
3.1598358e-19
3.1604111e-19
3.1639139e-19
3.1619665e-19
3.1607801e-19
3.1600642e-19
3.1596549e-19
3.1594545e-19
3.1594109e-19
3.1595122e-19
3.1597946e-19
3.1603706e-19
3.1639919e-19
3.1620507e-19
3.1608705e-19
3.1601593e-19
3.159753e-19
3.1595546e-19
3.1595122e-19
3.1596145e-19
3.1598977e-19
3.1604741e-19
3.164235e-19
3.1623094e-19
3.1611402e-19
3.1604352e-19
3.1600324e-19
3.1598358e-19
3.1597946e-19
3.1598977e-19
3.1601814e-19
3.1607585e-19
3.1647401e-19
3.1628594e-19
3.1617056e-19
3.1610066e-19
3.1606064e-19
3.1604111e-19
3.1603706e-19
3.1604741e-19
3.1607585e-19
3.1613373e-19
5.4688658e-19
5.4655968e-19
5.4635907e-19
5.4623712e-19
5.4616662e-19
5.46131e-19
5.4612102e-19
5.4613386e-19
5.4617399e-19
5.462568e-19
5.4655968e-19
5.4623389e-19
5.460337e-19
5.4591197e-19
5.4584166e-19
5.4580629e-19
5.4579679e-19
5.4581069e-19
5.4585349e-19
5.4594399e-19
5.4635907e-19
5.460337e-19
5.4583382e-19
5.4571233e-19
5.4564227e-19
5.4560725e-19
5.4559835e-19
5.4561333e-19
5.45658e-19
5.4575114e-19
5.4623712e-19
5.4591197e-19
5.4571233e-19
5.4559108e-19
5.4552128e-19
5.4548662e-19
5.4547825e-19
5.4549401e-19
5.4553976e-19
5.4563393e-19
5.4616662e-19
5.4584166e-19
5.4564227e-19
5.4552128e-19
5.4545177e-19
5.4541742e-19
5.4540945e-19
5.4542573e-19
5.4547205e-19
5.4556668e-19
5.46131e-19
5.4580629e-19
5.4560725e-19
5.4548662e-19
5.4541742e-19
5.4538338e-19
5.4537571e-19
5.4539232e-19
5.4543897e-19
5.455338e-19
5.4612102e-19
5.4579679e-19
5.4559835e-19
5.4547825e-19
5.4540945e-19
5.4537571e-19
5.453683e-19
5.4538513e-19
5.4543196e-19
5.4552692e-19
5.4613386e-19
5.4581069e-19
5.4561333e-19
5.4549401e-19
5.4542573e-19
5.4539232e-19
5.4538513e-19
5.4540213e-19
5.4544909e-19
5.4554413e-19
5.4617399e-19
5.4585349e-19
5.45658e-19
5.4553976e-19
5.4547205e-19
5.4543897e-19
5.4543196e-19
5.4544909e-19
5.4549616e-19
5.455913e-19
5.462568e-19
5.4594399e-19
5.4575114e-19
5.4563393e-19
5.4556668e-19
5.455338e-19
5.4552692e-19
5.4554413e-19
5.455913e-19
5.4568673e-19
9.5236826e-19
9.5181936e-19
9.5148098e-19
9.5127464e-19
9.5115511e-19
9.510946e-19
9.5107749e-19
9.5109882e-19
9.5116559e-19
9.5130247e-19
9.5181936e-19
9.512723e-19
9.5093462e-19
9.5072866e-19
9.5060945e-19
9.5054937e-19
9.5053309e-19
9.5055624e-19
9.5062763e-19
9.5077779e-19
9.5148098e-19
9.5093462e-19
9.5059746e-19
9.5039191e-19
9.5027312e-19
9.5021365e-19
9.501984e-19
9.5022341e-19
9.5029803e-19
9.5045275e-19
9.5127464e-19
9.5072866e-19
9.5039191e-19
9.5018676e-19
9.5006843e-19
9.5000956e-19
9.4999522e-19
9.5002159e-19
9.5009805e-19
9.5025456e-19
9.5115511e-19
9.5060945e-19
9.5027312e-19
9.5006843e-19
9.4995057e-19
9.4989225e-19
9.498786e-19
9.4990585e-19
9.4998332e-19
9.5014061e-19
9.510946e-19
9.5054937e-19
9.5021365e-19
9.5000956e-19
9.4989225e-19
9.4983445e-19
9.4982132e-19
9.4984914e-19
9.4992716e-19
9.5008482e-19
9.5107749e-19
9.5053309e-19
9.501984e-19
9.4999522e-19
9.498786e-19
9.4982132e-19
9.4980863e-19
9.4983683e-19
9.4991518e-19
9.5007304e-19
9.5109882e-19
9.5055624e-19
9.5022341e-19
9.5002159e-19
9.4990585e-19
9.4984914e-19
9.4983683e-19
9.4986532e-19
9.4994388e-19
9.5010188e-19
9.5116559e-19
9.5062763e-19
9.5029803e-19
9.5009805e-19
9.4998332e-19
9.4992716e-19
9.4991518e-19
9.4994388e-19
9.5002263e-19
9.5018081e-19
9.5130247e-19
9.5077779e-19
9.5045275e-19
9.5025456e-19
9.5014061e-19
9.5008482e-19
9.5007304e-19
9.5010188e-19
9.5018081e-19
9.5033945e-19
1.6736077e-18
1.672678e-18
1.6721024e-18
1.6717503e-18
1.6715459e-18
1.6714422e-18
1.6714126e-18
1.6714484e-18
1.6715604e-18
1.6717886e-18
1.672678e-18
1.6717515e-18
1.671177e-18
1.6708255e-18
1.6706216e-18
1.6705187e-18
1.6704906e-18
1.6705295e-18
1.6706496e-18
1.670901e-18
1.6721024e-18
1.671177e-18
1.6706033e-18
1.6702526e-18
1.6700495e-18
1.6699476e-18
1.6699213e-18
1.6699634e-18
1.6700891e-18
1.6703484e-18
1.6717503e-18
1.6708255e-18
1.6702526e-18
1.6699025e-18
1.6697002e-18
1.6695994e-18
1.6695746e-18
1.6696191e-18
1.669748e-18
1.6700104e-18
1.6715459e-18
1.6706216e-18
1.6700495e-18
1.6697002e-18
1.6694987e-18
1.6693988e-18
1.6693752e-18
1.6694213e-18
1.669552e-18
1.6698157e-18
1.6714422e-18
1.6705187e-18
1.6699476e-18
1.6695994e-18
1.6693988e-18
1.6692998e-18
1.6692772e-18
1.6693242e-18
1.6694558e-18
1.6697202e-18
1.6714126e-18
1.6704906e-18
1.6699213e-18
1.6695746e-18
1.6693752e-18
1.6692772e-18
1.6692553e-18
1.6693029e-18
1.6694352e-18
1.6696999e-18
1.6714484e-18
1.6705295e-18
1.6699634e-18
1.6696191e-18
1.6694213e-18
1.6693242e-18
1.6693029e-18
1.6693511e-18
1.6694837e-18
1.6697487e-18
1.6715604e-18
1.6706496e-18
1.6700891e-18
1.669748e-18
1.669552e-18
1.6694558e-18
1.6694352e-18
1.6694837e-18
1.6696166e-18
1.6698819e-18
1.6717886e-18
1.670901e-18
1.6703484e-18
1.6700104e-18
1.6698157e-18
1.6697202e-18
1.6696999e-18
1.6697487e-18
1.6698819e-18
1.670148e-18
2.9681191e-18
2.9665307e-18
2.9655428e-18
2.9649368e-18
2.9645842e-18
2.9644051e-18
2.9643536e-18
2.964414e-18
2.9646039e-18
2.9649876e-18
2.9665307e-18
2.9649476e-18
2.9639617e-18
2.9633568e-18
2.9630052e-18
2.9628274e-18
2.9627784e-18
2.9628443e-18
2.9630483e-18
2.9634727e-18
2.9655428e-18
2.9639617e-18
2.9629774e-18
2.9623736e-18
2.9620233e-18
2.9618473e-18
2.9618014e-18
2.9618731e-18
2.9620869e-18
2.9625253e-18
2.9649368e-18
2.9633568e-18
2.9623736e-18
2.961771e-18
2.9614221e-18
2.961248e-18
2.9612049e-18
2.9612806e-18
2.9615001e-18
2.9619439e-18
2.9645842e-18
2.9630052e-18
2.9620233e-18
2.9614221e-18
2.9610746e-18
2.9609021e-18
2.9608611e-18
2.9609396e-18
2.9611621e-18
2.9616083e-18
2.9644051e-18
2.9628274e-18
2.9618473e-18
2.961248e-18
2.9609021e-18
2.9607312e-18
2.9606918e-18
2.960772e-18
2.9609962e-18
2.9614436e-18
2.9643536e-18
2.9627784e-18
2.9618014e-18
2.9612049e-18
2.9608611e-18
2.9606918e-18
2.9606537e-18
2.9607351e-18
2.9609602e-18
2.9614082e-18
2.964414e-18
2.9628443e-18
2.9618731e-18
2.9612806e-18
2.9609396e-18
2.960772e-18
2.9607351e-18
2.9608173e-18
2.9610431e-18
2.9614915e-18
2.9646039e-18
2.9630483e-18
2.9620869e-18
2.9615001e-18
2.9611621e-18
2.9609962e-18
2.9609602e-18
2.9610431e-18
2.9612695e-18
2.9617184e-18
2.9649876e-18
2.9634727e-18
2.9625253e-18
2.9619439e-18
2.9616083e-18
2.9614436e-18
2.9614082e-18
2.9614915e-18
2.9617184e-18
2.9621686e-18
5.3126374e-18
5.3098997e-18
5.3081896e-18
5.3071374e-18
5.3065241e-18
5.3062119e-18
5.3061215e-18
5.3062245e-18
5.3065489e-18
5.3072e-18
5.3098997e-18
5.3071711e-18
5.3054644e-18
5.3044141e-18
5.3038024e-18
5.3034926e-18
5.3034065e-18
5.3035194e-18
5.3038688e-18
5.3045921e-18
5.3081896e-18
5.3054644e-18
5.3037604e-18
5.3027121e-18
5.3021027e-18
5.3017961e-18
5.3017156e-18
5.3018385e-18
5.3022054e-18
5.3029534e-18
5.3071374e-18
5.3044141e-18
5.3027121e-18
5.301666e-18
5.301059e-18
5.3007556e-18
5.30068e-18
5.3008102e-18
5.301187e-18
5.3019447e-18
5.3065241e-18
5.3038024e-18
5.3021027e-18
5.301059e-18
5.3004545e-18
5.3001541e-18
5.3000822e-18
5.3002172e-18
5.3005994e-18
5.3013613e-18
5.3062119e-18
5.3034926e-18
5.3017961e-18
5.3007556e-18
5.3001541e-18
5.2998564e-18
5.2997873e-18
5.2999254e-18
5.3003105e-18
5.3010744e-18
5.3061215e-18
5.3034065e-18
5.3017156e-18
5.30068e-18
5.3000822e-18
5.2997873e-18
5.2997205e-18
5.2998607e-18
5.3002476e-18
5.3010125e-18
5.3062245e-18
5.3035194e-18
5.3018385e-18
5.3008102e-18
5.3002172e-18
5.2999254e-18
5.2998607e-18
5.3000023e-18
5.3003903e-18
5.3011561e-18
5.3065489e-18
5.3038688e-18
5.3022054e-18
5.301187e-18
5.3005994e-18
5.3003105e-18
5.3002476e-18
5.3003903e-18
5.3007793e-18
5.301546e-18
5.3072e-18
5.3045921e-18
5.3029534e-18
5.3019447e-18
5.3013613e-18
5.3010744e-18
5.3010125e-18
5.3011561e-18
5.301546e-18
5.3023147e-18
9.5974363e-18
9.5926763e-18
9.5896901e-18
9.5878473e-18
9.586771e-18
9.5862223e-18
9.5860622e-18
9.5862396e-18
9.5867988e-18
9.5879134e-18
9.5926763e-18
9.5879318e-18
9.5849516e-18
9.583112e-18
9.5820387e-18
9.5814941e-18
9.5813418e-18
9.5815368e-18
9.5821407e-18
9.5833844e-18
9.5896901e-18
9.5849516e-18
9.5819759e-18
9.58014e-18
9.5790706e-18
9.5785318e-18
9.5783894e-18
9.5786023e-18
9.5792375e-18
9.5805254e-18
9.5878473e-18
9.583112e-18
9.58014e-18
9.5783079e-18
9.5772428e-18
9.5767098e-18
9.576576e-18
9.576802e-18
9.5774548e-18
9.57876e-18
9.586771e-18
9.5820387e-18
9.5790706e-18
9.5772428e-18
9.5761822e-18
9.5756544e-18
9.5755273e-18
9.5757617e-18
9.5764242e-18
9.577737e-18
9.5862223e-18
9.5814941e-18
9.5785318e-18
9.5767098e-18
9.5756544e-18
9.5751315e-18
9.5750094e-18
9.5752493e-18
9.5759171e-18
9.5772334e-18
9.5860622e-18
9.5813418e-18
9.5783894e-18
9.576576e-18
9.5755273e-18
9.5750094e-18
9.5748915e-18
9.575135e-18
9.5758059e-18
9.5771241e-18
9.5862396e-18
9.5815368e-18
9.5786023e-18
9.576802e-18
9.5757617e-18
9.5752493e-18
9.575135e-18
9.5753812e-18
9.5760542e-18
9.5773737e-18
9.5867988e-18
9.5821407e-18
9.5792375e-18
9.5774548e-18
9.5764242e-18
9.5759171e-18
9.5758059e-18
9.5760542e-18
9.5767289e-18
9.5780499e-18
9.5879134e-18
9.5833844e-18
9.5805254e-18
9.57876e-18
9.577737e-18
9.5772334e-18
9.5771241e-18
9.5773737e-18
9.5780499e-18
9.5793746e-18
1.749955e-17
1.7491201e-17
1.7485941e-17
1.7482685e-17
1.748078e-17
1.7479807e-17
1.7479521e-17
1.747983e-17
1.7480803e-17
1.7482728e-17
1.7491201e-17
1.7482879e-17
1.7477629e-17
1.7474379e-17
1.7472479e-17
1.7471514e-17
1.7471242e-17
1.7471582e-17
1.7472635e-17
1.7474793e-17
1.7485941e-17
1.7477629e-17
1.7472387e-17
1.7469144e-17
1.7467251e-17
1.7466296e-17
1.7466042e-17
1.7466414e-17
1.7467524e-17
1.7469761e-17
1.7482685e-17
1.7474379e-17
1.7469144e-17
1.7465907e-17
1.7464022e-17
1.7463077e-17
1.7462839e-17
1.7463234e-17
1.7464376e-17
1.7466645e-17
1.748078e-17
1.7472479e-17
1.7467251e-17
1.7464022e-17
1.7462145e-17
1.746121e-17
1.7460983e-17
1.7461394e-17
1.7462553e-17
1.7464836e-17
1.7479807e-17
1.7471514e-17
1.7466296e-17
1.7463077e-17
1.746121e-17
1.7460283e-17
1.7460066e-17
1.7460486e-17
1.7461655e-17
1.7463944e-17
1.7479521e-17
1.7471242e-17
1.7466042e-17
1.7462839e-17
1.7460983e-17
1.7460066e-17
1.7459856e-17
1.7460283e-17
1.7461457e-17
1.7463749e-17
1.747983e-17
1.7471582e-17
1.7466414e-17
1.7463234e-17
1.7461394e-17
1.7460486e-17
1.7460283e-17
1.7460715e-17
1.7461893e-17
1.7464188e-17
1.7480803e-17
1.7472635e-17
1.7467524e-17
1.7464376e-17
1.7462553e-17
1.7461655e-17
1.7461457e-17
1.7461893e-17
1.7463074e-17
1.7465371e-17
1.7482728e-17
1.7474793e-17
1.7469761e-17
1.7466645e-17
1.7464836e-17
1.7463944e-17
1.7463749e-17
1.7464188e-17
1.7465371e-17
1.7467675e-17
3.2205608e-17
3.2190833e-17
3.2181486e-17
3.2175685e-17
3.2172283e-17
3.2170544e-17
3.2170029e-17
3.217057e-17
3.2172278e-17
3.2175632e-17
3.2190833e-17
3.2176106e-17
3.2166778e-17
3.2160986e-17
3.2157594e-17
3.2155868e-17
3.2155379e-17
3.2155977e-17
3.2157832e-17
3.2161611e-17
3.2181486e-17
3.2166778e-17
3.2157463e-17
3.2151683e-17
3.2148304e-17
3.2146597e-17
3.214614e-17
3.2146797e-17
3.2148753e-17
3.2152677e-17
3.2175685e-17
3.2160986e-17
3.2151683e-17
3.2145916e-17
3.214255e-17
3.2140862e-17
3.2140433e-17
3.2141132e-17
3.2143147e-17
3.2147128e-17
3.2172283e-17
3.2157594e-17
3.2148304e-17
3.214255e-17
3.2139199e-17
3.2137528e-17
3.2137121e-17
3.2137848e-17
3.2139894e-17
3.2143899e-17
3.2170544e-17
3.2155868e-17
3.2146597e-17
3.2140862e-17
3.2137528e-17
3.2135872e-17
3.2135482e-17
3.2136227e-17
3.213829e-17
3.2142307e-17
3.2170029e-17
3.2155379e-17
3.214614e-17
3.2140433e-17
3.2137121e-17
3.2135482e-17
3.2135105e-17
3.2135862e-17
3.2137936e-17
3.2141958e-17
3.217057e-17
3.2155977e-17
3.2146797e-17
3.2141132e-17
3.2137848e-17
3.2136227e-17
3.2135862e-17
3.2136627e-17
3.2138708e-17
3.2142735e-17
3.2172278e-17
3.2157832e-17
3.2148753e-17
3.2143147e-17
3.2139894e-17
3.213829e-17
3.2137936e-17
3.2138708e-17
3.2140793e-17
3.2144825e-17
3.2175632e-17
3.2161611e-17
3.2152677e-17
3.2147128e-17
3.2143899e-17
3.2142307e-17
3.2141958e-17
3.2142735e-17
3.2144825e-17
3.2148868e-17
5.9823457e-17
5.9797083e-17
5.9780328e-17
5.97699e-17
5.9763774e-17
5.9760637e-17
5.9759704e-17
5.976066e-17
5.9763686e-17
5.9769584e-17
5.9797083e-17
5.9770793e-17
5.9754071e-17
5.9743661e-17
5.9737552e-17
5.9734439e-17
5.9733553e-17
5.9734615e-17
5.973791e-17
5.9744587e-17
5.9780328e-17
5.9754071e-17
5.9737374e-17
5.9726985e-17
5.97209e-17
5.9717821e-17
5.9716994e-17
5.9718163e-17
5.9721645e-17
5.9728588e-17
5.97699e-17
5.9743661e-17
5.9726985e-17
5.9716618e-17
5.9710558e-17
5.9707513e-17
5.9706738e-17
5.9707985e-17
5.9711574e-17
5.9718621e-17
5.9763774e-17
5.9737552e-17
5.97209e-17
5.9710558e-17
5.9704524e-17
5.9701511e-17
5.9700775e-17
5.9702073e-17
5.970572e-17
5.9712812e-17
5.9760637e-17
5.9734439e-17
5.9717821e-17
5.9707513e-17
5.9701511e-17
5.9698527e-17
5.9697821e-17
5.9699152e-17
5.970283e-17
5.9709943e-17
5.9759704e-17
5.9733553e-17
5.9716994e-17
5.9706738e-17
5.9700775e-17
5.9697821e-17
5.969714e-17
5.9698492e-17
5.9702189e-17
5.9709313e-17
5.976066e-17
5.9734615e-17
5.9718163e-17
5.9707985e-17
5.9702073e-17
5.9699152e-17
5.9698492e-17
5.9699861e-17
5.9703569e-17
5.9710702e-17
5.9763686e-17
5.973791e-17
5.9721645e-17
5.9711574e-17
5.970572e-17
5.970283e-17
5.9702189e-17
5.9703569e-17
5.9707287e-17
5.9714428e-17
5.9769584e-17
5.9744587e-17
5.9728588e-17
5.9718621e-17
5.9712812e-17
5.9709943e-17
5.9709313e-17
5.9710702e-17
5.9714428e-17
5.9721588e-17
1.1216187e-16
1.1211437e-16
1.1208408e-16
1.1206517e-16
1.1205404e-16
1.1204834e-16
1.1204663e-16
1.1204834e-16
1.1205375e-16
1.1206421e-16
1.1211437e-16
1.1206703e-16
1.1203679e-16
1.1201792e-16
1.1200682e-16
1.1200116e-16
1.1199954e-16
1.1200145e-16
1.1200735e-16
1.1201926e-16
1.1208408e-16
1.1203679e-16
1.120066e-16
1.1198777e-16
1.1197671e-16
1.1197112e-16
1.119696e-16
1.1197171e-16
1.1197796e-16
1.1199036e-16
1.1206517e-16
1.1201792e-16
1.1198777e-16
1.1196897e-16
1.1195796e-16
1.1195243e-16
1.1195101e-16
1.1195326e-16
1.1195971e-16
1.119723e-16
1.1205404e-16
1.1200682e-16
1.1197671e-16
1.1195796e-16
1.1194701e-16
1.1194153e-16
1.1194019e-16
1.1194253e-16
1.1194908e-16
1.1196176e-16
1.1204834e-16
1.1200116e-16
1.1197112e-16
1.1195243e-16
1.1194153e-16
1.119361e-16
1.1193482e-16
1.1193722e-16
1.1194383e-16
1.1195655e-16
1.1204663e-16
1.1199954e-16
1.119696e-16
1.1195101e-16
1.1194019e-16
1.1193482e-16
1.1193357e-16
1.1193601e-16
1.1194266e-16
1.119554e-16
1.1204834e-16
1.1200145e-16
1.1197171e-16
1.1195326e-16
1.1194253e-16
1.1193722e-16
1.1193601e-16
1.1193848e-16
1.1194516e-16
1.1195791e-16
1.1205375e-16
1.1200735e-16
1.1197796e-16
1.1195971e-16
1.1194908e-16
1.1194383e-16
1.1194266e-16
1.1194516e-16
1.1195185e-16
1.1196461e-16
1.1206421e-16
1.1201926e-16
1.1199036e-16
1.119723e-16
1.1196176e-16
1.1195655e-16
1.119554e-16
1.1195791e-16
1.1196461e-16
1.1197741e-16
2.1224949e-16
2.1216321e-16
2.1210796e-16
2.1207338e-16
2.12053e-16
2.1204253e-16
2.1203938e-16
2.1204246e-16
2.1205222e-16
2.1207095e-16
2.1216321e-16
2.1207721e-16
2.1202207e-16
2.1198755e-16
2.1196722e-16
2.1195683e-16
2.1195385e-16
2.1195729e-16
2.1196798e-16
2.119894e-16
2.1210796e-16
2.1202207e-16
2.11967e-16
2.1193255e-16
2.119123e-16
2.1190203e-16
2.1189925e-16
2.1190307e-16
2.119144e-16
2.1193674e-16
2.1207338e-16
2.1198755e-16
2.1193255e-16
2.1189818e-16
2.1187801e-16
2.1186786e-16
2.1186526e-16
2.1186934e-16
2.1188104e-16
2.1190375e-16
2.12053e-16
2.1196722e-16
2.119123e-16
2.1187801e-16
2.1185794e-16
2.118479e-16
2.1184543e-16
2.1184969e-16
2.1186159e-16
2.1188445e-16
2.1204253e-16
2.1195683e-16
2.1190203e-16
2.1186786e-16
2.118479e-16
2.1183795e-16
2.1183559e-16
2.1183996e-16
2.1185197e-16
2.118749e-16
2.1203938e-16
2.1195385e-16
2.1189925e-16
2.1186526e-16
2.1184543e-16
2.1183559e-16
2.1183331e-16
2.1183775e-16
2.1184983e-16
2.118728e-16
2.1204246e-16
2.1195729e-16
2.1190307e-16
2.1186934e-16
2.1184969e-16
2.1183996e-16
2.1183775e-16
2.1184225e-16
2.1185437e-16
2.1187737e-16
2.1205222e-16
2.1196798e-16
2.119144e-16
2.1188104e-16
2.1186159e-16
2.1185197e-16
2.1184983e-16
2.1185437e-16
2.1186651e-16
2.1188954e-16
2.1207095e-16
2.119894e-16
2.1193674e-16
2.1190375e-16
2.1188445e-16
2.118749e-16
2.118728e-16
2.1187737e-16
2.1188954e-16
2.1191262e-16
4.053826e-16
4.0522452e-16
4.0512287e-16
4.0505909e-16
4.0502142e-16
4.0500206e-16
4.0499621e-16
4.0500182e-16
4.0501958e-16
4.0505341e-16
4.0522452e-16
4.0506693e-16
4.0496548e-16
4.0490181e-16
4.0486425e-16
4.0484504e-16
4.0483949e-16
4.0484578e-16
4.0486529e-16
4.049042e-16
4.0512287e-16
4.0496548e-16
4.0486419e-16
4.0480064e-16
4.0476323e-16
4.0474424e-16
4.0473908e-16
4.0474606e-16
4.0476679e-16
4.0480743e-16
4.0505909e-16
4.0490181e-16
4.0480064e-16
4.0473724e-16
4.0469999e-16
4.0468122e-16
4.0467639e-16
4.0468388e-16
4.047053e-16
4.0474661e-16
4.0502142e-16
4.0486425e-16
4.0476323e-16
4.0469999e-16
4.0466291e-16
4.0464433e-16
4.0463976e-16
4.0464758e-16
4.0466938e-16
4.0471098e-16
4.0500206e-16
4.0484504e-16
4.0474424e-16
4.0468122e-16
4.0464433e-16
4.0462595e-16
4.0462157e-16
4.0462961e-16
4.046516e-16
4.0469335e-16
4.0499621e-16
4.0483949e-16
4.0473908e-16
4.0467639e-16
4.0463976e-16
4.0462157e-16
4.0461735e-16
4.0462553e-16
4.0464764e-16
4.0468946e-16
4.0500182e-16
4.0484578e-16
4.0474606e-16
4.0468388e-16
4.0464758e-16
4.0462961e-16
4.0462553e-16
4.046338e-16
4.04656e-16
4.0469786e-16
4.0501958e-16
4.0486529e-16
4.0476679e-16
4.047053e-16
4.0466938e-16
4.046516e-16
4.0464764e-16
4.04656e-16
4.0467825e-16
4.0472017e-16
4.0505341e-16
4.049042e-16
4.0480743e-16
4.0474661e-16
4.0471098e-16
4.0469335e-16
4.0468946e-16
4.0469786e-16
4.0472017e-16
4.0476219e-16
7.8142087e-16
7.811287e-16
7.8094012e-16
7.8082147e-16
7.8075128e-16
7.8071515e-16
7.8070419e-16
7.807145e-16
7.8074712e-16
7.8080876e-16
7.811287e-16
7.8083746e-16
7.8064923e-16
7.8053078e-16
7.8046079e-16
7.8042495e-16
7.8041457e-16
7.8042618e-16
7.8046212e-16
7.8053341e-16
7.8094012e-16
7.8064923e-16
7.8046129e-16
7.8034308e-16
7.8027336e-16
7.8023794e-16
7.8022829e-16
7.8024121e-16
7.8027947e-16
7.8035405e-16
7.8082147e-16
7.8053078e-16
7.8034308e-16
7.8022513e-16
7.8015572e-16
7.8012072e-16
7.801117e-16
7.8012558e-16
7.8016514e-16
7.8024101e-16
7.8075128e-16
7.8046079e-16
7.8027336e-16
7.8015572e-16
7.8008664e-16
7.8005202e-16
7.8004348e-16
7.8005798e-16
7.8009826e-16
7.8017468e-16
7.8071515e-16
7.8042495e-16
7.8023794e-16
7.8012072e-16
7.8005202e-16
7.8001775e-16
7.8000958e-16
7.8002448e-16
7.8006514e-16
7.8014183e-16
7.8070419e-16
7.8041457e-16
7.8022829e-16
7.801117e-16
7.8004348e-16
7.8000958e-16
7.8000171e-16
7.8001688e-16
7.8005777e-16
7.8013459e-16
7.807145e-16
7.8042618e-16
7.8024121e-16
7.8012558e-16
7.8005798e-16
7.8002448e-16
7.8001688e-16
7.8003224e-16
7.8007328e-16
7.8015019e-16
7.8074712e-16
7.8046212e-16
7.8027947e-16
7.8016514e-16
7.8009826e-16
7.8006514e-16
7.8005777e-16
7.8007328e-16
7.8011443e-16
7.8019143e-16
7.8080876e-16
7.8053341e-16
7.8035405e-16
7.8024101e-16
7.8017468e-16
7.8014183e-16
7.8013459e-16