/*--------------------------------*- C++ -*----------------------------------*\
| =========                 |                                                 |
| \\      /  F ield         | OpenFOAM: The Open Source CFD Toolbox           |
|  \\    /   O peration     | Version:  dev                                   |
|   \\  /    A nd           | Web:      www.OpenFOAM.org                      |
|    \\/     M anipulation  |                                                 |
\*---------------------------------------------------------------------------*/
FoamFile
{
    version     2.0;
    format      ascii;
    class       volScalarField;
    location    "97.995";
    object      A_0;
}
// * * * * * * * * * * * * * * * * * * * * * * * * * * * * * * * * * * * * * //

dimensions      [0 0 0 0 1 0 0];

internalField   nonuniform List<scalar> 
10000
(
3.3531937e-21
3.3505278e-21
3.3490264e-21
3.348137e-21
3.3476304e-21
3.3473778e-21
3.3473117e-21
3.3474165e-21
3.3477357e-21
3.3483545e-21
3.3505278e-21
3.3478718e-21
3.3463738e-21
3.3454862e-21
3.3449809e-21
3.3447301e-21
3.3446671e-21
3.3447787e-21
3.345115e-21
3.3457823e-21
3.3490264e-21
3.3463738e-21
3.3448782e-21
3.3439923e-21
3.3434888e-21
3.3432403e-21
3.3431812e-21
3.3432999e-21
3.3436483e-21
3.3443325e-21
3.348137e-21
3.3454862e-21
3.3439923e-21
3.3431081e-21
3.3426063e-21
3.3423602e-21
3.3423046e-21
3.3424284e-21
3.3427837e-21
3.3434746e-21
3.3476304e-21
3.3449809e-21
3.3434888e-21
3.3426063e-21
3.3421065e-21
3.3418624e-21
3.3418094e-21
3.3419366e-21
3.3422957e-21
3.3429895e-21
3.3473778e-21
3.3447301e-21
3.3432403e-21
3.3423602e-21
3.3418624e-21
3.3416203e-21
3.3415693e-21
3.3416987e-21
3.3420599e-21
3.3427551e-21
3.3473117e-21
3.3446671e-21
3.3431812e-21
3.3423046e-21
3.3418094e-21
3.3415693e-21
3.34152e-21
3.3416508e-21
3.3420133e-21
3.3427092e-21
3.3474165e-21
3.3447787e-21
3.3432999e-21
3.3424284e-21
3.3419366e-21
3.3416987e-21
3.3416508e-21
3.3417828e-21
3.3421461e-21
3.3428426e-21
3.3477357e-21
3.345115e-21
3.3436483e-21
3.3427837e-21
3.3422957e-21
3.3420599e-21
3.3420133e-21
3.3421461e-21
3.3425101e-21
3.3432075e-21
3.3483545e-21
3.3457823e-21
3.3443325e-21
3.3434746e-21
3.3429895e-21
3.3427551e-21
3.3427092e-21
3.3428426e-21
3.3432075e-21
3.3439068e-21
1.0911137e-20
1.0902806e-20
1.0897969e-20
1.0895097e-20
1.0893459e-20
1.0892643e-20
1.0892428e-20
1.0892765e-20
1.0893795e-20
1.0895862e-20
1.0902806e-20
1.0894504e-20
1.0889678e-20
1.0886811e-20
1.0885179e-20
1.0884367e-20
1.0884163e-20
1.0884522e-20
1.0885608e-20
1.0887833e-20
1.0897969e-20
1.0889678e-20
1.088486e-20
1.0881999e-20
1.0880372e-20
1.0879568e-20
1.0879376e-20
1.0879759e-20
1.0880884e-20
1.0883164e-20
1.0895097e-20
1.0886811e-20
1.0881999e-20
1.0879143e-20
1.0877522e-20
1.0876726e-20
1.0876545e-20
1.0876944e-20
1.0878092e-20
1.0880394e-20
1.0893459e-20
1.0885179e-20
1.0880372e-20
1.0877522e-20
1.0875906e-20
1.0875117e-20
1.0874945e-20
1.0875355e-20
1.0876515e-20
1.0878826e-20
1.0892643e-20
1.0884367e-20
1.0879568e-20
1.0876726e-20
1.0875117e-20
1.0874334e-20
1.0874169e-20
1.0874586e-20
1.0875752e-20
1.0878068e-20
1.0892428e-20
1.0884163e-20
1.0879376e-20
1.0876545e-20
1.0874945e-20
1.0874169e-20
1.0874009e-20
1.087443e-20
1.0875601e-20
1.087792e-20
1.0892765e-20
1.0884522e-20
1.0879759e-20
1.0876944e-20
1.0875355e-20
1.0874586e-20
1.087443e-20
1.0874855e-20
1.0876029e-20
1.0878349e-20
1.0893795e-20
1.0885608e-20
1.0880884e-20
1.0878092e-20
1.0876515e-20
1.0875752e-20
1.0875601e-20
1.0876029e-20
1.0877205e-20
1.0879528e-20
1.0895862e-20
1.0887833e-20
1.0883164e-20
1.0880394e-20
1.0878826e-20
1.0878068e-20
1.087792e-20
1.0878349e-20
1.0879528e-20
1.0881858e-20
2.1281326e-20
2.1265625e-20
2.1256357e-20
2.1250836e-20
2.1247684e-20
2.1246109e-20
2.1245693e-20
2.1246336e-20
2.1248309e-20
2.12524e-20
2.1265625e-20
2.1249979e-20
2.1240733e-20
2.1235222e-20
2.1232078e-20
2.1230515e-20
2.1230118e-20
2.1230804e-20
2.1232885e-20
2.1237285e-20
2.1256357e-20
2.1240733e-20
2.12315e-20
2.1226e-20
2.1222868e-20
2.1221319e-20
2.1220947e-20
2.1221677e-20
2.1223835e-20
2.1228341e-20
2.1250836e-20
2.1235222e-20
2.1226e-20
2.1220511e-20
2.1217389e-20
2.1215855e-20
2.1215505e-20
2.1216267e-20
2.1218469e-20
2.1223017e-20
2.1247684e-20
2.1232078e-20
2.1222868e-20
2.1217389e-20
2.1214279e-20
2.1212758e-20
2.1212425e-20
2.1213208e-20
2.1215434e-20
2.1220001e-20
2.1246109e-20
2.1230515e-20
2.1221319e-20
2.1215855e-20
2.1212758e-20
2.121125e-20
2.1210929e-20
2.1211726e-20
2.1213965e-20
2.1218541e-20
2.1245693e-20
2.1230118e-20
2.1220947e-20
2.1215505e-20
2.1212425e-20
2.1210929e-20
2.1210619e-20
2.1211425e-20
2.1213672e-20
2.1218252e-20
2.1246336e-20
2.1230804e-20
2.1221677e-20
2.1216267e-20
2.1213208e-20
2.1211726e-20
2.1211425e-20
2.1212238e-20
2.121449e-20
2.1219074e-20
2.1248309e-20
2.1232885e-20
2.1223835e-20
2.1218469e-20
2.1215434e-20
2.1213965e-20
2.1213672e-20
2.121449e-20
2.1216747e-20
2.1221336e-20
2.12524e-20
2.1237285e-20
2.1228341e-20
2.1223017e-20
2.1220001e-20
2.1218541e-20
2.1218252e-20
2.1219074e-20
2.1221336e-20
2.1225939e-20
3.7245768e-20
3.7219207e-20
3.720336e-20
3.7193885e-20
3.7188466e-20
3.7185755e-20
3.7185033e-20
3.7186122e-20
3.7189481e-20
3.7196539e-20
3.7219207e-20
3.7192739e-20
3.7176927e-20
3.716747e-20
3.7162066e-20
3.7159373e-20
3.7158685e-20
3.7159849e-20
3.7163397e-20
3.7170994e-20
3.720336e-20
3.7176927e-20
3.7161139e-20
3.7151701e-20
3.7146315e-20
3.7143649e-20
3.7143004e-20
3.7144244e-20
3.7147925e-20
3.7155708e-20
3.7193885e-20
3.716747e-20
3.7151701e-20
3.714228e-20
3.7136914e-20
3.7134273e-20
3.7133666e-20
3.7134963e-20
3.713872e-20
3.7146576e-20
3.7188466e-20
3.7162066e-20
3.7146315e-20
3.7136914e-20
3.7131568e-20
3.712895e-20
3.7128372e-20
3.7129706e-20
3.7133504e-20
3.7141392e-20
3.7185755e-20
3.7159373e-20
3.7143649e-20
3.7134273e-20
3.712895e-20
3.7126353e-20
3.7125797e-20
3.7127154e-20
3.7130976e-20
3.7138879e-20
3.7185033e-20
3.7158685e-20
3.7143004e-20
3.7133666e-20
3.7128372e-20
3.7125797e-20
3.7125258e-20
3.7126632e-20
3.7130467e-20
3.7138379e-20
3.7186122e-20
3.7159849e-20
3.7144244e-20
3.7134963e-20
3.7129706e-20
3.7127154e-20
3.7126632e-20
3.7128018e-20
3.7131862e-20
3.713978e-20
3.7189481e-20
3.7163397e-20
3.7147925e-20
3.713872e-20
3.7133504e-20
3.7130976e-20
3.7130467e-20
3.7131862e-20
3.7135715e-20
3.7143642e-20
3.7196539e-20
3.7170994e-20
3.7155708e-20
3.7146576e-20
3.7141392e-20
3.7138879e-20
3.7138379e-20
3.713978e-20
3.7143642e-20
3.7151592e-20
6.3312534e-20
6.3268905e-20
6.3242677e-20
6.322694e-20
6.3217922e-20
6.3213402e-20
6.3212186e-20
6.3213968e-20
6.3219482e-20
6.3231097e-20
6.3268905e-20
6.3225428e-20
6.3199256e-20
6.318355e-20
6.3174556e-20
6.3170067e-20
6.3168909e-20
6.3170817e-20
6.317665e-20
6.3189177e-20
6.3242677e-20
6.3199256e-20
6.3173126e-20
6.315745e-20
6.3148487e-20
6.3144042e-20
6.3142956e-20
6.3144994e-20
6.3151051e-20
6.3163893e-20
6.322694e-20
6.318355e-20
6.315745e-20
6.3141804e-20
6.3132874e-20
6.3128472e-20
6.3127449e-20
6.3129582e-20
6.3135767e-20
6.3148733e-20
6.3217922e-20
6.3174556e-20
6.3148487e-20
6.3132874e-20
6.3123978e-20
6.3119614e-20
6.311864e-20
6.3120835e-20
6.3127091e-20
6.3140109e-20
6.3213402e-20
6.3170067e-20
6.3144042e-20
6.3128472e-20
6.3119614e-20
6.3115286e-20
6.3114349e-20
6.3116584e-20
6.3122878e-20
6.3135923e-20
6.3212186e-20
6.3168909e-20
6.3142956e-20
6.3127449e-20
6.311864e-20
6.3114349e-20
6.3113443e-20
6.3115704e-20
6.3122022e-20
6.3135081e-20
6.3213968e-20
6.3170817e-20
6.3144994e-20
6.3129582e-20
6.3120835e-20
6.3116584e-20
6.3115704e-20
6.3117986e-20
6.3124319e-20
6.3137388e-20
6.3219482e-20
6.317665e-20
6.3151051e-20
6.3135767e-20
6.3127091e-20
6.3122878e-20
6.3122022e-20
6.3124319e-20
6.3130666e-20
6.314375e-20
6.3231097e-20
6.3189177e-20
6.3163893e-20
6.3148733e-20
6.3140109e-20
6.3135923e-20
6.3135081e-20
6.3137388e-20
6.314375e-20
6.3156873e-20
1.0714112e-19
1.0706981e-19
1.0702668e-19
1.0700072e-19
1.0698581e-19
1.0697832e-19
1.0697628e-19
1.0697917e-19
1.0698814e-19
1.0700698e-19
1.0706981e-19
1.0699874e-19
1.069557e-19
1.0692979e-19
1.0691492e-19
1.0690748e-19
1.0690555e-19
1.0690865e-19
1.0691815e-19
1.0693853e-19
1.0702668e-19
1.069557e-19
1.0691274e-19
1.0688687e-19
1.0687205e-19
1.0686469e-19
1.0686287e-19
1.0686619e-19
1.0687608e-19
1.0689698e-19
1.0700072e-19
1.0692979e-19
1.0688687e-19
1.0686106e-19
1.068463e-19
1.06839e-19
1.0683729e-19
1.0684077e-19
1.0685087e-19
1.0687198e-19
1.0698581e-19
1.0691492e-19
1.0687205e-19
1.068463e-19
1.0683159e-19
1.0682436e-19
1.0682273e-19
1.0682632e-19
1.0683653e-19
1.0685773e-19
1.0697832e-19
1.0690748e-19
1.0686469e-19
1.06839e-19
1.0682436e-19
1.0681719e-19
1.0681563e-19
1.0681928e-19
1.0682956e-19
1.068508e-19
1.0697628e-19
1.0690555e-19
1.0686287e-19
1.0683729e-19
1.0682273e-19
1.0681563e-19
1.0681411e-19
1.0681781e-19
1.0682812e-19
1.0684939e-19
1.0697917e-19
1.0690865e-19
1.0686619e-19
1.0684077e-19
1.0682632e-19
1.0681928e-19
1.0681781e-19
1.0682153e-19
1.0683188e-19
1.0685316e-19
1.0698814e-19
1.0691815e-19
1.0687608e-19
1.0685087e-19
1.0683653e-19
1.0682956e-19
1.0682812e-19
1.0683188e-19
1.0684224e-19
1.0686355e-19
1.0700698e-19
1.0693853e-19
1.0689698e-19
1.0687198e-19
1.0685773e-19
1.068508e-19
1.0684939e-19
1.0685316e-19
1.0686355e-19
1.0688493e-19
1.8206937e-19
1.8195237e-19
1.8188125e-19
1.8183829e-19
1.8181357e-19
1.8180112e-19
1.8179771e-19
1.818024e-19
1.8181701e-19
1.8184754e-19
1.8195237e-19
1.8183577e-19
1.8176479e-19
1.8172192e-19
1.8169726e-19
1.8168491e-19
1.8168165e-19
1.8168671e-19
1.8170222e-19
1.8173534e-19
1.8188125e-19
1.8176479e-19
1.8169393e-19
1.8165114e-19
1.8162657e-19
1.8161434e-19
1.8161129e-19
1.8161671e-19
1.8163285e-19
1.8166687e-19
1.8183829e-19
1.8172192e-19
1.8165114e-19
1.8160843e-19
1.8158395e-19
1.8157184e-19
1.8156897e-19
1.8157466e-19
1.8159117e-19
1.8162553e-19
1.8181357e-19
1.8169726e-19
1.8162657e-19
1.8158395e-19
1.8155957e-19
1.8154756e-19
1.8154483e-19
1.8155069e-19
1.815674e-19
1.8160192e-19
1.8180112e-19
1.8168491e-19
1.8161434e-19
1.8157184e-19
1.8154756e-19
1.8153566e-19
1.8153303e-19
1.8153901e-19
1.8155582e-19
1.8159042e-19
1.8179771e-19
1.8168165e-19
1.8161129e-19
1.8156897e-19
1.8154483e-19
1.8153303e-19
1.8153049e-19
1.8153654e-19
1.8155342e-19
1.8158805e-19
1.818024e-19
1.8168671e-19
1.8161671e-19
1.8157466e-19
1.8155069e-19
1.8153901e-19
1.8153654e-19
1.8154265e-19
1.8155957e-19
1.8159423e-19
1.8181701e-19
1.8170222e-19
1.8163285e-19
1.8159117e-19
1.815674e-19
1.8155582e-19
1.8155342e-19
1.8155957e-19
1.8157653e-19
1.8161123e-19
1.8184754e-19
1.8173534e-19
1.8166687e-19
1.8162553e-19
1.8160192e-19
1.8159042e-19
1.8158805e-19
1.8159423e-19
1.8161123e-19
1.8164604e-19
3.1166907e-19
3.1147578e-19
3.1135772e-19
3.1128618e-19
3.1124493e-19
3.1122412e-19
3.1121836e-19
3.1122603e-19
3.1124996e-19
3.1129966e-19
3.1147578e-19
3.1128315e-19
3.1116533e-19
3.1109393e-19
3.1105279e-19
3.1103213e-19
3.1102664e-19
3.1103492e-19
3.1106038e-19
3.111145e-19
3.1135772e-19
3.1116533e-19
3.1104771e-19
3.1097644e-19
3.1093544e-19
3.1091499e-19
3.1090984e-19
3.1091875e-19
3.1094529e-19
3.1100093e-19
3.1128618e-19
3.1109393e-19
3.1097644e-19
3.1090532e-19
3.1086447e-19
3.1084423e-19
3.1083938e-19
3.1084874e-19
3.108759e-19
3.1093213e-19
3.1124493e-19
3.1105279e-19
3.1093544e-19
3.1086447e-19
3.1082378e-19
3.1080372e-19
3.1079911e-19
3.1080876e-19
3.1083626e-19
3.1089275e-19
3.1122412e-19
3.1103213e-19
3.1091499e-19
3.1084423e-19
3.1080372e-19
3.1078383e-19
3.1077939e-19
3.1078924e-19
3.1081692e-19
3.1087353e-19
3.1121836e-19
3.1102664e-19
3.1090984e-19
3.1083938e-19
3.1079911e-19
3.1077939e-19
3.107751e-19
3.1078508e-19
3.1081286e-19
3.1086954e-19
3.1122603e-19
3.1103492e-19
3.1091875e-19
3.1084874e-19
3.1080876e-19
3.1078924e-19
3.1078508e-19
3.1079515e-19
3.1082301e-19
3.1087974e-19
3.1124996e-19
3.1106038e-19
3.1094529e-19
3.108759e-19
3.1083626e-19
3.1081692e-19
3.1081286e-19
3.1082301e-19
3.1085093e-19
3.1090772e-19
3.1129966e-19
3.111145e-19
3.1100093e-19
3.1093213e-19
3.1089275e-19
3.1087353e-19
3.1086954e-19
3.1087974e-19
3.1090772e-19
3.1096468e-19
5.3805442e-19
5.3773253e-19
5.3753501e-19
5.3741496e-19
5.3734557e-19
5.3731051e-19
5.373007e-19
5.3731334e-19
5.3735283e-19
5.3743434e-19
5.3773253e-19
5.3741173e-19
5.3721462e-19
5.3709479e-19
5.3702558e-19
5.3699078e-19
5.3698144e-19
5.3699512e-19
5.3703724e-19
5.3712632e-19
5.3753501e-19
5.3721462e-19
5.3701782e-19
5.3689822e-19
5.3682926e-19
5.3679481e-19
5.3678605e-19
5.368008e-19
5.3684477e-19
5.3693644e-19
5.3741496e-19
5.3709479e-19
5.3689822e-19
5.3677886e-19
5.3671016e-19
5.3667605e-19
5.3666782e-19
5.3668334e-19
5.3672836e-19
5.3682105e-19
5.3734557e-19
5.3702558e-19
5.3682926e-19
5.3671016e-19
5.3664174e-19
5.3660794e-19
5.366001e-19
5.3661613e-19
5.3666172e-19
5.3675486e-19
5.3731051e-19
5.3699078e-19
5.3679481e-19
5.3667605e-19
5.3660794e-19
5.3657444e-19
5.365669e-19
5.3658325e-19
5.3662916e-19
5.3672251e-19
5.373007e-19
5.3698144e-19
5.3678605e-19
5.3666782e-19
5.366001e-19
5.365669e-19
5.3655961e-19
5.3657618e-19
5.3662227e-19
5.3671574e-19
5.3731334e-19
5.3699512e-19
5.368008e-19
5.3668334e-19
5.3661613e-19
5.3658325e-19
5.3657618e-19
5.3659291e-19
5.3663913e-19
5.3673268e-19
5.3735283e-19
5.3703724e-19
5.3684477e-19
5.3672836e-19
5.3666172e-19
5.3662916e-19
5.3662227e-19
5.3663913e-19
5.3668546e-19
5.3677911e-19
5.3743434e-19
5.3712632e-19
5.3693644e-19
5.3682105e-19
5.3675486e-19
5.3672251e-19
5.3671574e-19
5.3673268e-19
5.3677911e-19
5.3687304e-19
9.3718088e-19
9.3664027e-19
9.3630703e-19
9.3610387e-19
9.3598619e-19
9.3592663e-19
9.359098e-19
9.359308e-19
9.3599653e-19
9.3613128e-19
9.3664027e-19
9.3610147e-19
9.3576892e-19
9.3556613e-19
9.3544876e-19
9.3538963e-19
9.3537361e-19
9.3539641e-19
9.3546669e-19
9.3561452e-19
9.3630703e-19
9.3576892e-19
9.3543689e-19
9.3523449e-19
9.3511755e-19
9.3505902e-19
9.3504402e-19
9.3506864e-19
9.351421e-19
9.3529443e-19
9.3610387e-19
9.3556613e-19
9.3523449e-19
9.350325e-19
9.34916e-19
9.3485807e-19
9.3484395e-19
9.3486992e-19
9.3494519e-19
9.3509928e-19
9.3598619e-19
9.3544876e-19
9.3511755e-19
9.34916e-19
9.3479998e-19
9.3474258e-19
9.3472914e-19
9.3475598e-19
9.3483224e-19
9.3498709e-19
9.3592663e-19
9.3538963e-19
9.3505902e-19
9.3485807e-19
9.3474258e-19
9.3468568e-19
9.3467277e-19
9.3470016e-19
9.3477697e-19
9.3493218e-19
9.359098e-19
9.3537361e-19
9.3504402e-19
9.3484395e-19
9.3472914e-19
9.3467277e-19
9.3466028e-19
9.3468805e-19
9.3476518e-19
9.3492059e-19
9.359308e-19
9.3539641e-19
9.3506864e-19
9.3486992e-19
9.3475598e-19
9.3470016e-19
9.3468805e-19
9.347161e-19
9.3479344e-19
9.34949e-19
9.3599653e-19
9.3546669e-19
9.351421e-19
9.3494519e-19
9.3483224e-19
9.3477697e-19
9.3476518e-19
9.3479344e-19
9.3487097e-19
9.350267e-19
9.3613128e-19
9.3561452e-19
9.3529443e-19
9.3509928e-19
9.3498709e-19
9.3493218e-19
9.3492059e-19
9.34949e-19
9.350267e-19
9.3518287e-19
1.6472641e-18
1.6463482e-18
1.6457812e-18
1.6454344e-18
1.6452332e-18
1.6451311e-18
1.645102e-18
1.6451372e-18
1.6452476e-18
1.6454723e-18
1.6463482e-18
1.6454355e-18
1.6448696e-18
1.6445234e-18
1.6443227e-18
1.6442214e-18
1.6441937e-18
1.644232e-18
1.6443503e-18
1.6445978e-18
1.6457812e-18
1.6448696e-18
1.6443046e-18
1.6439591e-18
1.6437591e-18
1.6436588e-18
1.6436329e-18
1.6436744e-18
1.6437982e-18
1.6440536e-18
1.6454344e-18
1.6445234e-18
1.6439591e-18
1.6436143e-18
1.6434151e-18
1.6433159e-18
1.6432915e-18
1.6433353e-18
1.6434623e-18
1.6437207e-18
1.6452332e-18
1.6443227e-18
1.6437591e-18
1.6434151e-18
1.6432167e-18
1.6431184e-18
1.6430952e-18
1.6431405e-18
1.6432692e-18
1.6435289e-18
1.6451311e-18
1.6442214e-18
1.6436588e-18
1.6433159e-18
1.6431184e-18
1.6430209e-18
1.6429987e-18
1.643045e-18
1.6431746e-18
1.643435e-18
1.645102e-18
1.6441937e-18
1.6436329e-18
1.6432915e-18
1.6430952e-18
1.6429987e-18
1.6429771e-18
1.6430241e-18
1.6431543e-18
1.643415e-18
1.6451372e-18
1.644232e-18
1.6436744e-18
1.6433353e-18
1.6431405e-18
1.643045e-18
1.6430241e-18
1.6430715e-18
1.6432021e-18
1.643463e-18
1.6452476e-18
1.6443503e-18
1.6437982e-18
1.6434623e-18
1.6432692e-18
1.6431746e-18
1.6431543e-18
1.6432021e-18
1.6433329e-18
1.6435942e-18
1.6454723e-18
1.6445978e-18
1.6440536e-18
1.6437207e-18
1.6435289e-18
1.643435e-18
1.643415e-18
1.643463e-18
1.6435942e-18
1.6438562e-18
2.9220213e-18
2.9204563e-18
2.919483e-18
2.918886e-18
2.9185388e-18
2.9183624e-18
2.9183117e-18
2.9183712e-18
2.9185582e-18
2.9189361e-18
2.9204563e-18
2.9188964e-18
2.9179251e-18
2.9173292e-18
2.9169829e-18
2.9168078e-18
2.9167596e-18
2.9168246e-18
2.9170254e-18
2.9174435e-18
2.919483e-18
2.9179251e-18
2.9169553e-18
2.9163605e-18
2.9160155e-18
2.9158422e-18
2.9157971e-18
2.9158677e-18
2.9160783e-18
2.9165101e-18
2.918886e-18
2.9173292e-18
2.9163605e-18
2.915767e-18
2.9154233e-18
2.9152518e-18
2.9152094e-18
2.9152841e-18
2.9155002e-18
2.9159374e-18
2.9185388e-18
2.9169829e-18
2.9160155e-18
2.9154233e-18
2.915081e-18
2.9149112e-18
2.9148709e-18
2.9149482e-18
2.9151673e-18
2.9156068e-18
2.9183624e-18
2.9168078e-18
2.9158422e-18
2.9152518e-18
2.9149112e-18
2.9147429e-18
2.9147041e-18
2.9147831e-18
2.9150039e-18
2.9154446e-18
2.9183117e-18
2.9167596e-18
2.9157971e-18
2.9152094e-18
2.9148709e-18
2.9147041e-18
2.9146667e-18
2.9147468e-18
2.9149685e-18
2.9154098e-18
2.9183712e-18
2.9168246e-18
2.9158677e-18
2.9152841e-18
2.9149482e-18
2.9147831e-18
2.9147468e-18
2.9148278e-18
2.9150502e-18
2.9154919e-18
2.9185582e-18
2.9170254e-18
2.9160783e-18
2.9155002e-18
2.9151673e-18
2.9150039e-18
2.9149685e-18
2.9150502e-18
2.9152731e-18
2.9157153e-18
2.9189361e-18
2.9174435e-18
2.9165101e-18
2.9159374e-18
2.9156068e-18
2.9154446e-18
2.9154098e-18
2.9154919e-18
2.9157153e-18
2.9161587e-18
5.2312582e-18
5.2285602e-18
5.226875e-18
5.2258383e-18
5.2252341e-18
5.2249266e-18
5.2248376e-18
5.2249391e-18
5.2252586e-18
5.2259001e-18
5.2285602e-18
5.225871e-18
5.2241892e-18
5.2231543e-18
5.2225518e-18
5.2222466e-18
5.2221619e-18
5.2222732e-18
5.2226173e-18
5.2233299e-18
5.226875e-18
5.2241892e-18
5.22251e-18
5.2214772e-18
5.2208768e-18
5.2205749e-18
5.2204957e-18
5.2206168e-18
5.2209782e-18
5.2217151e-18
5.2258383e-18
5.2231543e-18
5.2214772e-18
5.2204464e-18
5.2198485e-18
5.2195497e-18
5.2194753e-18
5.2196036e-18
5.2199748e-18
5.2207212e-18
5.2252341e-18
5.2225518e-18
5.2208768e-18
5.2198485e-18
5.219253e-18
5.2189571e-18
5.2188863e-18
5.2190194e-18
5.2193959e-18
5.2201465e-18
5.2249266e-18
5.2222466e-18
5.2205749e-18
5.2195497e-18
5.2189571e-18
5.2186639e-18
5.2185959e-18
5.218732e-18
5.2191114e-18
5.219864e-18
5.2248376e-18
5.2221619e-18
5.2204957e-18
5.2194753e-18
5.2188863e-18
5.2185959e-18
5.2185302e-18
5.2186683e-18
5.2190494e-18
5.219803e-18
5.2249391e-18
5.2222732e-18
5.2206168e-18
5.2196036e-18
5.2190194e-18
5.218732e-18
5.2186683e-18
5.2188078e-18
5.2191901e-18
5.2199444e-18
5.2252586e-18
5.2226173e-18
5.2209782e-18
5.2199748e-18
5.2193959e-18
5.2191114e-18
5.2190494e-18
5.2191901e-18
5.2195733e-18
5.2203285e-18
5.2259001e-18
5.2233299e-18
5.2217151e-18
5.2207212e-18
5.2201465e-18
5.219864e-18
5.219803e-18
5.2199444e-18
5.2203285e-18
5.2210859e-18
9.4524977e-18
9.4478055e-18
9.4448621e-18
9.4430461e-18
9.4419856e-18
9.4414451e-18
9.4412874e-18
9.4414622e-18
9.4420132e-18
9.4431114e-18
9.4478055e-18
9.4431286e-18
9.4401911e-18
9.4383783e-18
9.4373207e-18
9.4367842e-18
9.4366343e-18
9.4368265e-18
9.4374215e-18
9.438647e-18
9.4448621e-18
9.4401911e-18
9.4372582e-18
9.4354489e-18
9.4343952e-18
9.4338645e-18
9.4337243e-18
9.4339341e-18
9.4345599e-18
9.435829e-18
9.4430461e-18
9.4383783e-18
9.4354489e-18
9.4336434e-18
9.4325939e-18
9.4320688e-18
9.4319372e-18
9.4321598e-18
9.4328031e-18
9.4340892e-18
9.4419856e-18
9.4373207e-18
9.4343952e-18
9.4325939e-18
9.4315489e-18
9.431029e-18
9.4309038e-18
9.4311349e-18
9.4317877e-18
9.4330812e-18
9.4414451e-18
9.4367842e-18
9.4338645e-18
9.4320688e-18
9.431029e-18
9.4305138e-18
9.4303936e-18
9.43063e-18
9.4312881e-18
9.4325851e-18
9.4412874e-18
9.4366343e-18
9.4337243e-18
9.4319372e-18
9.4309038e-18
9.4303936e-18
9.4302775e-18
9.4305175e-18
9.4311786e-18
9.4324775e-18
9.4414622e-18
9.4368265e-18
9.4339341e-18
9.4321598e-18
9.4311349e-18
9.43063e-18
9.4305175e-18
9.4307602e-18
9.4314233e-18
9.4327235e-18
9.4420132e-18
9.4374215e-18
9.4345599e-18
9.4328031e-18
9.4317877e-18
9.4312881e-18
9.4311786e-18
9.4314233e-18
9.432088e-18
9.4333897e-18
9.4431114e-18
9.438647e-18
9.435829e-18
9.4340892e-18
9.4330812e-18
9.4325851e-18
9.4324775e-18
9.4327235e-18
9.4333897e-18
9.434695e-18
1.7239117e-17
1.7230885e-17
1.7225699e-17
1.722249e-17
1.7220612e-17
1.7219654e-17
1.7219372e-17
1.7219676e-17
1.7220635e-17
1.7222532e-17
1.7230885e-17
1.7222679e-17
1.7217503e-17
1.72143e-17
1.7212428e-17
1.7211476e-17
1.7211209e-17
1.7211544e-17
1.7212582e-17
1.7214709e-17
1.7225699e-17
1.7217503e-17
1.7212336e-17
1.7209139e-17
1.7207273e-17
1.7206332e-17
1.7206082e-17
1.7206449e-17
1.7207543e-17
1.7209748e-17
1.722249e-17
1.72143e-17
1.7209139e-17
1.7205948e-17
1.720409e-17
1.720316e-17
1.7202925e-17
1.7203315e-17
1.720444e-17
1.7206676e-17
1.7220612e-17
1.7212428e-17
1.7207273e-17
1.720409e-17
1.7202241e-17
1.7201319e-17
1.7201096e-17
1.7201501e-17
1.7202643e-17
1.7204893e-17
1.7219654e-17
1.7211476e-17
1.7206332e-17
1.720316e-17
1.7201319e-17
1.7200406e-17
1.7200192e-17
1.7200607e-17
1.7201758e-17
1.7204014e-17
1.7219372e-17
1.7211209e-17
1.7206082e-17
1.7202925e-17
1.7201096e-17
1.7200192e-17
1.7199985e-17
1.7200406e-17
1.7201564e-17
1.7203823e-17
1.7219676e-17
1.7211544e-17
1.7206449e-17
1.7203315e-17
1.7201501e-17
1.7200607e-17
1.7200406e-17
1.7200832e-17
1.7201993e-17
1.7204255e-17
1.7220635e-17
1.7212582e-17
1.7207543e-17
1.720444e-17
1.7202643e-17
1.7201758e-17
1.7201564e-17
1.7201993e-17
1.7203157e-17
1.7205421e-17
1.7222532e-17
1.7214709e-17
1.7209748e-17
1.7206676e-17
1.7204893e-17
1.7204014e-17
1.7203823e-17
1.7204255e-17
1.7205421e-17
1.7207691e-17
3.173349e-17
3.1718919e-17
3.1709702e-17
3.1703982e-17
3.170063e-17
3.1698915e-17
3.1698408e-17
3.1698941e-17
3.1700625e-17
3.1703932e-17
3.1718919e-17
3.1704396e-17
3.1695197e-17
3.1689487e-17
3.1686143e-17
3.1684442e-17
3.168396e-17
3.168455e-17
3.1686378e-17
3.1690103e-17
3.1709702e-17
3.1695197e-17
3.1686012e-17
3.1680313e-17
3.1676982e-17
3.1675299e-17
3.167485e-17
3.1675497e-17
3.1677426e-17
3.1681294e-17
3.1703982e-17
3.1689487e-17
3.1680313e-17
3.1674627e-17
3.1671309e-17
3.1669645e-17
3.1669223e-17
3.1669913e-17
3.1671899e-17
3.1675823e-17
3.170063e-17
3.1686143e-17
3.1676982e-17
3.1671309e-17
3.1668006e-17
3.1666359e-17
3.1665958e-17
3.1666675e-17
3.1668692e-17
3.167264e-17
3.1698915e-17
3.1684442e-17
3.1675299e-17
3.1669645e-17
3.1666359e-17
3.1664727e-17
3.1664343e-17
3.1665077e-17
3.1667111e-17
3.1671071e-17
3.1698408e-17
3.168396e-17
3.167485e-17
3.1669223e-17
3.1665958e-17
3.1664343e-17
3.1663972e-17
3.1664717e-17
3.1666762e-17
3.1670728e-17
3.1698941e-17
3.168455e-17
3.1675497e-17
3.1669913e-17
3.1666675e-17
3.1665077e-17
3.1664717e-17
3.1665472e-17
3.1667523e-17
3.1671493e-17
3.1700625e-17
3.1686378e-17
3.1677426e-17
3.1671899e-17
3.1668692e-17
3.1667111e-17
3.1666762e-17
3.1667523e-17
3.1669579e-17
3.1673553e-17
3.1703932e-17
3.1690103e-17
3.1681294e-17
3.1675823e-17
3.167264e-17
3.1671071e-17
3.1670728e-17
3.1671493e-17
3.1673553e-17
3.1677539e-17
5.8960002e-17
5.8933986e-17
5.891746e-17
5.8907176e-17
5.8901137e-17
5.8898044e-17
5.8897124e-17
5.8898068e-17
5.8901051e-17
5.8906867e-17
5.8933986e-17
5.8908053e-17
5.889156e-17
5.8881293e-17
5.887527e-17
5.8872202e-17
5.8871329e-17
5.8872376e-17
5.8875625e-17
5.8882208e-17
5.891746e-17
5.889156e-17
5.8875091e-17
5.8864846e-17
5.8858846e-17
5.8855811e-17
5.8854996e-17
5.8856149e-17
5.8859583e-17
5.8866428e-17
5.8907176e-17
5.8881293e-17
5.8864846e-17
5.8854622e-17
5.8848647e-17
5.8845646e-17
5.8844882e-17
5.8846112e-17
5.884965e-17
5.8856599e-17
5.8901137e-17
5.887527e-17
5.8858846e-17
5.8848647e-17
5.8842698e-17
5.8839728e-17
5.8839002e-17
5.8840283e-17
5.8843878e-17
5.8850871e-17
5.8898044e-17
5.8872202e-17
5.8855811e-17
5.8845646e-17
5.8839728e-17
5.8836786e-17
5.883609e-17
5.8837403e-17
5.8841029e-17
5.8848043e-17
5.8897124e-17
5.8871329e-17
5.8854996e-17
5.8844882e-17
5.8839002e-17
5.883609e-17
5.8835419e-17
5.8836753e-17
5.8840398e-17
5.8847423e-17
5.8898068e-17
5.8872376e-17
5.8856149e-17
5.8846112e-17
5.8840283e-17
5.8837403e-17
5.8836753e-17
5.8838103e-17
5.8841759e-17
5.8848792e-17
5.8901051e-17
5.8875625e-17
5.8859583e-17
5.884965e-17
5.8843878e-17
5.8841029e-17
5.8840398e-17
5.8841759e-17
5.8845425e-17
5.8852466e-17
5.8906867e-17
5.8882208e-17
5.8866428e-17
5.8856599e-17
5.8850871e-17
5.8848043e-17
5.8847423e-17
5.8848792e-17
5.8852466e-17
5.8859526e-17
1.1056872e-16
1.1052186e-16
1.1049197e-16
1.1047332e-16
1.1046235e-16
1.1045672e-16
1.1045504e-16
1.1045673e-16
1.1046206e-16
1.1047238e-16
1.1052186e-16
1.1047515e-16
1.1044532e-16
1.104267e-16
1.1041576e-16
1.1041018e-16
1.1040858e-16
1.1041046e-16
1.1041628e-16
1.1042803e-16
1.1049197e-16
1.1044532e-16
1.1041554e-16
1.1039696e-16
1.1038605e-16
1.1038053e-16
1.1037905e-16
1.1038112e-16
1.1038729e-16
1.1039951e-16
1.1047332e-16
1.104267e-16
1.1039696e-16
1.1037841e-16
1.1036756e-16
1.103621e-16
1.1036071e-16
1.1036292e-16
1.1036928e-16
1.103817e-16
1.1046235e-16
1.1041576e-16
1.1038605e-16
1.1036756e-16
1.1035675e-16
1.1035135e-16
1.1035003e-16
1.1035234e-16
1.103588e-16
1.103713e-16
1.1045672e-16
1.1041018e-16
1.1038053e-16
1.103621e-16
1.1035135e-16
1.10346e-16
1.1034473e-16
1.103471e-16
1.1035363e-16
1.1036617e-16
1.1045504e-16
1.1040858e-16
1.1037905e-16
1.1036071e-16
1.1035003e-16
1.1034473e-16
1.1034351e-16
1.1034592e-16
1.1035248e-16
1.1036504e-16
1.1045673e-16
1.1041046e-16
1.1038112e-16
1.1036292e-16
1.1035234e-16
1.103471e-16
1.1034592e-16
1.1034835e-16
1.1035493e-16
1.1036751e-16
1.1046206e-16
1.1041628e-16
1.1038729e-16
1.1036928e-16
1.103588e-16
1.1035363e-16
1.1035248e-16
1.1035493e-16
1.1036153e-16
1.1037412e-16
1.1047238e-16
1.1042803e-16
1.1039951e-16
1.103817e-16
1.103713e-16
1.1036617e-16
1.1036504e-16
1.1036751e-16
1.1037412e-16
1.1038674e-16
2.0928409e-16
2.0919894e-16
2.0914442e-16
2.0911031e-16
2.090902e-16
2.0907987e-16
2.0907677e-16
2.0907981e-16
2.0908944e-16
2.0910791e-16
2.0919894e-16
2.0911407e-16
2.0905965e-16
2.0902559e-16
2.0900554e-16
2.089953e-16
2.0899236e-16
2.0899576e-16
2.090063e-16
2.0902743e-16
2.0914442e-16
2.0905965e-16
2.0900532e-16
2.0897133e-16
2.0895135e-16
2.0894123e-16
2.0893848e-16
2.0894225e-16
2.0895343e-16
2.0897547e-16
2.0911031e-16
2.0902559e-16
2.0897133e-16
2.0893741e-16
2.0891752e-16
2.0890751e-16
2.0890495e-16
2.0890897e-16
2.0892052e-16
2.0894291e-16
2.090902e-16
2.0900554e-16
2.0895135e-16
2.0891752e-16
2.0889772e-16
2.0888782e-16
2.0888538e-16
2.0888959e-16
2.0890132e-16
2.0892388e-16
2.0907987e-16
2.089953e-16
2.0894123e-16
2.0890751e-16
2.0888782e-16
2.0887801e-16
2.0887568e-16
2.0887999e-16
2.0889184e-16
2.0891446e-16
2.0907677e-16
2.0899236e-16
2.0893848e-16
2.0890495e-16
2.0888538e-16
2.0887568e-16
2.0887343e-16
2.0887782e-16
2.0888973e-16
2.0891239e-16
2.0907981e-16
2.0899576e-16
2.0894225e-16
2.0890897e-16
2.0888959e-16
2.0887999e-16
2.0887782e-16
2.0888226e-16
2.0889421e-16
2.0891689e-16
2.0908944e-16
2.090063e-16
2.0895343e-16
2.0892052e-16
2.0890132e-16
2.0889184e-16
2.0888973e-16
2.0889421e-16
2.0890619e-16
2.089289e-16
2.0910791e-16
2.0902743e-16
2.0897547e-16
2.0894291e-16
2.0892388e-16
2.0891446e-16
2.0891239e-16
2.0891689e-16
2.089289e-16
2.0895168e-16
3.9981455e-16
3.996585e-16
3.9955818e-16
3.9949523e-16
3.9945807e-16
3.9943896e-16
3.994332e-16
3.9943873e-16
3.9945625e-16
3.9948963e-16
3.996585e-16
3.9950294e-16
3.9940281e-16
3.9933997e-16
3.9930291e-16
3.9928396e-16
3.9927849e-16
3.9928471e-16
3.9930396e-16
3.9934235e-16
3.9955818e-16
3.9940281e-16
3.9930283e-16
3.9924012e-16
3.992032e-16
3.9918447e-16
3.9917938e-16
3.9918628e-16
3.9920673e-16
3.9924683e-16
3.9949523e-16
3.9933997e-16
3.9924012e-16
3.9917755e-16
3.9914079e-16
3.9912228e-16
3.9911752e-16
3.9912491e-16
3.9914604e-16
3.9918681e-16
3.9945807e-16
3.9930291e-16
3.992032e-16
3.9914079e-16
3.9910421e-16
3.9908589e-16
3.9908138e-16
3.990891e-16
3.991106e-16
3.9915166e-16
3.9943896e-16
3.9928396e-16
3.9918447e-16
3.9912228e-16
3.9908589e-16
3.9906775e-16
3.9906343e-16
3.9907136e-16
3.9909307e-16
3.9913426e-16
3.994332e-16
3.9927849e-16
3.9917938e-16
3.9911752e-16
3.9908138e-16
3.9906343e-16
3.9905927e-16
3.9906734e-16
3.9908916e-16
3.9913043e-16
3.9943873e-16
3.9928471e-16
3.9918628e-16
3.9912491e-16
3.990891e-16
3.9907136e-16
3.9906734e-16
3.9907551e-16
3.9909741e-16
3.9913872e-16
3.9945625e-16
3.9930396e-16
3.9920673e-16
3.9914604e-16
3.991106e-16
3.9909307e-16
3.9908916e-16
3.9909741e-16
3.9911937e-16
3.9916073e-16
3.9948963e-16
3.9934235e-16
3.9924683e-16
3.9918681e-16
3.9915166e-16
3.9913426e-16
3.9913043e-16
3.9913872e-16
3.9916073e-16
3.9920219e-16
7.708748e-16
7.7058633e-16
7.7040015e-16
7.7028302e-16
7.7021375e-16
7.701781e-16
7.701673e-16
7.7017747e-16
7.7020966e-16
7.702705e-16
7.7058633e-16
7.7029876e-16
7.7011293e-16
7.69996e-16
7.6992693e-16
7.6989157e-16
7.6988133e-16
7.6989279e-16
7.6992826e-16
7.6999863e-16
7.7040015e-16
7.7011293e-16
7.6992738e-16
7.698107e-16
7.6974189e-16
7.6970694e-16
7.6969742e-16
7.6971018e-16
7.6974794e-16
7.6982155e-16
7.7028302e-16
7.69996e-16
7.698107e-16
7.6969427e-16
7.6962577e-16
7.6959123e-16
7.6958233e-16
7.6959604e-16
7.6963509e-16
7.6970996e-16
7.7021375e-16
7.6992693e-16
7.6974189e-16
7.6962577e-16
7.6955759e-16
7.6952342e-16
7.69515e-16
7.6952932e-16
7.6956907e-16
7.696445e-16
7.701781e-16
7.6989157e-16
7.6970694e-16
7.6959123e-16
7.6952342e-16
7.6948961e-16
7.6948155e-16
7.6949627e-16
7.695364e-16
7.6961209e-16
7.701673e-16
7.6988133e-16
7.6969742e-16
7.6958233e-16
7.69515e-16
7.6948155e-16
7.694738e-16
7.6948877e-16
7.6952913e-16
7.6960495e-16
7.7017747e-16
7.6989279e-16
7.6971018e-16
7.6959604e-16
7.6952932e-16
7.6949627e-16
7.6948877e-16
7.6950394e-16
7.6954444e-16
7.6962035e-16
7.7020966e-16
7.6992826e-16
7.6974794e-16
7.6963509e-16
7.6956907e-16
7.695364e-16
7.6952913e-16
7.6954444e-16
7.6958505e-16
7.6966105e-16
7.702705e-16
7.6999863e-16
7.6982155e-16
7.6970996e-16
7.696445e-16
7.6961209e-16
7.6960495e-16