/*--------------------------------*- C++ -*----------------------------------*\
| =========                 |                                                 |
| \\      /  F ield         | OpenFOAM: The Open Source CFD Toolbox           |
|  \\    /   O peration     | Version:  dev                                   |
|   \\  /    A nd           | Web:      www.OpenFOAM.org                      |
|    \\/     M anipulation  |                                                 |
\*---------------------------------------------------------------------------*/
FoamFile
{
    version     2.0;
    format      ascii;
    class       volScalarField;
    location    "32";
    object      A;
}
// * * * * * * * * * * * * * * * * * * * * * * * * * * * * * * * * * * * * * //

dimensions      [0 0 0 0 1 0 0];

internalField   nonuniform List<scalar> 
10000
(
2.0443837e-42
2.0442668e-42
2.0442075e-42
2.0441777e-42
2.0441639e-42
2.0441581e-42
2.0441563e-42
2.0441568e-42
2.0441598e-42
2.0441683e-42
2.0442668e-42
2.04415e-42
2.0440906e-42
2.0440609e-42
2.044047e-42
2.0440413e-42
2.0440396e-42
2.0440403e-42
2.0440438e-42
2.0440539e-42
2.0442075e-42
2.0440906e-42
2.0440313e-42
2.0440016e-42
2.0439877e-42
2.043982e-42
2.0439804e-42
2.0439812e-42
2.0439852e-42
2.0439958e-42
2.0441777e-42
2.0440609e-42
2.0440016e-42
2.0439718e-42
2.043958e-42
2.0439523e-42
2.0439507e-42
2.0439517e-42
2.0439558e-42
2.0439666e-42
2.0441639e-42
2.044047e-42
2.0439877e-42
2.043958e-42
2.0439442e-42
2.0439385e-42
2.043937e-42
2.043938e-42
2.0439422e-42
2.0439531e-42
2.0441581e-42
2.0440413e-42
2.043982e-42
2.0439523e-42
2.0439385e-42
2.0439329e-42
2.0439313e-42
2.0439324e-42
2.0439366e-42
2.0439475e-42
2.0441563e-42
2.0440396e-42
2.0439804e-42
2.0439507e-42
2.043937e-42
2.0439313e-42
2.0439298e-42
2.0439309e-42
2.0439351e-42
2.043946e-42
2.0441568e-42
2.0440403e-42
2.0439812e-42
2.0439517e-42
2.043938e-42
2.0439324e-42
2.0439309e-42
2.0439319e-42
2.0439362e-42
2.0439471e-42
2.0441598e-42
2.0440438e-42
2.0439852e-42
2.0439558e-42
2.0439422e-42
2.0439366e-42
2.0439351e-42
2.0439362e-42
2.0439404e-42
2.0439513e-42
2.0441683e-42
2.0440539e-42
2.0439958e-42
2.0439666e-42
2.0439531e-42
2.0439475e-42
2.043946e-42
2.0439471e-42
2.0439513e-42
2.0439622e-42
8.366044e-42
8.365581e-42
8.3653417e-42
8.3652216e-42
8.3651656e-42
8.3651422e-42
8.3651349e-42
8.3651369e-42
8.3651491e-42
8.3651845e-42
8.365581e-42
8.3651182e-42
8.3648789e-42
8.3647588e-42
8.3647028e-42
8.3646796e-42
8.3646726e-42
8.3646754e-42
8.3646898e-42
8.3647317e-42
8.3653417e-42
8.3648789e-42
8.3646397e-42
8.3645196e-42
8.3644637e-42
8.3644406e-42
8.3644339e-42
8.3644374e-42
8.3644532e-42
8.3644974e-42
8.3652216e-42
8.3647588e-42
8.3645196e-42
8.3643996e-42
8.3643437e-42
8.3643207e-42
8.3643143e-42
8.3643182e-42
8.3643347e-42
8.3643796e-42
8.3651656e-42
8.3647028e-42
8.3644637e-42
8.3643437e-42
8.3642879e-42
8.364265e-42
8.3642587e-42
8.3642628e-42
8.3642796e-42
8.3643248e-42
8.3651422e-42
8.3646796e-42
8.3644406e-42
8.3643207e-42
8.364265e-42
8.3642421e-42
8.3642359e-42
8.3642401e-42
8.3642571e-42
8.3643024e-42
8.3651349e-42
8.3646726e-42
8.3644339e-42
8.3643143e-42
8.3642587e-42
8.3642359e-42
8.3642297e-42
8.364234e-42
8.364251e-42
8.3642963e-42
8.3651369e-42
8.3646754e-42
8.3644374e-42
8.3643182e-42
8.3642628e-42
8.3642401e-42
8.364234e-42
8.3642383e-42
8.3642553e-42
8.3643006e-42
8.3651491e-42
8.3646898e-42
8.3644532e-42
8.3643347e-42
8.3642796e-42
8.3642571e-42
8.364251e-42
8.3642553e-42
8.3642723e-42
8.3643177e-42
8.3651845e-42
8.3647317e-42
8.3644974e-42
8.3643796e-42
8.3643248e-42
8.3643024e-42
8.3642963e-42
8.3643006e-42
8.3643177e-42
8.364363e-42
2.4144453e-41
2.4143156e-41
2.4142481e-41
2.4142141e-41
2.4141983e-41
2.4141917e-41
2.4141896e-41
2.4141902e-41
2.4141936e-41
2.4142036e-41
2.4143156e-41
2.414186e-41
2.4141185e-41
2.4140845e-41
2.4140687e-41
2.4140621e-41
2.4140602e-41
2.4140609e-41
2.414065e-41
2.4140769e-41
2.4142481e-41
2.4141185e-41
2.414051e-41
2.4140171e-41
2.4140012e-41
2.4139947e-41
2.4139928e-41
2.4139938e-41
2.4139982e-41
2.4140108e-41
2.4142141e-41
2.4140845e-41
2.4140171e-41
2.4139831e-41
2.4139673e-41
2.4139608e-41
2.413959e-41
2.4139601e-41
2.4139647e-41
2.4139775e-41
2.4141983e-41
2.4140687e-41
2.4140012e-41
2.4139673e-41
2.4139515e-41
2.413945e-41
2.4139432e-41
2.4139444e-41
2.4139492e-41
2.413962e-41
2.4141917e-41
2.4140621e-41
2.4139947e-41
2.4139608e-41
2.413945e-41
2.4139386e-41
2.4139368e-41
2.413938e-41
2.4139428e-41
2.4139556e-41
2.4141896e-41
2.4140602e-41
2.4139928e-41
2.413959e-41
2.4139432e-41
2.4139368e-41
2.413935e-41
2.4139363e-41
2.413941e-41
2.4139539e-41
2.4141902e-41
2.4140609e-41
2.4139938e-41
2.4139601e-41
2.4139444e-41
2.413938e-41
2.4139363e-41
2.4139375e-41
2.4139423e-41
2.4139551e-41
2.4141936e-41
2.414065e-41
2.4139982e-41
2.4139647e-41
2.4139492e-41
2.4139428e-41
2.413941e-41
2.4139423e-41
2.4139471e-41
2.4139599e-41
2.4142036e-41
2.4140769e-41
2.4140108e-41
2.4139775e-41
2.413962e-41
2.4139556e-41
2.4139539e-41
2.4139551e-41
2.4139599e-41
2.4139728e-41
6.8159528e-41
6.8155978e-41
6.815412e-41
6.8153184e-41
6.8152746e-41
6.8152564e-41
6.8152507e-41
6.8152522e-41
6.8152615e-41
6.8152885e-41
6.8155978e-41
6.8152429e-41
6.8150572e-41
6.8149635e-41
6.8149198e-41
6.8149017e-41
6.8148962e-41
6.8148983e-41
6.8149094e-41
6.8149416e-41
6.815412e-41
6.8150572e-41
6.8148715e-41
6.8147779e-41
6.8147342e-41
6.8147161e-41
6.8147109e-41
6.8147136e-41
6.8147258e-41
6.8147598e-41
6.8153184e-41
6.8149635e-41
6.8147779e-41
6.8146843e-41
6.8146406e-41
6.8146226e-41
6.8146176e-41
6.8146207e-41
6.8146334e-41
6.814668e-41
6.8152746e-41
6.8149198e-41
6.8147342e-41
6.8146406e-41
6.814597e-41
6.8145791e-41
6.8145742e-41
6.8145774e-41
6.8145904e-41
6.8146252e-41
6.8152564e-41
6.8149017e-41
6.8147161e-41
6.8146226e-41
6.8145791e-41
6.8145612e-41
6.8145564e-41
6.8145597e-41
6.8145727e-41
6.8146077e-41
6.8152507e-41
6.8148962e-41
6.8147109e-41
6.8146176e-41
6.8145742e-41
6.8145564e-41
6.8145515e-41
6.8145549e-41
6.814568e-41
6.8146029e-41
6.8152522e-41
6.8148983e-41
6.8147136e-41
6.8146207e-41
6.8145774e-41
6.8145597e-41
6.8145549e-41
6.8145583e-41
6.8145714e-41
6.8146063e-41
6.8152615e-41
6.8149094e-41
6.8147258e-41
6.8146334e-41
6.8145904e-41
6.8145727e-41
6.814568e-41
6.8145714e-41
6.8145845e-41
6.8146195e-41
6.8152885e-41
6.8149416e-41
6.8147598e-41
6.814668e-41
6.8146252e-41
6.8146077e-41
6.8146029e-41
6.8146063e-41
6.8146195e-41
6.8146544e-41
1.9469953e-40
1.946897e-40
1.9468453e-40
1.9468192e-40
1.9468069e-40
1.9468019e-40
1.9468003e-40
1.9468007e-40
1.9468032e-40
1.9468105e-40
1.946897e-40
1.9467987e-40
1.946747e-40
1.9467209e-40
1.9467087e-40
1.9467036e-40
1.9467021e-40
1.9467027e-40
1.9467057e-40
1.9467145e-40
1.9468453e-40
1.946747e-40
1.9466954e-40
1.9466693e-40
1.9466571e-40
1.946652e-40
1.9466506e-40
1.9466513e-40
1.9466547e-40
1.946664e-40
1.9468192e-40
1.9467209e-40
1.9466693e-40
1.9466432e-40
1.946631e-40
1.946626e-40
1.9466246e-40
1.9466254e-40
1.9466289e-40
1.9466384e-40
1.9468069e-40
1.9467087e-40
1.9466571e-40
1.946631e-40
1.9466188e-40
1.9466138e-40
1.9466124e-40
1.9466133e-40
1.9466169e-40
1.9466265e-40
1.9468019e-40
1.9467036e-40
1.946652e-40
1.946626e-40
1.9466138e-40
1.9466088e-40
1.9466075e-40
1.9466084e-40
1.946612e-40
1.9466216e-40
1.9468003e-40
1.9467021e-40
1.9466506e-40
1.9466246e-40
1.9466124e-40
1.9466075e-40
1.9466061e-40
1.9466071e-40
1.9466107e-40
1.9466202e-40
1.9468007e-40
1.9467027e-40
1.9466513e-40
1.9466254e-40
1.9466133e-40
1.9466084e-40
1.9466071e-40
1.946608e-40
1.9466116e-40
1.9466212e-40
1.9468032e-40
1.9467057e-40
1.9466547e-40
1.9466289e-40
1.9466169e-40
1.946612e-40
1.9466107e-40
1.9466116e-40
1.9466153e-40
1.9466248e-40
1.9468105e-40
1.9467145e-40
1.946664e-40
1.9466384e-40
1.9466265e-40
1.9466216e-40
1.9466202e-40
1.9466212e-40
1.9466248e-40
1.9466344e-40
5.6522754e-40
5.6519988e-40
5.6518528e-40
5.6517789e-40
5.6517442e-40
5.6517298e-40
5.6517253e-40
5.6517265e-40
5.6517336e-40
5.6517537e-40
5.6519988e-40
5.6517224e-40
5.6515764e-40
5.6515025e-40
5.6514679e-40
5.6514535e-40
5.6514492e-40
5.6514509e-40
5.6514594e-40
5.6514837e-40
5.6518528e-40
5.6515764e-40
5.6514304e-40
5.6513565e-40
5.651322e-40
5.6513077e-40
5.6513036e-40
5.6513057e-40
5.6513152e-40
5.6513409e-40
5.6517789e-40
5.6515025e-40
5.6513565e-40
5.6512826e-40
5.6512481e-40
5.6512339e-40
5.6512299e-40
5.6512324e-40
5.6512423e-40
5.6512685e-40
5.6517442e-40
5.6514679e-40
5.651322e-40
5.6512481e-40
5.6512136e-40
5.6511995e-40
5.6511956e-40
5.6511981e-40
5.6512082e-40
5.6512347e-40
5.6517298e-40
5.6514535e-40
5.6513077e-40
5.6512339e-40
5.6511995e-40
5.6511853e-40
5.6511815e-40
5.6511841e-40
5.6511943e-40
5.6512208e-40
5.6517253e-40
5.6514492e-40
5.6513036e-40
5.6512299e-40
5.6511956e-40
5.6511815e-40
5.6511777e-40
5.6511803e-40
5.6511906e-40
5.6512171e-40
5.6517265e-40
5.6514509e-40
5.6513057e-40
5.6512324e-40
5.6511981e-40
5.6511841e-40
5.6511803e-40
5.651183e-40
5.6511933e-40
5.6512198e-40
5.6517336e-40
5.6514594e-40
5.6513152e-40
5.6512423e-40
5.6512082e-40
5.6511943e-40
5.6511906e-40
5.6511933e-40
5.6512035e-40
5.65123e-40
5.6517537e-40
5.6514837e-40
5.6513409e-40
5.6512685e-40
5.6512347e-40
5.6512208e-40
5.6512171e-40
5.6512198e-40
5.65123e-40
5.6512565e-40
1.6686542e-39
1.6685752e-39
1.6685332e-39
1.6685119e-39
1.668502e-39
1.6684978e-39
1.6684965e-39
1.6684968e-39
1.6684989e-39
1.6685045e-39
1.6685752e-39
1.6684961e-39
1.6684542e-39
1.6684329e-39
1.6684229e-39
1.6684188e-39
1.6684176e-39
1.668418e-39
1.6684205e-39
1.6684273e-39
1.6685332e-39
1.6684542e-39
1.6684123e-39
1.668391e-39
1.668381e-39
1.6683769e-39
1.6683757e-39
1.6683764e-39
1.6683791e-39
1.6683863e-39
1.6685119e-39
1.6684329e-39
1.668391e-39
1.6683697e-39
1.6683598e-39
1.6683557e-39
1.6683545e-39
1.6683552e-39
1.6683581e-39
1.6683655e-39
1.668502e-39
1.6684229e-39
1.668381e-39
1.6683598e-39
1.6683498e-39
1.6683458e-39
1.6683446e-39
1.6683454e-39
1.6683483e-39
1.6683557e-39
1.6684978e-39
1.6684188e-39
1.6683769e-39
1.6683557e-39
1.6683458e-39
1.6683417e-39
1.6683406e-39
1.6683413e-39
1.6683443e-39
1.6683517e-39
1.6684965e-39
1.6684176e-39
1.6683757e-39
1.6683545e-39
1.6683446e-39
1.6683406e-39
1.6683395e-39
1.6683403e-39
1.6683432e-39
1.6683507e-39
1.6684968e-39
1.668418e-39
1.6683764e-39
1.6683552e-39
1.6683454e-39
1.6683413e-39
1.6683403e-39
1.668341e-39
1.668344e-39
1.6683514e-39
1.6684989e-39
1.6684205e-39
1.6683791e-39
1.6683581e-39
1.6683483e-39
1.6683443e-39
1.6683432e-39
1.668344e-39
1.6683469e-39
1.6683544e-39
1.6685045e-39
1.6684273e-39
1.6683863e-39
1.6683655e-39
1.6683557e-39
1.6683517e-39
1.6683507e-39
1.6683514e-39
1.6683544e-39
1.6683619e-39
5.0101682e-39
5.0099383e-39
5.0098158e-39
5.0097536e-39
5.0097244e-39
5.0097122e-39
5.0097084e-39
5.0097094e-39
5.0097152e-39
5.0097311e-39
5.0099383e-39
5.0097084e-39
5.0095861e-39
5.0095238e-39
5.0094946e-39
5.0094825e-39
5.0094789e-39
5.0094803e-39
5.0094873e-39
5.0095069e-39
5.0098158e-39
5.0095861e-39
5.0094637e-39
5.0094014e-39
5.0093723e-39
5.0093602e-39
5.0093568e-39
5.0093586e-39
5.0093664e-39
5.0093873e-39
5.0097536e-39
5.0095238e-39
5.0094014e-39
5.0093392e-39
5.0093101e-39
5.0092981e-39
5.0092948e-39
5.0092968e-39
5.0093051e-39
5.0093263e-39
5.0097244e-39
5.0094946e-39
5.0093723e-39
5.0093101e-39
5.009281e-39
5.009269e-39
5.0092658e-39
5.009268e-39
5.0092764e-39
5.0092978e-39
5.0097122e-39
5.0094825e-39
5.0093602e-39
5.0092981e-39
5.009269e-39
5.0092571e-39
5.0092539e-39
5.0092561e-39
5.0092646e-39
5.0092861e-39
5.0097084e-39
5.0094789e-39
5.0093568e-39
5.0092948e-39
5.0092658e-39
5.0092539e-39
5.0092507e-39
5.009253e-39
5.0092615e-39
5.009283e-39
5.0097094e-39
5.0094803e-39
5.0093586e-39
5.0092968e-39
5.009268e-39
5.0092561e-39
5.009253e-39
5.0092552e-39
5.0092638e-39
5.0092853e-39
5.0097152e-39
5.0094873e-39
5.0093664e-39
5.0093051e-39
5.0092764e-39
5.0092646e-39
5.0092615e-39
5.0092638e-39
5.0092723e-39
5.0092938e-39
5.0097311e-39
5.0095069e-39
5.0093873e-39
5.0093263e-39
5.0092978e-39
5.0092861e-39
5.009283e-39
5.0092853e-39
5.0092938e-39
5.0093153e-39
1.5300699e-38
1.530002e-38
1.5299656e-38
1.5299471e-38
1.5299384e-38
1.5299348e-38
1.5299337e-38
1.529934e-38
1.5299357e-38
1.5299403e-38
1.530002e-38
1.529934e-38
1.5298977e-38
1.5298792e-38
1.5298705e-38
1.5298669e-38
1.5298658e-38
1.5298662e-38
1.5298683e-38
1.529874e-38
1.5299656e-38
1.5298977e-38
1.5298614e-38
1.5298429e-38
1.5298342e-38
1.5298306e-38
1.5298296e-38
1.5298301e-38
1.5298325e-38
1.5298385e-38
1.5299471e-38
1.5298792e-38
1.5298429e-38
1.5298244e-38
1.5298157e-38
1.5298121e-38
1.5298112e-38
1.5298118e-38
1.5298142e-38
1.5298204e-38
1.5299384e-38
1.5298705e-38
1.5298342e-38
1.5298157e-38
1.5298071e-38
1.5298035e-38
1.5298025e-38
1.5298032e-38
1.5298057e-38
1.5298119e-38
1.5299348e-38
1.5298669e-38
1.5298306e-38
1.5298121e-38
1.5298035e-38
1.5297999e-38
1.529799e-38
1.5297997e-38
1.5298022e-38
1.5298084e-38
1.5299337e-38
1.5298658e-38
1.5298296e-38
1.5298112e-38
1.5298025e-38
1.529799e-38
1.529798e-38
1.5297987e-38
1.5298012e-38
1.5298075e-38
1.529934e-38
1.5298662e-38
1.5298301e-38
1.5298118e-38
1.5298032e-38
1.5297997e-38
1.5297987e-38
1.5297994e-38
1.5298019e-38
1.5298082e-38
1.5299357e-38
1.5298683e-38
1.5298325e-38
1.5298142e-38
1.5298057e-38
1.5298022e-38
1.5298012e-38
1.5298019e-38
1.5298045e-38
1.5298107e-38
1.5299403e-38
1.529874e-38
1.5298385e-38
1.5298204e-38
1.5298119e-38
1.5298084e-38
1.5298075e-38
1.5298082e-38
1.5298107e-38
1.529817e-38
4.7529857e-38
4.7527815e-38
4.7526719e-38
4.7526159e-38
4.7525896e-38
4.7525786e-38
4.7525752e-38
4.7525761e-38
4.7525812e-38
4.7525947e-38
4.7527815e-38
4.7525774e-38
4.7524678e-38
4.7524118e-38
4.7523855e-38
4.7523746e-38
4.7523713e-38
4.7523726e-38
4.7523789e-38
4.7523958e-38
4.7526719e-38
4.7524678e-38
4.7523582e-38
4.7523023e-38
4.752276e-38
4.7522651e-38
4.752262e-38
4.7522637e-38
4.7522706e-38
4.7522887e-38
4.7526159e-38
4.7524118e-38
4.7523023e-38
4.7522463e-38
4.7522201e-38
4.7522093e-38
4.7522063e-38
4.7522081e-38
4.7522155e-38
4.7522339e-38
4.7525896e-38
4.7523855e-38
4.752276e-38
4.7522201e-38
4.7521939e-38
4.7521831e-38
4.7521802e-38
4.7521822e-38
4.7521897e-38
4.7522083e-38
4.7525786e-38
4.7523746e-38
4.7522651e-38
4.7522093e-38
4.7521831e-38
4.7521723e-38
4.7521695e-38
4.7521715e-38
4.7521791e-38
4.7521977e-38
4.7525752e-38
4.7523713e-38
4.752262e-38
4.7522063e-38
4.7521802e-38
4.7521695e-38
4.7521666e-38
4.7521687e-38
4.7521762e-38
4.7521949e-38
4.7525761e-38
4.7523726e-38
4.7522637e-38
4.7522081e-38
4.7521822e-38
4.7521715e-38
4.7521687e-38
4.7521707e-38
4.7521783e-38
4.752197e-38
4.7525812e-38
4.7523789e-38
4.7522706e-38
4.7522155e-38
4.7521897e-38
4.7521791e-38
4.7521762e-38
4.7521783e-38
4.7521859e-38
4.7522046e-38
4.7525947e-38
4.7523958e-38
4.7522887e-38
4.7522339e-38
4.7522083e-38
4.7521977e-38
4.7521949e-38
4.752197e-38
4.7522046e-38
4.7522233e-38
1.5018847e-37
1.5018223e-37
1.5017887e-37
1.5017714e-37
1.5017633e-37
1.50176e-37
1.5017589e-37
1.5017592e-37
1.5017607e-37
1.5017648e-37
1.5018223e-37
1.5017599e-37
1.5017263e-37
1.5017091e-37
1.501701e-37
1.5016976e-37
1.5016966e-37
1.501697e-37
1.5016989e-37
1.501704e-37
1.5017887e-37
1.5017263e-37
1.5016927e-37
1.5016755e-37
1.5016674e-37
1.501664e-37
1.5016631e-37
1.5016636e-37
1.5016657e-37
1.5016712e-37
1.5017714e-37
1.5017091e-37
1.5016755e-37
1.5016583e-37
1.5016502e-37
1.5016469e-37
1.501646e-37
1.5016465e-37
1.5016488e-37
1.5016544e-37
1.5017633e-37
1.501701e-37
1.5016674e-37
1.5016502e-37
1.5016421e-37
1.5016388e-37
1.5016379e-37
1.5016385e-37
1.5016408e-37
1.5016465e-37
1.50176e-37
1.5016976e-37
1.501664e-37
1.5016469e-37
1.5016388e-37
1.5016355e-37
1.5016346e-37
1.5016353e-37
1.5016376e-37
1.5016432e-37
1.5017589e-37
1.5016966e-37
1.5016631e-37
1.501646e-37
1.5016379e-37
1.5016346e-37
1.5016338e-37
1.5016344e-37
1.5016367e-37
1.5016424e-37
1.5017592e-37
1.501697e-37
1.5016636e-37
1.5016465e-37
1.5016385e-37
1.5016353e-37
1.5016344e-37
1.501635e-37
1.5016374e-37
1.501643e-37
1.5017607e-37
1.5016989e-37
1.5016657e-37
1.5016488e-37
1.5016408e-37
1.5016376e-37
1.5016367e-37
1.5016374e-37
1.5016397e-37
1.5016454e-37
1.5017648e-37
1.501704e-37
1.5016712e-37
1.5016544e-37
1.5016465e-37
1.5016432e-37
1.5016424e-37
1.501643e-37
1.5016454e-37
1.501651e-37
4.8276468e-37
4.827453e-37
4.8273481e-37
4.8272943e-37
4.827269e-37
4.8272584e-37
4.8272551e-37
4.8272559e-37
4.8272608e-37
4.8272731e-37
4.827453e-37
4.8272592e-37
4.8271543e-37
4.8271006e-37
4.8270752e-37
4.8270647e-37
4.8270616e-37
4.8270628e-37
4.8270688e-37
4.8270844e-37
4.8273481e-37
4.8271543e-37
4.8270495e-37
4.8269957e-37
4.8269704e-37
4.82696e-37
4.826957e-37
4.8269586e-37
4.8269653e-37
4.826982e-37
4.8272943e-37
4.8271006e-37
4.8269957e-37
4.826942e-37
4.8269167e-37
4.8269063e-37
4.8269035e-37
4.8269053e-37
4.8269123e-37
4.8269295e-37
4.827269e-37
4.8270752e-37
4.8269704e-37
4.8269167e-37
4.8268915e-37
4.8268811e-37
4.8268783e-37
4.8268803e-37
4.8268874e-37
4.8269048e-37
4.8272584e-37
4.8270647e-37
4.82696e-37
4.8269063e-37
4.8268811e-37
4.8268708e-37
4.826868e-37
4.82687e-37
4.8268772e-37
4.8268946e-37
4.8272551e-37
4.8270616e-37
4.826957e-37
4.8269035e-37
4.8268783e-37
4.826868e-37
4.8268653e-37
4.8268673e-37
4.8268746e-37
4.826892e-37
4.8272559e-37
4.8270628e-37
4.8269586e-37
4.8269053e-37
4.8268803e-37
4.82687e-37
4.8268673e-37
4.8268694e-37
4.8268766e-37
4.826894e-37
4.8272608e-37
4.8270688e-37
4.8269653e-37
4.8269123e-37
4.8268874e-37
4.8268772e-37
4.8268746e-37
4.8268766e-37
4.8268839e-37
4.8269013e-37
4.8272731e-37
4.8270844e-37
4.826982e-37
4.8269295e-37
4.8269048e-37
4.8268946e-37
4.826892e-37
4.826894e-37
4.8269013e-37
4.8269187e-37
1.5786011e-36
1.5785399e-36
1.5785066e-36
1.5784895e-36
1.5784815e-36
1.5784781e-36
1.5784771e-36
1.5784773e-36
1.5784789e-36
1.5784827e-36
1.5785399e-36
1.5784787e-36
1.5784454e-36
1.5784283e-36
1.5784203e-36
1.5784169e-36
1.5784159e-36
1.5784163e-36
1.5784182e-36
1.5784231e-36
1.5785066e-36
1.5784454e-36
1.5784122e-36
1.5783951e-36
1.5783871e-36
1.5783837e-36
1.5783828e-36
1.5783833e-36
1.5783854e-36
1.5783907e-36
1.5784895e-36
1.5784283e-36
1.5783951e-36
1.578378e-36
1.57837e-36
1.5783667e-36
1.5783658e-36
1.5783664e-36
1.5783686e-36
1.578374e-36
1.5784815e-36
1.5784203e-36
1.5783871e-36
1.57837e-36
1.578362e-36
1.5783587e-36
1.5783578e-36
1.5783584e-36
1.5783607e-36
1.5783661e-36
1.5784781e-36
1.5784169e-36
1.5783837e-36
1.5783667e-36
1.5783587e-36
1.5783554e-36
1.5783545e-36
1.5783552e-36
1.5783574e-36
1.5783629e-36
1.5784771e-36
1.5784159e-36
1.5783828e-36
1.5783658e-36
1.5783578e-36
1.5783545e-36
1.5783537e-36
1.5783543e-36
1.5783566e-36
1.578362e-36
1.5784773e-36
1.5784163e-36
1.5783833e-36
1.5783664e-36
1.5783584e-36
1.5783552e-36
1.5783543e-36
1.5783549e-36
1.5783573e-36
1.5783627e-36
1.5784789e-36
1.5784182e-36
1.5783854e-36
1.5783686e-36
1.5783607e-36
1.5783574e-36
1.5783566e-36
1.5783573e-36
1.5783596e-36
1.578365e-36
1.5784827e-36
1.5784231e-36
1.5783907e-36
1.578374e-36
1.5783661e-36
1.5783629e-36
1.578362e-36
1.5783627e-36
1.578365e-36
1.5783705e-36
5.2511146e-36
5.2509179e-36
5.2508107e-36
5.2507555e-36
5.2507295e-36
5.2507186e-36
5.2507152e-36
5.2507161e-36
5.2507209e-36
5.2507329e-36
5.2509179e-36
5.2507213e-36
5.2506141e-36
5.2505589e-36
5.2505329e-36
5.2505221e-36
5.2505189e-36
5.2505202e-36
5.2505262e-36
5.2505417e-36
5.2508107e-36
5.2506141e-36
5.2505069e-36
5.2504518e-36
5.2504258e-36
5.250415e-36
5.250412e-36
5.2504136e-36
5.2504204e-36
5.2504372e-36
5.2507555e-36
5.2505589e-36
5.2504518e-36
5.2503966e-36
5.2503707e-36
5.25036e-36
5.250357e-36
5.2503589e-36
5.2503661e-36
5.2503833e-36
5.2507295e-36
5.2505329e-36
5.2504258e-36
5.2503707e-36
5.2503447e-36
5.2503341e-36
5.2503312e-36
5.2503332e-36
5.2503406e-36
5.2503579e-36
5.2507186e-36
5.2505221e-36
5.250415e-36
5.25036e-36
5.2503341e-36
5.2503234e-36
5.2503206e-36
5.2503227e-36
5.2503301e-36
5.2503475e-36
5.2507152e-36
5.2505189e-36
5.250412e-36
5.250357e-36
5.2503312e-36
5.2503206e-36
5.2503178e-36
5.2503199e-36
5.2503274e-36
5.2503447e-36
5.2507161e-36
5.2505202e-36
5.2504136e-36
5.2503589e-36
5.2503332e-36
5.2503227e-36
5.2503199e-36
5.2503221e-36
5.2503295e-36
5.2503469e-36
5.2507209e-36
5.2505262e-36
5.2504204e-36
5.2503661e-36
5.2503406e-36
5.2503301e-36
5.2503274e-36
5.2503295e-36
5.250337e-36
5.2503544e-36
5.2507329e-36
5.2505417e-36
5.2504372e-36
5.2503833e-36
5.2503579e-36
5.2503475e-36
5.2503447e-36
5.2503469e-36
5.2503544e-36
5.2503717e-36
1.7769353e-35
1.7768711e-35
1.776836e-35
1.7768178e-35
1.7768093e-35
1.7768057e-35
1.7768046e-35
1.7768049e-35
1.7768065e-35
1.7768103e-35
1.7768711e-35
1.7768069e-35
1.7767718e-35
1.7767536e-35
1.7767451e-35
1.7767415e-35
1.7767405e-35
1.7767409e-35
1.7767429e-35
1.7767479e-35
1.776836e-35
1.7767718e-35
1.7767366e-35
1.7767185e-35
1.77671e-35
1.7767064e-35
1.7767054e-35
1.776706e-35
1.7767082e-35
1.7767136e-35
1.7768178e-35
1.7767536e-35
1.7767185e-35
1.7767004e-35
1.7766919e-35
1.7766884e-35
1.7766874e-35
1.776688e-35
1.7766904e-35
1.776696e-35
1.7768093e-35
1.7767451e-35
1.77671e-35
1.7766919e-35
1.7766834e-35
1.7766799e-35
1.7766789e-35
1.7766796e-35
1.776682e-35
1.7766876e-35
1.7768057e-35
1.7767415e-35
1.7767064e-35
1.7766884e-35
1.7766799e-35
1.7766764e-35
1.7766754e-35
1.7766761e-35
1.7766786e-35
1.7766842e-35
1.7768046e-35
1.7767405e-35
1.7767054e-35
1.7766874e-35
1.7766789e-35
1.7766754e-35
1.7766745e-35
1.7766752e-35
1.7766777e-35
1.7766833e-35
1.7768049e-35
1.7767409e-35
1.776706e-35
1.776688e-35
1.7766796e-35
1.7766761e-35
1.7766752e-35
1.7766759e-35
1.7766784e-35
1.776684e-35
1.7768065e-35
1.7767429e-35
1.7767082e-35
1.7766904e-35
1.776682e-35
1.7766786e-35
1.7766777e-35
1.7766784e-35
1.7766808e-35
1.7766865e-35
1.7768103e-35
1.7767479e-35
1.7767136e-35
1.776696e-35
1.7766876e-35
1.7766842e-35
1.7766833e-35
1.776684e-35
1.7766865e-35
1.7766921e-35
6.1168258e-35
6.1166126e-35
6.1164954e-35
6.116435e-35
6.1164064e-35
6.1163944e-35
6.1163907e-35
6.1163917e-35
6.1163969e-35
6.1164094e-35
6.1166126e-35
6.1163994e-35
6.1162823e-35
6.1162218e-35
6.1161932e-35
6.1161813e-35
6.1161778e-35
6.1161793e-35
6.1161858e-35
6.1162024e-35
6.1164954e-35
6.1162823e-35
6.1161652e-35
6.1161048e-35
6.1160762e-35
6.1160644e-35
6.1160611e-35
6.116063e-35
6.1160704e-35
6.1160883e-35
6.116435e-35
6.1162218e-35
6.1161048e-35
6.1160443e-35
6.1160158e-35
6.1160041e-35
6.1160009e-35
6.116003e-35
6.1160109e-35
6.1160292e-35
6.1164064e-35
6.1161932e-35
6.1160762e-35
6.1160158e-35
6.1159873e-35
6.1159756e-35
6.1159725e-35
6.1159748e-35
6.1159829e-35
6.1160014e-35
6.1163944e-35
6.1161813e-35
6.1160644e-35
6.1160041e-35
6.1159756e-35
6.115964e-35
6.1159609e-35
6.1159633e-35
6.1159714e-35
6.11599e-35
6.1163907e-35
6.1161778e-35
6.1160611e-35
6.1160009e-35
6.1159725e-35
6.1159609e-35
6.1159579e-35
6.1159603e-35
6.1159684e-35
6.115987e-35
6.1163917e-35
6.1161793e-35
6.116063e-35
6.116003e-35
6.1159748e-35
6.1159633e-35
6.1159603e-35
6.1159627e-35
6.1159708e-35
6.1159894e-35
6.1163969e-35
6.1161858e-35
6.1160704e-35
6.1160109e-35
6.1159829e-35
6.1159714e-35
6.1159684e-35
6.1159708e-35
6.115979e-35
6.1159976e-35
6.1164094e-35
6.1162024e-35
6.1160883e-35
6.1160292e-35
6.1160014e-35
6.11599e-35
6.115987e-35
6.1159894e-35
6.1159976e-35
6.1160162e-35
2.1419162e-34
2.1418442e-34
2.1418045e-34
2.141784e-34
2.1417743e-34
2.1417702e-34
2.141769e-34
2.1417693e-34
2.1417711e-34
2.1417752e-34
2.1418442e-34
2.1417722e-34
2.1417326e-34
2.141712e-34
2.1417023e-34
2.1416983e-34
2.1416971e-34
2.1416976e-34
2.1416998e-34
2.1417054e-34
2.1418045e-34
2.1417326e-34
2.1416929e-34
2.1416724e-34
2.1416627e-34
2.1416587e-34
2.1416576e-34
2.1416582e-34
2.1416607e-34
2.1416667e-34
2.141784e-34
2.141712e-34
2.1416724e-34
2.1416519e-34
2.1416422e-34
2.1416382e-34
2.1416371e-34
2.1416379e-34
2.1416406e-34
2.1416467e-34
2.1417743e-34
2.1417023e-34
2.1416627e-34
2.1416422e-34
2.1416325e-34
2.1416286e-34
2.1416275e-34
2.1416283e-34
2.141631e-34
2.1416373e-34
2.1417702e-34
2.1416983e-34
2.1416587e-34
2.1416382e-34
2.1416286e-34
2.1416246e-34
2.1416236e-34
2.1416244e-34
2.1416271e-34
2.1416334e-34
2.141769e-34
2.1416971e-34
2.1416576e-34
2.1416371e-34
2.1416275e-34
2.1416236e-34
2.1416226e-34
2.1416234e-34
2.1416261e-34
2.1416324e-34
2.1417693e-34
2.1416976e-34
2.1416582e-34
2.1416379e-34
2.1416283e-34
2.1416244e-34
2.1416234e-34
2.1416242e-34
2.141627e-34
2.1416332e-34
2.1417711e-34
2.1416998e-34
2.1416607e-34
2.1416406e-34
2.141631e-34
2.1416271e-34
2.1416261e-34
2.141627e-34
2.1416297e-34
2.141636e-34
2.1417752e-34
2.1417054e-34
2.1416667e-34
2.1416467e-34
2.1416373e-34
2.1416334e-34
2.1416324e-34
2.1416332e-34
2.141636e-34
2.1416423e-34
7.6292544e-34
7.6290073e-34
7.6288707e-34
7.6287999e-34
7.6287664e-34
7.6287523e-34
7.628748e-34
7.6287492e-34
7.6287553e-34
7.6287693e-34
7.6290073e-34
7.6287604e-34
7.6286238e-34
7.628553e-34
7.6285195e-34
7.6285055e-34
7.6285015e-34
7.6285032e-34
7.6285109e-34
7.6285297e-34
7.6288707e-34
7.6286238e-34
7.6284872e-34
7.6284165e-34
7.628383e-34
7.6283692e-34
7.6283653e-34
7.6283676e-34
7.6283763e-34
7.6283968e-34
7.6287999e-34
7.628553e-34
7.6284165e-34
7.6283457e-34
7.6283123e-34
7.6282986e-34
7.6282949e-34
7.6282974e-34
7.6283067e-34
7.6283277e-34
7.6287664e-34
7.6285195e-34
7.628383e-34
7.6283123e-34
7.6282789e-34
7.6282652e-34
7.6282616e-34
7.6282644e-34
7.6282738e-34
7.6282951e-34
7.6287523e-34
7.6285055e-34
7.6283692e-34
7.6282986e-34
7.6282652e-34
7.6282516e-34
7.628248e-34
7.6282508e-34
7.6282604e-34
7.6282817e-34
7.628748e-34
7.6285015e-34
7.6283653e-34
7.6282949e-34
7.6282616e-34
7.628248e-34
7.6282445e-34
7.6282474e-34
7.6282569e-34
7.6282783e-34
7.6287492e-34
7.6285032e-34
7.6283676e-34
7.6282974e-34
7.6282644e-34
7.6282508e-34
7.6282474e-34
7.6282502e-34
7.6282598e-34
7.6282812e-34
7.6287553e-34
7.6285109e-34
7.6283763e-34
7.6283067e-34
7.6282738e-34
7.6282604e-34
7.6282569e-34
7.6282598e-34
7.6282695e-34
7.6282908e-34
7.6287693e-34
7.6285297e-34
7.6283968e-34
7.6283277e-34
7.6282951e-34
7.6282817e-34
7.6282783e-34
7.6282812e-34
7.6282908e-34
7.6283122e-34
2.7640123e-33
2.7639261e-33
2.7638783e-33
2.7638535e-33
2.7638417e-33
2.7638368e-33
2.7638353e-33
2.7638357e-33
2.7638378e-33
2.7638426e-33
2.7639261e-33
2.7638399e-33
2.7637922e-33
2.7637673e-33
2.7637556e-33
2.7637507e-33
2.7637493e-33
2.7637499e-33
2.7637526e-33
2.7637591e-33
2.7638783e-33
2.7637922e-33
2.7637444e-33
2.7637196e-33
2.7637078e-33
2.763703e-33
2.7637016e-33
2.7637024e-33
2.7637055e-33
2.7637126e-33
2.7638535e-33
2.7637673e-33
2.7637196e-33
2.7636948e-33
2.763683e-33
2.7636782e-33
2.7636769e-33
2.7636778e-33
2.7636811e-33
2.7636884e-33
2.7638417e-33
2.7637556e-33
2.7637078e-33
2.763683e-33
2.7636713e-33
2.7636665e-33
2.7636653e-33
2.7636662e-33
2.7636696e-33
2.7636769e-33
2.7638368e-33
2.7637507e-33
2.763703e-33
2.7636782e-33
2.7636665e-33
2.7636617e-33
2.7636605e-33
2.7636615e-33
2.7636648e-33
2.7636723e-33
2.7638353e-33
2.7637493e-33
2.7637016e-33
2.7636769e-33
2.7636653e-33
2.7636605e-33
2.7636593e-33
2.7636603e-33
2.7636636e-33
2.7636711e-33
2.7638357e-33
2.7637499e-33
2.7637024e-33
2.7636778e-33
2.7636662e-33
2.7636615e-33
2.7636603e-33
2.7636613e-33
2.7636647e-33
2.7636721e-33
2.7638378e-33
2.7637526e-33
2.7637055e-33
2.7636811e-33
2.7636696e-33
2.7636648e-33
2.7636636e-33
2.7636647e-33
2.7636681e-33
2.7636755e-33
2.7638426e-33
2.7637591e-33
2.7637126e-33
2.7636884e-33
2.7636769e-33
2.7636723e-33
2.7636711e-33
2.7636721e-33
2.7636755e-33
2.7636829e-33
1.0184609e-32
1.0184303e-32
1.0184133e-32
1.0184045e-32
1.0184003e-32
1.0183985e-32
1.018398e-32
1.0183981e-32
1.0183989e-32
1.0184006e-32
1.0184303e-32
1.0183998e-32
1.0183828e-32
1.0183739e-32
1.0183697e-32
1.018368e-32
1.0183675e-32
1.0183677e-32
1.0183687e-32
1.018371e-32
1.0184133e-32
1.0183828e-32
1.0183658e-32
1.0183569e-32
1.0183527e-32
1.018351e-32
1.0183505e-32
1.0183508e-32
1.0183519e-32
1.0183544e-32
1.0184045e-32
1.0183739e-32
1.0183569e-32
1.0183481e-32
1.0183439e-32
1.0183422e-32
1.0183417e-32
1.0183421e-32
1.0183432e-32
1.0183458e-32
1.0184003e-32
1.0183697e-32
1.0183527e-32
1.0183439e-32
1.0183397e-32
1.018338e-32
1.0183376e-32
1.0183379e-32
1.0183391e-32
1.0183417e-32
1.0183985e-32
1.018368e-32
1.018351e-32
1.0183422e-32
1.018338e-32
1.0183363e-32
1.0183359e-32
1.0183362e-32
1.0183374e-32
1.0183401e-32
1.018398e-32
1.0183675e-32
1.0183505e-32
1.0183417e-32
1.0183376e-32
1.0183359e-32
1.0183354e-32
1.0183358e-32
1.018337e-32
1.0183396e-32
1.0183981e-32
1.0183677e-32
1.0183508e-32
1.0183421e-32
1.0183379e-32
1.0183362e-32
1.0183358e-32
1.0183362e-32
1.0183374e-32
1.01834e-32
1.0183989e-32
1.0183687e-32
1.0183519e-32
1.0183432e-32
1.0183391e-32
1.0183374e-32
1.018337e-32
1.0183374e-32
1.0183386e-32
1.0183412e-32
1.0184006e-32
1.018371e-32
1.0183544e-32
1.0183458e-32
1.0183417e-32
1.0183401e-32
1.0183396e-32
1.01834e-32
1.0183412e-32
1.0183439e-32
3.8164223e-32
3.8163122e-32
3.8162507e-32
3.8162187e-32
3.8162035e-32
3.8161971e-32
3.8161952e-32
3.8161957e-32
3.8161985e-32
3.8162044e-32
3.8163122e-32
3.8162021e-32
3.8161407e-32
3.8161087e-32
3.8160935e-32
3.8160871e-32
3.8160853e-32
3.8160861e-32
3.8160896e-32
3.8160979e-32
3.8162507e-32
3.8161407e-32
3.8160792e-32
3.8160472e-32
3.8160321e-32
3.8160258e-32
3.8160241e-32
3.8160251e-32
3.8160291e-32
3.8160381e-32
3.8162187e-32
3.8161087e-32
3.8160472e-32
3.8160152e-32
3.8160001e-32
3.8159939e-32
3.8159922e-32
3.8159934e-32
3.8159976e-32
3.816007e-32
3.8162035e-32
3.8160935e-32
3.8160321e-32
3.8160001e-32
3.815985e-32
3.8159788e-32
3.8159772e-32
3.8159785e-32
3.8159828e-32
3.8159922e-32
3.8161971e-32
3.8160871e-32
3.8160258e-32
3.8159939e-32
3.8159788e-32
3.8159726e-32
3.815971e-32
3.8159723e-32
3.8159767e-32
3.8159861e-32
3.8161952e-32
3.8160853e-32
3.8160241e-32
3.8159922e-32
3.8159772e-32
3.815971e-32
3.8159694e-32
3.8159708e-32
3.8159752e-32
3.8159846e-32
3.8161957e-32
3.8160861e-32
3.8160251e-32
3.8159934e-32
3.8159785e-32
3.8159723e-32
3.8159708e-32
3.8159721e-32
3.8159765e-32
3.815986e-32
3.8161985e-32
3.8160896e-32
3.8160291e-32
3.8159976e-32
3.8159828e-32
3.8159767e-32
3.8159752e-32
3.8159765e-32
3.8159809e-32
3.8159904e-32
3.8162044e-32
3.8160979e-32
3.8160381e-32
3.816007e-32
3.8159922e-32
3.8159861e-32
3.8159846e-32
3.815986e-32
3.8159904e-32