/*--------------------------------*- C++ -*----------------------------------*\
| =========                 |                                                 |
| \\      /  F ield         | OpenFOAM: The Open Source CFD Toolbox           |
|  \\    /   O peration     | Version:  dev                                   |
|   \\  /    A nd           | Web:      www.OpenFOAM.org                      |
|    \\/     M anipulation  |                                                 |
\*---------------------------------------------------------------------------*/
FoamFile
{
    version     2.0;
    format      ascii;
    class       volScalarField;
    location    "32";
    object      A_0;
}
// * * * * * * * * * * * * * * * * * * * * * * * * * * * * * * * * * * * * * //

dimensions      [0 0 0 0 1 0 0];

internalField   nonuniform List<scalar> 
10000
(
2.0278183e-42
2.0277023e-42
2.0276434e-42
2.0276139e-42
2.0276001e-42
2.0275944e-42
2.0275926e-42
2.0275931e-42
2.0275961e-42
2.0276045e-42
2.0277023e-42
2.0275864e-42
2.0275275e-42
2.027498e-42
2.0274842e-42
2.0274785e-42
2.0274768e-42
2.0274775e-42
2.0274811e-42
2.0274911e-42
2.0276434e-42
2.0275275e-42
2.0274686e-42
2.0274391e-42
2.0274254e-42
2.0274197e-42
2.0274181e-42
2.027419e-42
2.0274228e-42
2.0274334e-42
2.0276139e-42
2.027498e-42
2.0274391e-42
2.0274096e-42
2.0273959e-42
2.0273903e-42
2.0273887e-42
2.0273897e-42
2.0273937e-42
2.0274044e-42
2.0276001e-42
2.0274842e-42
2.0274254e-42
2.0273959e-42
2.0273822e-42
2.0273766e-42
2.0273751e-42
2.0273761e-42
2.0273802e-42
2.027391e-42
2.0275944e-42
2.0274785e-42
2.0274197e-42
2.0273903e-42
2.0273766e-42
2.027371e-42
2.0273695e-42
2.0273705e-42
2.0273747e-42
2.0273855e-42
2.0275926e-42
2.0274768e-42
2.0274181e-42
2.0273887e-42
2.0273751e-42
2.0273695e-42
2.0273679e-42
2.027369e-42
2.0273732e-42
2.027384e-42
2.0275931e-42
2.0274775e-42
2.027419e-42
2.0273897e-42
2.0273761e-42
2.0273705e-42
2.027369e-42
2.02737e-42
2.0273742e-42
2.0273851e-42
2.0275961e-42
2.0274811e-42
2.0274228e-42
2.0273937e-42
2.0273802e-42
2.0273747e-42
2.0273732e-42
2.0273742e-42
2.0273784e-42
2.0273892e-42
2.0276045e-42
2.0274911e-42
2.0274334e-42
2.0274044e-42
2.027391e-42
2.0273855e-42
2.027384e-42
2.0273851e-42
2.0273892e-42
2.0274001e-42
8.2986778e-42
8.2982183e-42
8.2979809e-42
8.2978617e-42
8.2978061e-42
8.297783e-42
8.2977758e-42
8.2977778e-42
8.2977899e-42
8.297825e-42
8.2982183e-42
8.2977591e-42
8.2975217e-42
8.2974026e-42
8.297347e-42
8.297324e-42
8.2973171e-42
8.2973198e-42
8.2973341e-42
8.2973757e-42
8.2979809e-42
8.2975217e-42
8.2972844e-42
8.2971652e-42
8.2971098e-42
8.2970869e-42
8.2970803e-42
8.2970837e-42
8.2970994e-42
8.2971432e-42
8.2978617e-42
8.2974026e-42
8.2971652e-42
8.2970461e-42
8.2969907e-42
8.2969679e-42
8.2969615e-42
8.2969654e-42
8.2969818e-42
8.2970264e-42
8.2978061e-42
8.297347e-42
8.2971098e-42
8.2969907e-42
8.2969354e-42
8.2969126e-42
8.2969063e-42
8.2969104e-42
8.2969271e-42
8.296972e-42
8.297783e-42
8.297324e-42
8.2970869e-42
8.2969679e-42
8.2969126e-42
8.2968899e-42
8.2968837e-42
8.2968879e-42
8.2969048e-42
8.2969497e-42
8.2977758e-42
8.2973171e-42
8.2970803e-42
8.2969615e-42
8.2969063e-42
8.2968837e-42
8.2968776e-42
8.2968819e-42
8.2968987e-42
8.2969437e-42
8.2977778e-42
8.2973198e-42
8.2970837e-42
8.2969654e-42
8.2969104e-42
8.2968879e-42
8.2968819e-42
8.2968861e-42
8.296903e-42
8.296948e-42
8.2977899e-42
8.2973341e-42
8.2970994e-42
8.2969818e-42
8.2969271e-42
8.2969048e-42
8.2968987e-42
8.296903e-42
8.2969199e-42
8.2969649e-42
8.297825e-42
8.2973757e-42
8.2971432e-42
8.2970264e-42
8.296972e-42
8.2969497e-42
8.2969437e-42
8.296948e-42
8.2969649e-42
8.2970099e-42
2.3951937e-41
2.395065e-41
2.394998e-41
2.3949643e-41
2.3949486e-41
2.394942e-41
2.39494e-41
2.3949405e-41
2.3949439e-41
2.3949539e-41
2.395065e-41
2.3949364e-41
2.3948694e-41
2.3948357e-41
2.39482e-41
2.3948135e-41
2.3948115e-41
2.3948123e-41
2.3948163e-41
2.3948281e-41
2.394998e-41
2.3948694e-41
2.3948024e-41
2.3947687e-41
2.394753e-41
2.3947466e-41
2.3947447e-41
2.3947457e-41
2.3947501e-41
2.3947625e-41
2.3949643e-41
2.3948357e-41
2.3947687e-41
2.3947351e-41
2.3947194e-41
2.3947129e-41
2.3947111e-41
2.3947122e-41
2.3947168e-41
2.3947295e-41
2.3949486e-41
2.39482e-41
2.394753e-41
2.3947194e-41
2.3947037e-41
2.3946973e-41
2.3946955e-41
2.3946967e-41
2.3947014e-41
2.3947141e-41
2.394942e-41
2.3948135e-41
2.3947466e-41
2.3947129e-41
2.3946973e-41
2.3946909e-41
2.3946891e-41
2.3946903e-41
2.394695e-41
2.3947078e-41
2.39494e-41
2.3948115e-41
2.3947447e-41
2.3947111e-41
2.3946955e-41
2.3946891e-41
2.3946874e-41
2.3946886e-41
2.3946933e-41
2.3947061e-41
2.3949405e-41
2.3948123e-41
2.3947457e-41
2.3947122e-41
2.3946967e-41
2.3946903e-41
2.3946886e-41
2.3946898e-41
2.3946945e-41
2.3947073e-41
2.3949439e-41
2.3948163e-41
2.3947501e-41
2.3947168e-41
2.3947014e-41
2.394695e-41
2.3946933e-41
2.3946945e-41
2.3946993e-41
2.3947121e-41
2.3949539e-41
2.3948281e-41
2.3947625e-41
2.3947295e-41
2.3947141e-41
2.3947078e-41
2.3947061e-41
2.3947073e-41
2.3947121e-41
2.3947248e-41
6.7622099e-41
6.7618576e-41
6.7616733e-41
6.7615803e-41
6.7615369e-41
6.7615188e-41
6.7615131e-41
6.7615146e-41
6.7615238e-41
6.7615506e-41
6.7618576e-41
6.7615054e-41
6.7613211e-41
6.7612282e-41
6.7611848e-41
6.7611668e-41
6.7611614e-41
6.7611635e-41
6.7611744e-41
6.7612064e-41
6.7616733e-41
6.7613211e-41
6.7611368e-41
6.7610439e-41
6.7610006e-41
6.7609827e-41
6.7609775e-41
6.7609802e-41
6.7609923e-41
6.761026e-41
6.7615803e-41
6.7612282e-41
6.7610439e-41
6.760951e-41
6.7609077e-41
6.7608899e-41
6.7608849e-41
6.760888e-41
6.7609006e-41
6.7609349e-41
6.7615369e-41
6.7611848e-41
6.7610006e-41
6.7609077e-41
6.7608645e-41
6.7608467e-41
6.7608418e-41
6.760845e-41
6.7608579e-41
6.7608925e-41
6.7615188e-41
6.7611668e-41
6.7609827e-41
6.7608899e-41
6.7608467e-41
6.760829e-41
6.7608241e-41
6.7608274e-41
6.7608404e-41
6.760875e-41
6.7615131e-41
6.7611614e-41
6.7609775e-41
6.7608849e-41
6.7608418e-41
6.7608241e-41
6.7608194e-41
6.7608227e-41
6.7608357e-41
6.7608704e-41
6.7615146e-41
6.7611635e-41
6.7609802e-41
6.760888e-41
6.760845e-41
6.7608274e-41
6.7608227e-41
6.760826e-41
6.7608391e-41
6.7608737e-41
6.7615238e-41
6.7611744e-41
6.7609923e-41
6.7609006e-41
6.7608579e-41
6.7608404e-41
6.7608357e-41
6.7608391e-41
6.7608521e-41
6.7608868e-41
6.7615506e-41
6.7612064e-41
6.761026e-41
6.7609349e-41
6.7608925e-41
6.760875e-41
6.7608704e-41
6.7608737e-41
6.7608868e-41
6.7609215e-41
1.9318221e-40
1.9317245e-40
1.9316732e-40
1.9316473e-40
1.9316352e-40
1.9316302e-40
1.9316286e-40
1.931629e-40
1.9316315e-40
1.9316388e-40
1.9317245e-40
1.931627e-40
1.9315757e-40
1.9315498e-40
1.9315377e-40
1.9315327e-40
1.9315312e-40
1.9315318e-40
1.9315348e-40
1.9315435e-40
1.9316732e-40
1.9315757e-40
1.9315245e-40
1.9314986e-40
1.9314865e-40
1.9314815e-40
1.93148e-40
1.9314808e-40
1.9314841e-40
1.9314933e-40
1.9316473e-40
1.9315498e-40
1.9314986e-40
1.9314727e-40
1.9314606e-40
1.9314556e-40
1.9314542e-40
1.9314551e-40
1.9314586e-40
1.9314679e-40
1.9316352e-40
1.9315377e-40
1.9314865e-40
1.9314606e-40
1.9314485e-40
1.9314435e-40
1.9314422e-40
1.9314431e-40
1.9314466e-40
1.9314561e-40
1.9316302e-40
1.9315327e-40
1.9314815e-40
1.9314556e-40
1.9314435e-40
1.9314386e-40
1.9314372e-40
1.9314382e-40
1.9314418e-40
1.9314512e-40
1.9316286e-40
1.9315312e-40
1.93148e-40
1.9314542e-40
1.9314422e-40
1.9314372e-40
1.9314359e-40
1.9314368e-40
1.9314404e-40
1.9314499e-40
1.931629e-40
1.9315318e-40
1.9314808e-40
1.9314551e-40
1.9314431e-40
1.9314382e-40
1.9314368e-40
1.9314378e-40
1.9314414e-40
1.9314509e-40
1.9316315e-40
1.9315348e-40
1.9314841e-40
1.9314586e-40
1.9314466e-40
1.9314418e-40
1.9314404e-40
1.9314414e-40
1.931445e-40
1.9314545e-40
1.9316388e-40
1.9315435e-40
1.9314933e-40
1.9314679e-40
1.9314561e-40
1.9314512e-40
1.9314499e-40
1.9314509e-40
1.9314545e-40
1.931464e-40
5.6087537e-40
5.6084792e-40
5.6083343e-40
5.6082609e-40
5.6082265e-40
5.6082122e-40
5.6082077e-40
5.6082089e-40
5.6082159e-40
5.6082359e-40
5.6084792e-40
5.6082048e-40
5.6080599e-40
5.6079865e-40
5.6079522e-40
5.6079379e-40
5.6079337e-40
5.6079353e-40
5.6079438e-40
5.6079679e-40
5.6083343e-40
5.6080599e-40
5.607915e-40
5.6078417e-40
5.6078074e-40
5.6077932e-40
5.6077891e-40
5.6077913e-40
5.6078006e-40
5.6078262e-40
5.6082609e-40
5.6079865e-40
5.6078417e-40
5.6077684e-40
5.6077341e-40
5.60772e-40
5.607716e-40
5.6077184e-40
5.6077283e-40
5.6077543e-40
5.6082265e-40
5.6079522e-40
5.6078074e-40
5.6077341e-40
5.6076999e-40
5.6076858e-40
5.6076819e-40
5.6076845e-40
5.6076945e-40
5.6077207e-40
5.6082122e-40
5.6079379e-40
5.6077932e-40
5.60772e-40
5.6076858e-40
5.6076718e-40
5.607668e-40
5.6076706e-40
5.6076807e-40
5.607707e-40
5.6082077e-40
5.6079337e-40
5.6077891e-40
5.607716e-40
5.6076819e-40
5.607668e-40
5.6076642e-40
5.6076668e-40
5.607677e-40
5.6077033e-40
5.6082089e-40
5.6079353e-40
5.6077913e-40
5.6077184e-40
5.6076845e-40
5.6076706e-40
5.6076668e-40
5.6076695e-40
5.6076796e-40
5.607706e-40
5.6082159e-40
5.6079438e-40
5.6078006e-40
5.6077283e-40
5.6076945e-40
5.6076807e-40
5.607677e-40
5.6076796e-40
5.6076898e-40
5.6077161e-40
5.6082359e-40
5.6079679e-40
5.6078262e-40
5.6077543e-40
5.6077207e-40
5.607707e-40
5.6077033e-40
5.607706e-40
5.6077161e-40
5.6077424e-40
1.6559635e-39
1.655885e-39
1.6558433e-39
1.6558222e-39
1.6558123e-39
1.6558082e-39
1.6558069e-39
1.6558072e-39
1.6558092e-39
1.6558148e-39
1.655885e-39
1.6558065e-39
1.6557649e-39
1.6557438e-39
1.6557339e-39
1.6557298e-39
1.6557285e-39
1.655729e-39
1.6557314e-39
1.6557382e-39
1.6558433e-39
1.6557649e-39
1.6557233e-39
1.6557022e-39
1.6556923e-39
1.6556882e-39
1.655687e-39
1.6556876e-39
1.6556903e-39
1.6556975e-39
1.6558222e-39
1.6557438e-39
1.6557022e-39
1.655681e-39
1.6556712e-39
1.6556671e-39
1.655666e-39
1.6556667e-39
1.6556695e-39
1.6556768e-39
1.6558123e-39
1.6557339e-39
1.6556923e-39
1.6556712e-39
1.6556613e-39
1.6556573e-39
1.6556562e-39
1.6556569e-39
1.6556598e-39
1.6556672e-39
1.6558082e-39
1.6557298e-39
1.6556882e-39
1.6556671e-39
1.6556573e-39
1.6556532e-39
1.6556521e-39
1.6556529e-39
1.6556558e-39
1.6556632e-39
1.6558069e-39
1.6557285e-39
1.655687e-39
1.655666e-39
1.6556562e-39
1.6556521e-39
1.655651e-39
1.6556518e-39
1.6556547e-39
1.6556621e-39
1.6558072e-39
1.655729e-39
1.6556876e-39
1.6556667e-39
1.6556569e-39
1.6556529e-39
1.6556518e-39
1.6556526e-39
1.6556555e-39
1.6556629e-39
1.6558092e-39
1.6557314e-39
1.6556903e-39
1.6556695e-39
1.6556598e-39
1.6556558e-39
1.6556547e-39
1.6556555e-39
1.6556584e-39
1.6556658e-39
1.6558148e-39
1.6557382e-39
1.6556975e-39
1.6556768e-39
1.6556672e-39
1.6556632e-39
1.6556621e-39
1.6556629e-39
1.6556658e-39
1.6556733e-39
4.9725429e-39
4.9723146e-39
4.9721931e-39
4.9721313e-39
4.9721023e-39
4.9720902e-39
4.9720864e-39
4.9720874e-39
4.9720932e-39
4.972109e-39
4.9723146e-39
4.9720865e-39
4.971965e-39
4.9719032e-39
4.9718742e-39
4.9718622e-39
4.9718586e-39
4.97186e-39
4.971867e-39
4.9718864e-39
4.9721931e-39
4.971965e-39
4.9718435e-39
4.9717817e-39
4.9717528e-39
4.9717408e-39
4.9717374e-39
4.9717392e-39
4.971747e-39
4.9717676e-39
4.9721313e-39
4.9719032e-39
4.9717817e-39
4.97172e-39
4.9716911e-39
4.9716792e-39
4.9716758e-39
4.9716779e-39
4.9716861e-39
4.9717072e-39
4.9721023e-39
4.9718742e-39
4.9717528e-39
4.9716911e-39
4.9716622e-39
4.9716503e-39
4.9716471e-39
4.9716492e-39
4.9716576e-39
4.9716788e-39
4.9720902e-39
4.9718622e-39
4.9717408e-39
4.9716792e-39
4.9716503e-39
4.9716385e-39
4.9716353e-39
4.9716375e-39
4.9716459e-39
4.9716672e-39
4.9720864e-39
4.9718586e-39
4.9717374e-39
4.9716758e-39
4.9716471e-39
4.9716353e-39
4.9716321e-39
4.9716344e-39
4.9716428e-39
4.9716641e-39
4.9720874e-39
4.97186e-39
4.9717392e-39
4.9716779e-39
4.9716492e-39
4.9716375e-39
4.9716344e-39
4.9716366e-39
4.9716451e-39
4.9716664e-39
4.9720932e-39
4.971867e-39
4.971747e-39
4.9716861e-39
4.9716576e-39
4.9716459e-39
4.9716428e-39
4.9716451e-39
4.9716535e-39
4.9716749e-39
4.972109e-39
4.9718864e-39
4.9717676e-39
4.9717072e-39
4.9716788e-39
4.9716672e-39
4.9716641e-39
4.9716664e-39
4.9716749e-39
4.9716962e-39
1.5187275e-38
1.51866e-38
1.5186239e-38
1.5186055e-38
1.5185969e-38
1.5185933e-38
1.5185922e-38
1.5185925e-38
1.5185942e-38
1.5185987e-38
1.51866e-38
1.5185925e-38
1.5185565e-38
1.5185381e-38
1.5185295e-38
1.5185259e-38
1.5185248e-38
1.5185252e-38
1.5185273e-38
1.518533e-38
1.5186239e-38
1.5185565e-38
1.5185204e-38
1.5185021e-38
1.5184934e-38
1.5184899e-38
1.5184889e-38
1.5184894e-38
1.5184917e-38
1.5184977e-38
1.5186055e-38
1.5185381e-38
1.5185021e-38
1.5184837e-38
1.5184751e-38
1.5184715e-38
1.5184705e-38
1.5184712e-38
1.5184736e-38
1.5184797e-38
1.5185969e-38
1.5185295e-38
1.5184934e-38
1.5184751e-38
1.5184665e-38
1.5184629e-38
1.518462e-38
1.5184626e-38
1.5184651e-38
1.5184713e-38
1.5185933e-38
1.5185259e-38
1.5184899e-38
1.5184715e-38
1.5184629e-38
1.5184594e-38
1.5184585e-38
1.5184591e-38
1.5184616e-38
1.5184679e-38
1.5185922e-38
1.5185248e-38
1.5184889e-38
1.5184705e-38
1.518462e-38
1.5184585e-38
1.5184575e-38
1.5184582e-38
1.5184607e-38
1.5184669e-38
1.5185925e-38
1.5185252e-38
1.5184894e-38
1.5184712e-38
1.5184626e-38
1.5184591e-38
1.5184582e-38
1.5184589e-38
1.5184614e-38
1.5184676e-38
1.5185942e-38
1.5185273e-38
1.5184917e-38
1.5184736e-38
1.5184651e-38
1.5184616e-38
1.5184607e-38
1.5184614e-38
1.5184639e-38
1.5184701e-38
1.5185987e-38
1.518533e-38
1.5184977e-38
1.5184797e-38
1.5184713e-38
1.5184679e-38
1.5184669e-38
1.5184676e-38
1.5184701e-38
1.5184764e-38
4.7182169e-38
4.7180141e-38
4.7179052e-38
4.7178497e-38
4.7178235e-38
4.7178126e-38
4.7178092e-38
4.7178101e-38
4.7178152e-38
4.7178286e-38
4.7180141e-38
4.7178114e-38
4.7177026e-38
4.717647e-38
4.7176209e-38
4.71761e-38
4.7176068e-38
4.7176081e-38
4.7176143e-38
4.7176311e-38
4.7179052e-38
4.7177026e-38
4.7175938e-38
4.7175382e-38
4.7175121e-38
4.7175013e-38
4.7174983e-38
4.7174999e-38
4.7175068e-38
4.7175247e-38
4.7178497e-38
4.717647e-38
4.7175382e-38
4.7174827e-38
4.7174566e-38
4.7174459e-38
4.7174429e-38
4.7174448e-38
4.7174521e-38
4.7174704e-38
4.7178235e-38
4.7176209e-38
4.7175121e-38
4.7174566e-38
4.7174306e-38
4.7174199e-38
4.717417e-38
4.717419e-38
4.7174264e-38
4.7174449e-38
4.7178126e-38
4.71761e-38
4.7175013e-38
4.7174459e-38
4.7174199e-38
4.7174092e-38
4.7174064e-38
4.7174084e-38
4.7174159e-38
4.7174344e-38
4.7178092e-38
4.7176068e-38
4.7174983e-38
4.7174429e-38
4.717417e-38
4.7174064e-38
4.7174035e-38
4.7174056e-38
4.7174131e-38
4.7174316e-38
4.7178101e-38
4.7176081e-38
4.7174999e-38
4.7174448e-38
4.717419e-38
4.7174084e-38
4.7174056e-38
4.7174076e-38
4.7174152e-38
4.7174337e-38
4.7178152e-38
4.7176143e-38
4.7175068e-38
4.7174521e-38
4.7174264e-38
4.7174159e-38
4.7174131e-38
4.7174152e-38
4.7174227e-38
4.7174413e-38
4.7178286e-38
4.7176311e-38
4.7175247e-38
4.7174704e-38
4.7174449e-38
4.7174344e-38
4.7174316e-38
4.7174337e-38
4.7174413e-38
4.7174598e-38
1.4910468e-37
1.4909849e-37
1.4909515e-37
1.4909344e-37
1.4909263e-37
1.490923e-37
1.4909219e-37
1.4909222e-37
1.4909237e-37
1.4909278e-37
1.4909849e-37
1.4909229e-37
1.4908895e-37
1.4908725e-37
1.4908644e-37
1.4908611e-37
1.4908601e-37
1.4908605e-37
1.4908624e-37
1.4908674e-37
1.4909515e-37
1.4908895e-37
1.4908561e-37
1.4908391e-37
1.490831e-37
1.4908277e-37
1.4908268e-37
1.4908273e-37
1.4908294e-37
1.4908348e-37
1.4909344e-37
1.4908725e-37
1.4908391e-37
1.490822e-37
1.490814e-37
1.4908107e-37
1.4908098e-37
1.4908103e-37
1.4908126e-37
1.4908181e-37
1.4909263e-37
1.4908644e-37
1.490831e-37
1.490814e-37
1.490806e-37
1.4908027e-37
1.4908018e-37
1.4908024e-37
1.4908047e-37
1.4908103e-37
1.490923e-37
1.4908611e-37
1.4908277e-37
1.4908107e-37
1.4908027e-37
1.4907994e-37
1.4907985e-37
1.4907991e-37
1.4908014e-37
1.4908071e-37
1.4909219e-37
1.4908601e-37
1.4908268e-37
1.4908098e-37
1.4908018e-37
1.4907985e-37
1.4907976e-37
1.4907983e-37
1.4908006e-37
1.4908062e-37
1.4909222e-37
1.4908605e-37
1.4908273e-37
1.4908103e-37
1.4908024e-37
1.4907991e-37
1.4907983e-37
1.4907989e-37
1.4908012e-37
1.4908068e-37
1.4909237e-37
1.4908624e-37
1.4908294e-37
1.4908126e-37
1.4908047e-37
1.4908014e-37
1.4908006e-37
1.4908012e-37
1.4908036e-37
1.4908092e-37
1.4909278e-37
1.4908674e-37
1.4908348e-37
1.4908181e-37
1.4908103e-37
1.4908071e-37
1.4908062e-37
1.4908068e-37
1.4908092e-37
1.4908148e-37
4.793293e-37
4.7931004e-37
4.7929963e-37
4.7929429e-37
4.7929177e-37
4.7929072e-37
4.7929039e-37
4.7929048e-37
4.7929096e-37
4.7929218e-37
4.7931004e-37
4.792908e-37
4.7928038e-37
4.7927505e-37
4.7927253e-37
4.7927149e-37
4.7927117e-37
4.792713e-37
4.7927189e-37
4.7927344e-37
4.7929963e-37
4.7928038e-37
4.7926997e-37
4.7926463e-37
4.7926212e-37
4.7926108e-37
4.7926079e-37
4.7926095e-37
4.7926161e-37
4.7926327e-37
4.7929429e-37
4.7927505e-37
4.7926463e-37
4.792593e-37
4.7925679e-37
4.7925576e-37
4.7925547e-37
4.7925565e-37
4.7925635e-37
4.7925806e-37
4.7929177e-37
4.7927253e-37
4.7926212e-37
4.7925679e-37
4.7925428e-37
4.7925325e-37
4.7925298e-37
4.7925317e-37
4.7925388e-37
4.792556e-37
4.7929072e-37
4.7927149e-37
4.7926108e-37
4.7925576e-37
4.7925325e-37
4.7925223e-37
4.7925195e-37
4.7925215e-37
4.7925287e-37
4.792546e-37
4.7929039e-37
4.7927117e-37
4.7926079e-37
4.7925547e-37
4.7925298e-37
4.7925195e-37
4.7925168e-37
4.7925188e-37
4.792526e-37
4.7925433e-37
4.7929048e-37
4.792713e-37
4.7926095e-37
4.7925565e-37
4.7925317e-37
4.7925215e-37
4.7925188e-37
4.7925209e-37
4.7925281e-37
4.7925454e-37
4.7929096e-37
4.7927189e-37
4.7926161e-37
4.7925635e-37
4.7925388e-37
4.7925287e-37
4.792526e-37
4.7925281e-37
4.7925353e-37
4.7925526e-37
4.7929218e-37
4.7927344e-37
4.7926327e-37
4.7925806e-37
4.792556e-37
4.792546e-37
4.7925433e-37
4.7925454e-37
4.7925526e-37
4.7925699e-37
1.5675275e-36
1.5674666e-36
1.5674336e-36
1.5674166e-36
1.5674086e-36
1.5674053e-36
1.5674043e-36
1.5674045e-36
1.567406e-36
1.5674098e-36
1.5674666e-36
1.5674058e-36
1.5673728e-36
1.5673559e-36
1.5673479e-36
1.5673445e-36
1.5673435e-36
1.5673439e-36
1.5673458e-36
1.5673507e-36
1.5674336e-36
1.5673728e-36
1.5673398e-36
1.5673228e-36
1.5673148e-36
1.5673115e-36
1.5673106e-36
1.5673111e-36
1.5673132e-36
1.5673184e-36
1.5674166e-36
1.5673559e-36
1.5673228e-36
1.5673059e-36
1.5672979e-36
1.5672946e-36
1.5672937e-36
1.5672943e-36
1.5672965e-36
1.5673019e-36
1.5674086e-36
1.5673479e-36
1.5673148e-36
1.5672979e-36
1.5672899e-36
1.5672867e-36
1.5672858e-36
1.5672864e-36
1.5672887e-36
1.5672941e-36
1.5674053e-36
1.5673445e-36
1.5673115e-36
1.5672946e-36
1.5672867e-36
1.5672834e-36
1.5672825e-36
1.5672832e-36
1.5672854e-36
1.5672908e-36
1.5674043e-36
1.5673435e-36
1.5673106e-36
1.5672937e-36
1.5672858e-36
1.5672825e-36
1.5672817e-36
1.5672823e-36
1.5672846e-36
1.56729e-36
1.5674045e-36
1.5673439e-36
1.5673111e-36
1.5672943e-36
1.5672864e-36
1.5672832e-36
1.5672823e-36
1.567283e-36
1.5672853e-36
1.5672907e-36
1.567406e-36
1.5673458e-36
1.5673132e-36
1.5672965e-36
1.5672887e-36
1.5672854e-36
1.5672846e-36
1.5672853e-36
1.5672875e-36
1.567293e-36
1.5674098e-36
1.5673507e-36
1.5673184e-36
1.5673019e-36
1.5672941e-36
1.5672908e-36
1.56729e-36
1.5672907e-36
1.567293e-36
1.5672984e-36
5.214816e-36
5.2146206e-36
5.2145141e-36
5.2144593e-36
5.2144334e-36
5.2144226e-36
5.2144193e-36
5.2144202e-36
5.214425e-36
5.2144369e-36
5.2146206e-36
5.2144253e-36
5.2143188e-36
5.214264e-36
5.2142382e-36
5.2142274e-36
5.2142243e-36
5.2142255e-36
5.2142315e-36
5.214247e-36
5.2145141e-36
5.2143188e-36
5.2142124e-36
5.2141576e-36
5.2141318e-36
5.2141211e-36
5.2141181e-36
5.2141197e-36
5.2141265e-36
5.2141431e-36
5.2144593e-36
5.214264e-36
5.2141576e-36
5.2141028e-36
5.214077e-36
5.2140664e-36
5.2140635e-36
5.2140654e-36
5.2140725e-36
5.2140896e-36
5.2144334e-36
5.2142382e-36
5.2141318e-36
5.214077e-36
5.2140513e-36
5.2140407e-36
5.2140379e-36
5.2140399e-36
5.2140472e-36
5.2140644e-36
5.2144226e-36
5.2142274e-36
5.2141211e-36
5.2140664e-36
5.2140407e-36
5.2140301e-36
5.2140274e-36
5.2140294e-36
5.2140368e-36
5.214054e-36
5.2144193e-36
5.2142243e-36
5.2141181e-36
5.2140635e-36
5.2140379e-36
5.2140274e-36
5.2140246e-36
5.2140267e-36
5.2140341e-36
5.2140513e-36
5.2144202e-36
5.2142255e-36
5.2141197e-36
5.2140654e-36
5.2140399e-36
5.2140294e-36
5.2140267e-36
5.2140288e-36
5.2140362e-36
5.2140535e-36
5.214425e-36
5.2142315e-36
5.2141265e-36
5.2140725e-36
5.2140472e-36
5.2140368e-36
5.2140341e-36
5.2140362e-36
5.2140436e-36
5.2140609e-36
5.2144369e-36
5.214247e-36
5.2141431e-36
5.2140896e-36
5.2140644e-36
5.214054e-36
5.2140513e-36
5.2140535e-36
5.2140609e-36
5.2140781e-36
1.7648359e-35
1.7647721e-35
1.7647372e-35
1.7647192e-35
1.7647107e-35
1.7647071e-35
1.764706e-35
1.7647063e-35
1.7647079e-35
1.7647117e-35
1.7647721e-35
1.7647083e-35
1.7646734e-35
1.7646554e-35
1.7646469e-35
1.7646434e-35
1.7646423e-35
1.7646428e-35
1.7646447e-35
1.7646497e-35
1.7647372e-35
1.7646734e-35
1.7646385e-35
1.7646205e-35
1.764612e-35
1.7646085e-35
1.7646075e-35
1.7646081e-35
1.7646103e-35
1.7646157e-35
1.7647192e-35
1.7646554e-35
1.7646205e-35
1.7646025e-35
1.764594e-35
1.7645906e-35
1.7645896e-35
1.7645902e-35
1.7645926e-35
1.7645981e-35
1.7647107e-35
1.7646469e-35
1.764612e-35
1.764594e-35
1.7645856e-35
1.7645821e-35
1.7645812e-35
1.7645819e-35
1.7645842e-35
1.7645898e-35
1.7647071e-35
1.7646434e-35
1.7646085e-35
1.7645906e-35
1.7645821e-35
1.7645786e-35
1.7645777e-35
1.7645784e-35
1.7645808e-35
1.7645864e-35
1.764706e-35
1.7646423e-35
1.7646075e-35
1.7645896e-35
1.7645812e-35
1.7645777e-35
1.7645768e-35
1.7645775e-35
1.7645799e-35
1.7645855e-35
1.7647063e-35
1.7646428e-35
1.7646081e-35
1.7645902e-35
1.7645819e-35
1.7645784e-35
1.7645775e-35
1.7645782e-35
1.7645806e-35
1.7645862e-35
1.7647079e-35
1.7646447e-35
1.7646103e-35
1.7645926e-35
1.7645842e-35
1.7645808e-35
1.7645799e-35
1.7645806e-35
1.7645831e-35
1.7645887e-35
1.7647117e-35
1.7646497e-35
1.7646157e-35
1.7645981e-35
1.7645898e-35
1.7645864e-35
1.7645855e-35
1.7645862e-35
1.7645887e-35
1.7645943e-35
6.0758144e-35
6.0756025e-35
6.0754862e-35
6.0754261e-35
6.0753977e-35
6.0753858e-35
6.0753821e-35
6.0753831e-35
6.0753883e-35
6.0754007e-35
6.0756025e-35
6.0753907e-35
6.0752744e-35
6.0752143e-35
6.0751859e-35
6.0751741e-35
6.0751706e-35
6.0751721e-35
6.0751786e-35
6.075195e-35
6.0754862e-35
6.0752744e-35
6.0751581e-35
6.075098e-35
6.0750697e-35
6.0750579e-35
6.0750546e-35
6.0750565e-35
6.0750639e-35
6.0750816e-35
6.0754261e-35
6.0752143e-35
6.075098e-35
6.075038e-35
6.0750096e-35
6.074998e-35
6.0749948e-35
6.074997e-35
6.0750048e-35
6.075023e-35
6.0753977e-35
6.0751859e-35
6.0750697e-35
6.0750096e-35
6.0749814e-35
6.0749697e-35
6.0749667e-35
6.0749689e-35
6.0749769e-35
6.0749953e-35
6.0753858e-35
6.0751741e-35
6.0750579e-35
6.074998e-35
6.0749697e-35
6.0749582e-35
6.0749551e-35
6.0749574e-35
6.0749655e-35
6.074984e-35
6.0753821e-35
6.0751706e-35
6.0750546e-35
6.0749948e-35
6.0749667e-35
6.0749551e-35
6.0749521e-35
6.0749545e-35
6.0749626e-35
6.074981e-35
6.0753831e-35
6.0751721e-35
6.0750565e-35
6.074997e-35
6.0749689e-35
6.0749574e-35
6.0749545e-35
6.0749568e-35
6.074965e-35
6.0749835e-35
6.0753883e-35
6.0751786e-35
6.0750639e-35
6.0750048e-35
6.0749769e-35
6.0749655e-35
6.0749626e-35
6.074965e-35
6.0749731e-35
6.0749916e-35
6.0754007e-35
6.075195e-35
6.0750816e-35
6.075023e-35
6.0749953e-35
6.074984e-35
6.074981e-35
6.0749835e-35
6.0749916e-35
6.0750101e-35
2.1277814e-34
2.1277098e-34
2.1276704e-34
2.12765e-34
2.1276404e-34
2.1276363e-34
2.1276351e-34
2.1276354e-34
2.1276372e-34
2.1276413e-34
2.1277098e-34
2.1276383e-34
2.1275989e-34
2.1275785e-34
2.1275689e-34
2.1275649e-34
2.1275637e-34
2.1275642e-34
2.1275664e-34
2.1275719e-34
2.1276704e-34
2.1275989e-34
2.1275595e-34
2.1275391e-34
2.1275295e-34
2.1275255e-34
2.1275244e-34
2.127525e-34
2.1275275e-34
2.1275335e-34
2.12765e-34
2.1275785e-34
2.1275391e-34
2.1275187e-34
2.1275091e-34
2.1275052e-34
2.1275041e-34
2.1275048e-34
2.1275075e-34
2.1275136e-34
2.1276404e-34
2.1275689e-34
2.1275295e-34
2.1275091e-34
2.1274995e-34
2.1274956e-34
2.1274945e-34
2.1274953e-34
2.127498e-34
2.1275042e-34
2.1276363e-34
2.1275649e-34
2.1275255e-34
2.1275052e-34
2.1274956e-34
2.1274916e-34
2.1274906e-34
2.1274914e-34
2.1274941e-34
2.1275003e-34
2.1276351e-34
2.1275637e-34
2.1275244e-34
2.1275041e-34
2.1274945e-34
2.1274906e-34
2.1274896e-34
2.1274904e-34
2.1274932e-34
2.1274994e-34
2.1276354e-34
2.1275642e-34
2.127525e-34
2.1275048e-34
2.1274953e-34
2.1274914e-34
2.1274904e-34
2.1274912e-34
2.127494e-34
2.1275002e-34
2.1276372e-34
2.1275664e-34
2.1275275e-34
2.1275075e-34
2.127498e-34
2.1274941e-34
2.1274932e-34
2.127494e-34
2.1274967e-34
2.127503e-34
2.1276413e-34
2.1275719e-34
2.1275335e-34
2.1275136e-34
2.1275042e-34
2.1275003e-34
2.1274994e-34
2.1275002e-34
2.127503e-34
2.1275092e-34
7.5797209e-34
7.5794754e-34
7.5793397e-34
7.5792693e-34
7.579236e-34
7.5792221e-34
7.5792178e-34
7.579219e-34
7.579225e-34
7.5792389e-34
7.5794754e-34
7.57923e-34
7.5790943e-34
7.5790239e-34
7.5789907e-34
7.5789768e-34
7.5789727e-34
7.5789745e-34
7.5789821e-34
7.5790008e-34
7.5793397e-34
7.5790943e-34
7.5789586e-34
7.5788883e-34
7.578855e-34
7.5788413e-34
7.5788375e-34
7.5788397e-34
7.5788483e-34
7.5788687e-34
7.5792693e-34
7.5790239e-34
7.5788883e-34
7.578818e-34
7.5787848e-34
7.5787711e-34
7.5787674e-34
7.57877e-34
7.5787792e-34
7.5788001e-34
7.579236e-34
7.5789907e-34
7.578855e-34
7.5787848e-34
7.5787516e-34
7.578738e-34
7.5787344e-34
7.5787372e-34
7.5787466e-34
7.5787677e-34
7.5792221e-34
7.5789768e-34
7.5788413e-34
7.5787711e-34
7.578738e-34
7.5787244e-34
7.5787209e-34
7.5787237e-34
7.5787332e-34
7.5787544e-34
7.5792178e-34
7.5789727e-34
7.5788375e-34
7.5787674e-34
7.5787344e-34
7.5787209e-34
7.5787174e-34
7.5787202e-34
7.5787298e-34
7.578751e-34
7.579219e-34
7.5789745e-34
7.5788397e-34
7.57877e-34
7.5787372e-34
7.5787237e-34
7.5787202e-34
7.5787231e-34
7.5787327e-34
7.5787539e-34
7.579225e-34
7.5789821e-34
7.5788483e-34
7.5787792e-34
7.5787466e-34
7.5787332e-34
7.5787298e-34
7.5787327e-34
7.5787422e-34
7.5787634e-34
7.5792389e-34
7.5790008e-34
7.5788687e-34
7.5788001e-34
7.5787677e-34
7.5787544e-34
7.578751e-34
7.5787539e-34
7.5787634e-34
7.5787847e-34
2.7463642e-33
2.7462786e-33
2.7462311e-33
2.7462064e-33
2.7461947e-33
2.7461898e-33
2.7461883e-33
2.7461887e-33
2.7461908e-33
2.7461956e-33
2.7462786e-33
2.746193e-33
2.7461455e-33
2.7461208e-33
2.7461091e-33
2.7461043e-33
2.7461028e-33
2.7461035e-33
2.7461061e-33
2.7461126e-33
2.7462311e-33
2.7461455e-33
2.746098e-33
2.7460733e-33
2.7460617e-33
2.7460568e-33
2.7460555e-33
2.7460563e-33
2.7460593e-33
2.7460664e-33
2.7462064e-33
2.7461208e-33
2.7460733e-33
2.7460487e-33
2.746037e-33
2.7460322e-33
2.7460309e-33
2.7460319e-33
2.7460351e-33
2.7460424e-33
2.7461947e-33
2.7461091e-33
2.7460617e-33
2.746037e-33
2.7460254e-33
2.7460206e-33
2.7460194e-33
2.7460203e-33
2.7460236e-33
2.746031e-33
2.7461898e-33
2.7461043e-33
2.7460568e-33
2.7460322e-33
2.7460206e-33
2.7460158e-33
2.7460146e-33
2.7460156e-33
2.7460189e-33
2.7460263e-33
2.7461883e-33
2.7461028e-33
2.7460555e-33
2.7460309e-33
2.7460194e-33
2.7460146e-33
2.7460134e-33
2.7460144e-33
2.7460178e-33
2.7460251e-33
2.7461887e-33
2.7461035e-33
2.7460563e-33
2.7460319e-33
2.7460203e-33
2.7460156e-33
2.7460144e-33
2.7460154e-33
2.7460188e-33
2.7460262e-33
2.7461908e-33
2.7461061e-33
2.7460593e-33
2.7460351e-33
2.7460236e-33
2.7460189e-33
2.7460178e-33
2.7460188e-33
2.7460221e-33
2.7460295e-33
2.7461956e-33
2.7461126e-33
2.7460664e-33
2.7460424e-33
2.746031e-33
2.7460263e-33
2.7460251e-33
2.7460262e-33
2.7460295e-33
2.7460369e-33
1.0120687e-32
1.0120384e-32
1.0120215e-32
1.0120127e-32
1.0120085e-32
1.0120068e-32
1.0120062e-32
1.0120064e-32
1.0120071e-32
1.0120088e-32
1.0120384e-32
1.012008e-32
1.0119911e-32
1.0119823e-32
1.0119781e-32
1.0119764e-32
1.0119759e-32
1.0119761e-32
1.0119771e-32
1.0119794e-32
1.0120215e-32
1.0119911e-32
1.0119742e-32
1.0119654e-32
1.0119613e-32
1.0119595e-32
1.0119591e-32
1.0119594e-32
1.0119604e-32
1.0119629e-32
1.0120127e-32
1.0119823e-32
1.0119654e-32
1.0119566e-32
1.0119525e-32
1.0119508e-32
1.0119503e-32
1.0119507e-32
1.0119518e-32
1.0119544e-32
1.0120085e-32
1.0119781e-32
1.0119613e-32
1.0119525e-32
1.0119483e-32
1.0119466e-32
1.0119462e-32
1.0119465e-32
1.0119477e-32
1.0119503e-32
1.0120068e-32
1.0119764e-32
1.0119595e-32
1.0119508e-32
1.0119466e-32
1.0119449e-32
1.0119445e-32
1.0119449e-32
1.0119461e-32
1.0119487e-32
1.0120062e-32
1.0119759e-32
1.0119591e-32
1.0119503e-32
1.0119462e-32
1.0119445e-32
1.0119441e-32
1.0119444e-32
1.0119456e-32
1.0119482e-32
1.0120064e-32
1.0119761e-32
1.0119594e-32
1.0119507e-32
1.0119465e-32
1.0119449e-32
1.0119444e-32
1.0119448e-32
1.011946e-32
1.0119486e-32
1.0120071e-32
1.0119771e-32
1.0119604e-32
1.0119518e-32
1.0119477e-32
1.0119461e-32
1.0119456e-32
1.011946e-32
1.0119472e-32
1.0119498e-32
1.0120088e-32
1.0119794e-32
1.0119629e-32
1.0119544e-32
1.0119503e-32
1.0119487e-32
1.0119482e-32
1.0119486e-32
1.0119498e-32
1.0119524e-32
3.792888e-32
3.7927785e-32
3.7927174e-32
3.7926856e-32
3.7926705e-32
3.7926641e-32
3.7926622e-32
3.7926628e-32
3.7926655e-32
3.7926714e-32
3.7927785e-32
3.7926691e-32
3.792608e-32
3.7925762e-32
3.7925611e-32
3.7925548e-32
3.792553e-32
3.7925538e-32
3.7925573e-32
3.7925655e-32
3.7927174e-32
3.792608e-32
3.7925469e-32
3.7925151e-32
3.7925001e-32
3.7924938e-32
3.7924921e-32
3.7924932e-32
3.7924971e-32
3.7925061e-32
3.7926856e-32
3.7925762e-32
3.7925151e-32
3.7924833e-32
3.7924683e-32
3.7924621e-32
3.7924604e-32
3.7924617e-32
3.7924658e-32
3.7924751e-32
3.7926705e-32
3.7925611e-32
3.7925001e-32
3.7924683e-32
3.7924532e-32
3.7924471e-32
3.7924455e-32
3.7924468e-32
3.7924511e-32
3.7924604e-32
3.7926641e-32
3.7925548e-32
3.7924938e-32
3.7924621e-32
3.7924471e-32
3.7924409e-32
3.7924394e-32
3.7924407e-32
3.792445e-32
3.7924544e-32
3.7926622e-32
3.792553e-32
3.7924921e-32
3.7924604e-32
3.7924455e-32
3.7924394e-32
3.7924378e-32
3.7924391e-32
3.7924435e-32
3.7924529e-32
3.7926628e-32
3.7925538e-32
3.7924932e-32
3.7924617e-32
3.7924468e-32
3.7924407e-32
3.7924391e-32
3.7924405e-32
3.7924449e-32
3.7924543e-32
3.7926655e-32
3.7925573e-32
3.7924971e-32
3.7924658e-32
3.7924511e-32
3.792445e-32
3.7924435e-32
3.7924449e-32
3.7924492e-32
3.7924587e-32
3.7926714e-32
3.7925655e-32
3.7925061e-32
3.7924751e-32
3.7924604e-32
3.7924544e-32
3.7924529e-32
3.7924543e-32