/*--------------------------------*- C++ -*----------------------------------*\
| =========                 |                                                 |
| \\      /  F ield         | OpenFOAM: The Open Source CFD Toolbox           |
|  \\    /   O peration     | Version:  dev                                   |
|   \\  /    A nd           | Web:      www.OpenFOAM.org                      |
|    \\/     M anipulation  |                                                 |
\*---------------------------------------------------------------------------*/
FoamFile
{
    version     2.0;
    format      ascii;
    class       volScalarField;
    location    "17";
    object      A;
}
// * * * * * * * * * * * * * * * * * * * * * * * * * * * * * * * * * * * * * //

dimensions      [0 0 0 0 1 0 0];

internalField   nonuniform List<scalar> 
10000
(
9.7877779e-58
9.7862002e-58
9.7855314e-58
9.7852797e-58
9.785198e-58
9.7851753e-58
9.7851709e-58
9.7851738e-58
9.7851867e-58
9.7852299e-58
9.7862002e-58
9.7846232e-58
9.7839547e-58
9.7837031e-58
9.7836214e-58
9.7835988e-58
9.7835948e-58
9.7835991e-58
9.7836169e-58
9.783676e-58
9.7855314e-58
9.7839547e-58
9.7832863e-58
9.7830348e-58
9.7829531e-58
9.7829306e-58
9.782927e-58
9.7829324e-58
9.7829528e-58
9.7830168e-58
9.7852797e-58
9.7837031e-58
9.7830348e-58
9.7827833e-58
9.7827016e-58
9.7826792e-58
9.7826757e-58
9.7826816e-58
9.7827031e-58
9.7827685e-58
9.785198e-58
9.7836214e-58
9.7829531e-58
9.7827016e-58
9.78262e-58
9.7825976e-58
9.7825942e-58
9.7826003e-58
9.7826221e-58
9.7826879e-58
9.7851753e-58
9.7835988e-58
9.7829306e-58
9.7826792e-58
9.7825976e-58
9.7825752e-58
9.7825718e-58
9.7825779e-58
9.7825999e-58
9.7826658e-58
9.7851709e-58
9.7835948e-58
9.782927e-58
9.7826757e-58
9.7825942e-58
9.7825718e-58
9.7825684e-58
9.7825746e-58
9.7825965e-58
9.7826624e-58
9.7851738e-58
9.7835991e-58
9.7829324e-58
9.7826816e-58
9.7826003e-58
9.7825779e-58
9.7825746e-58
9.7825807e-58
9.7826027e-58
9.7826686e-58
9.7851867e-58
9.7836169e-58
9.7829528e-58
9.7827031e-58
9.7826221e-58
9.7825999e-58
9.7825965e-58
9.7826027e-58
9.7826246e-58
9.7826905e-58
9.7852299e-58
9.783676e-58
9.7830168e-58
9.7827685e-58
9.7826879e-58
9.7826658e-58
9.7826624e-58
9.7826686e-58
9.7826905e-58
9.7827565e-58
5.1934381e-57
5.1926242e-57
5.1922758e-57
5.1921445e-57
5.1921018e-57
5.19209e-57
5.1920877e-57
5.1920892e-57
5.1920959e-57
5.1921192e-57
5.1926242e-57
5.1918108e-57
5.1914625e-57
5.1913312e-57
5.1912886e-57
5.1912768e-57
5.1912747e-57
5.191277e-57
5.1912862e-57
5.191318e-57
5.1922758e-57
5.1914625e-57
5.1911142e-57
5.190983e-57
5.1909404e-57
5.1909287e-57
5.1909267e-57
5.1909296e-57
5.1909402e-57
5.1909745e-57
5.1921445e-57
5.1913312e-57
5.190983e-57
5.1908518e-57
5.1908092e-57
5.1907975e-57
5.1907957e-57
5.1907988e-57
5.19081e-57
5.190845e-57
5.1921018e-57
5.1912886e-57
5.1909404e-57
5.1908092e-57
5.1907666e-57
5.1907549e-57
5.1907531e-57
5.1907563e-57
5.1907677e-57
5.1908029e-57
5.19209e-57
5.1912768e-57
5.1909287e-57
5.1907975e-57
5.1907549e-57
5.1907432e-57
5.1907415e-57
5.1907447e-57
5.1907561e-57
5.1907914e-57
5.1920877e-57
5.1912747e-57
5.1909267e-57
5.1907957e-57
5.1907531e-57
5.1907415e-57
5.1907397e-57
5.1907429e-57
5.1907544e-57
5.1907897e-57
5.1920892e-57
5.191277e-57
5.1909296e-57
5.1907988e-57
5.1907563e-57
5.1907447e-57
5.1907429e-57
5.1907462e-57
5.1907576e-57
5.1907929e-57
5.1920959e-57
5.1912862e-57
5.1909402e-57
5.19081e-57
5.1907677e-57
5.1907561e-57
5.1907544e-57
5.1907576e-57
5.1907691e-57
5.1908044e-57
5.1921192e-57
5.191318e-57
5.1909745e-57
5.190845e-57
5.1908029e-57
5.1907914e-57
5.1907897e-57
5.1907929e-57
5.1908044e-57
5.1908397e-57
2.1821739e-56
2.1818415e-56
2.1816986e-56
2.1816447e-56
2.1816272e-56
2.1816223e-56
2.1816214e-56
2.181622e-56
2.1816248e-56
2.1816342e-56
2.1818415e-56
2.1815092e-56
2.1813664e-56
2.1813125e-56
2.181295e-56
2.1812902e-56
2.1812893e-56
2.1812903e-56
2.181294e-56
2.181307e-56
2.1816986e-56
2.1813664e-56
2.1812236e-56
2.1811698e-56
2.1811523e-56
2.1811474e-56
2.1811467e-56
2.1811478e-56
2.1811522e-56
2.1811662e-56
2.1816447e-56
2.1813125e-56
2.1811698e-56
2.1811159e-56
2.1810984e-56
2.1810936e-56
2.1810929e-56
2.1810941e-56
2.1810987e-56
2.1811131e-56
2.1816272e-56
2.181295e-56
2.1811523e-56
2.1810984e-56
2.1810809e-56
2.1810761e-56
2.1810754e-56
2.1810767e-56
2.1810814e-56
2.1810958e-56
2.1816223e-56
2.1812902e-56
2.1811474e-56
2.1810936e-56
2.1810761e-56
2.1810713e-56
2.1810706e-56
2.1810719e-56
2.1810766e-56
2.1810911e-56
2.1816214e-56
2.1812893e-56
2.1811467e-56
2.1810929e-56
2.1810754e-56
2.1810706e-56
2.1810699e-56
2.1810712e-56
2.1810759e-56
2.1810904e-56
2.181622e-56
2.1812903e-56
2.1811478e-56
2.1810941e-56
2.1810767e-56
2.1810719e-56
2.1810712e-56
2.1810725e-56
2.1810772e-56
2.1810917e-56
2.1816248e-56
2.181294e-56
2.1811522e-56
2.1810987e-56
2.1810814e-56
2.1810766e-56
2.1810759e-56
2.1810772e-56
2.1810819e-56
2.1810964e-56
2.1816342e-56
2.181307e-56
2.1811662e-56
2.1811131e-56
2.1810958e-56
2.1810911e-56
2.1810904e-56
2.1810917e-56
2.1810964e-56
2.1811109e-56
9.242474e-56
9.2411062e-56
9.2405165e-56
9.2402938e-56
9.2402214e-56
9.2402013e-56
9.2401974e-56
9.2402e-56
9.2402111e-56
9.2402493e-56
9.2411062e-56
9.239739e-56
9.2391496e-56
9.238927e-56
9.2388546e-56
9.2388346e-56
9.238831e-56
9.2388349e-56
9.2388505e-56
9.2389032e-56
9.2405165e-56
9.2391496e-56
9.2385603e-56
9.2383377e-56
9.2382653e-56
9.2382454e-56
9.2382422e-56
9.2382471e-56
9.2382651e-56
9.2383222e-56
9.2402938e-56
9.238927e-56
9.2383377e-56
9.2381151e-56
9.2380428e-56
9.2380229e-56
9.2380199e-56
9.2380252e-56
9.2380442e-56
9.2381026e-56
9.2402214e-56
9.2388546e-56
9.2382653e-56
9.2380428e-56
9.2379705e-56
9.2379506e-56
9.2379476e-56
9.2379531e-56
9.2379725e-56
9.2380313e-56
9.2402013e-56
9.2388346e-56
9.2382454e-56
9.2380229e-56
9.2379506e-56
9.2379308e-56
9.2379278e-56
9.2379334e-56
9.2379528e-56
9.2380117e-56
9.2401974e-56
9.238831e-56
9.2382422e-56
9.2380199e-56
9.2379476e-56
9.2379278e-56
9.2379249e-56
9.2379304e-56
9.2379499e-56
9.2380088e-56
9.2402e-56
9.2388349e-56
9.2382471e-56
9.2380252e-56
9.2379531e-56
9.2379334e-56
9.2379304e-56
9.237936e-56
9.2379554e-56
9.2380143e-56
9.2402111e-56
9.2388505e-56
9.2382651e-56
9.2380442e-56
9.2379725e-56
9.2379528e-56
9.2379499e-56
9.2379554e-56
9.2379749e-56
9.2380338e-56
9.2402493e-56
9.2389032e-56
9.2383222e-56
9.2381026e-56
9.2380313e-56
9.2380117e-56
9.2380088e-56
9.2380143e-56
9.2380338e-56
9.2380927e-56
3.9954687e-55
3.9948945e-55
3.9946462e-55
3.9945524e-55
3.9945218e-55
3.9945134e-55
3.9945117e-55
3.9945128e-55
3.9945175e-55
3.9945331e-55
3.9948945e-55
3.9943206e-55
3.9940724e-55
3.9939786e-55
3.9939481e-55
3.9939396e-55
3.9939381e-55
3.9939398e-55
3.9939463e-55
3.9939682e-55
3.9946462e-55
3.9940724e-55
3.9938243e-55
3.9937305e-55
3.9937e-55
3.9936916e-55
3.9936902e-55
3.9936923e-55
3.9936999e-55
3.9937236e-55
3.9945524e-55
3.9939786e-55
3.9937305e-55
3.9936367e-55
3.9936062e-55
3.9935978e-55
3.9935965e-55
3.9935988e-55
3.9936068e-55
3.9936311e-55
3.9945218e-55
3.9939481e-55
3.9937e-55
3.9936062e-55
3.9935757e-55
3.9935673e-55
3.9935661e-55
3.9935684e-55
3.9935765e-55
3.993601e-55
3.9945134e-55
3.9939396e-55
3.9936916e-55
3.9935978e-55
3.9935673e-55
3.9935589e-55
3.9935577e-55
3.9935601e-55
3.9935682e-55
3.9935927e-55
3.9945117e-55
3.9939381e-55
3.9936902e-55
3.9935965e-55
3.9935661e-55
3.9935577e-55
3.9935565e-55
3.9935588e-55
3.993567e-55
3.9935915e-55
3.9945128e-55
3.9939398e-55
3.9936923e-55
3.9935988e-55
3.9935684e-55
3.9935601e-55
3.9935588e-55
3.9935612e-55
3.9935694e-55
3.9935939e-55
3.9945175e-55
3.9939463e-55
3.9936999e-55
3.9936068e-55
3.9935765e-55
3.9935682e-55
3.993567e-55
3.9935694e-55
3.9935776e-55
3.9936021e-55
3.9945331e-55
3.9939682e-55
3.9937236e-55
3.9936311e-55
3.993601e-55
3.9935927e-55
3.9935915e-55
3.9935939e-55
3.9936021e-55
3.9936266e-55
1.7642205e-54
1.7639744e-54
1.7638677e-54
1.7638273e-54
1.7638142e-54
1.7638105e-54
1.7638098e-54
1.7638103e-54
1.7638123e-54
1.7638188e-54
1.7639744e-54
1.7637284e-54
1.7636218e-54
1.7635814e-54
1.7635683e-54
1.7635646e-54
1.763564e-54
1.7635647e-54
1.7635675e-54
1.7635768e-54
1.7638677e-54
1.7636218e-54
1.7635151e-54
1.7634748e-54
1.7634616e-54
1.763458e-54
1.7634574e-54
1.7634583e-54
1.7634616e-54
1.7634717e-54
1.7638273e-54
1.7635814e-54
1.7634748e-54
1.7634344e-54
1.7634213e-54
1.7634177e-54
1.7634171e-54
1.7634181e-54
1.7634216e-54
1.7634319e-54
1.7638142e-54
1.7635683e-54
1.7634616e-54
1.7634213e-54
1.7634081e-54
1.7634045e-54
1.763404e-54
1.763405e-54
1.7634085e-54
1.7634189e-54
1.7638105e-54
1.7635646e-54
1.763458e-54
1.7634177e-54
1.7634045e-54
1.7634009e-54
1.7634004e-54
1.7634014e-54
1.763405e-54
1.7634154e-54
1.7638098e-54
1.763564e-54
1.7634574e-54
1.7634171e-54
1.763404e-54
1.7634004e-54
1.7633999e-54
1.7634009e-54
1.7634044e-54
1.7634148e-54
1.7638103e-54
1.7635647e-54
1.7634583e-54
1.7634181e-54
1.763405e-54
1.7634014e-54
1.7634009e-54
1.7634019e-54
1.7634055e-54
1.7634159e-54
1.7638123e-54
1.7635675e-54
1.7634616e-54
1.7634216e-54
1.7634085e-54
1.763405e-54
1.7634044e-54
1.7634055e-54
1.763409e-54
1.7634194e-54
1.7638188e-54
1.7635768e-54
1.7634717e-54
1.7634319e-54
1.7634189e-54
1.7634154e-54
1.7634148e-54
1.7634159e-54
1.7634194e-54
1.7634298e-54
7.957517e-54
7.9564401e-54
7.9559718e-54
7.9557944e-54
7.9557366e-54
7.9557205e-54
7.9557174e-54
7.9557195e-54
7.9557282e-54
7.9557561e-54
7.9564401e-54
7.9553636e-54
7.9548955e-54
7.9547181e-54
7.9546604e-54
7.9546444e-54
7.9546416e-54
7.9546448e-54
7.9546571e-54
7.9546971e-54
7.9559718e-54
7.9548955e-54
7.9544275e-54
7.9542502e-54
7.9541925e-54
7.9541766e-54
7.954174e-54
7.954178e-54
7.9541924e-54
7.9542361e-54
7.9557944e-54
7.9547181e-54
7.9542502e-54
7.9540729e-54
7.9540151e-54
7.9539993e-54
7.9539969e-54
7.9540013e-54
7.9540165e-54
7.9540612e-54
7.9557366e-54
7.9546604e-54
7.9541925e-54
7.9540151e-54
7.9539574e-54
7.9539416e-54
7.9539393e-54
7.9539438e-54
7.9539592e-54
7.9540043e-54
7.9557205e-54
7.9546444e-54
7.9541766e-54
7.9539993e-54
7.9539416e-54
7.9539258e-54
7.9539234e-54
7.953928e-54
7.9539435e-54
7.9539886e-54
7.9557174e-54
7.9546416e-54
7.954174e-54
7.9539969e-54
7.9539393e-54
7.9539234e-54
7.9539211e-54
7.9539257e-54
7.9539412e-54
7.9539864e-54
7.9557195e-54
7.9546448e-54
7.954178e-54
7.9540013e-54
7.9539438e-54
7.953928e-54
7.9539257e-54
7.9539302e-54
7.9539458e-54
7.9539909e-54
7.9557282e-54
7.9546571e-54
7.9541924e-54
7.9540165e-54
7.9539592e-54
7.9539435e-54
7.9539412e-54
7.9539458e-54
7.9539614e-54
7.9540065e-54
7.9557561e-54
7.9546971e-54
7.9542361e-54
7.9540612e-54
7.9540043e-54
7.9539886e-54
7.9539864e-54
7.9539909e-54
7.9540065e-54
7.9540516e-54
3.6665346e-53
3.6660534e-53
3.6658436e-53
3.665764e-53
3.6657381e-53
3.6657309e-53
3.6657295e-53
3.6657304e-53
3.6657343e-53
3.6657465e-53
3.6660534e-53
3.6655724e-53
3.6653627e-53
3.6652831e-53
3.6652572e-53
3.66525e-53
3.6652487e-53
3.6652502e-53
3.6652557e-53
3.6652734e-53
3.6658436e-53
3.6653627e-53
3.665153e-53
3.6650734e-53
3.6650475e-53
3.6650404e-53
3.6650392e-53
3.6650411e-53
3.6650475e-53
3.6650669e-53
3.665764e-53
3.6652831e-53
3.6650734e-53
3.6649939e-53
3.664968e-53
3.6649609e-53
3.6649598e-53
3.6649618e-53
3.6649686e-53
3.6649884e-53
3.6657381e-53
3.6652572e-53
3.6650475e-53
3.664968e-53
3.6649421e-53
3.664935e-53
3.6649339e-53
3.664936e-53
3.6649429e-53
3.6649629e-53
3.6657309e-53
3.66525e-53
3.6650404e-53
3.6649609e-53
3.664935e-53
3.6649279e-53
3.6649268e-53
3.6649289e-53
3.6649359e-53
3.6649559e-53
3.6657295e-53
3.6652487e-53
3.6650392e-53
3.6649598e-53
3.6649339e-53
3.6649268e-53
3.6649258e-53
3.6649279e-53
3.6649349e-53
3.6649549e-53
3.6657304e-53
3.6652502e-53
3.6650411e-53
3.6649618e-53
3.664936e-53
3.6649289e-53
3.6649279e-53
3.6649299e-53
3.6649369e-53
3.664957e-53
3.6657343e-53
3.6652557e-53
3.6650475e-53
3.6649686e-53
3.6649429e-53
3.6649359e-53
3.6649349e-53
3.6649369e-53
3.6649439e-53
3.664964e-53
3.6657465e-53
3.6652734e-53
3.6650669e-53
3.6649884e-53
3.6649629e-53
3.6649559e-53
3.6649549e-53
3.664957e-53
3.664964e-53
3.664984e-53
1.7258215e-52
1.7256019e-52
1.7255059e-52
1.7254695e-52
1.7254576e-52
1.7254543e-52
1.7254536e-52
1.7254541e-52
1.7254558e-52
1.7254613e-52
1.7256019e-52
1.7253824e-52
1.7252865e-52
1.72525e-52
1.7252382e-52
1.7252349e-52
1.7252343e-52
1.725235e-52
1.7252375e-52
1.7252455e-52
1.7255059e-52
1.7252865e-52
1.7251906e-52
1.7251541e-52
1.7251423e-52
1.725139e-52
1.7251385e-52
1.7251393e-52
1.7251423e-52
1.725151e-52
1.7254695e-52
1.72525e-52
1.7251541e-52
1.7251177e-52
1.7251058e-52
1.7251026e-52
1.7251021e-52
1.725103e-52
1.7251061e-52
1.7251151e-52
1.7254576e-52
1.7252382e-52
1.7251423e-52
1.7251058e-52
1.725094e-52
1.7250907e-52
1.7250902e-52
1.7250912e-52
1.7250944e-52
1.7251034e-52
1.7254543e-52
1.7252349e-52
1.725139e-52
1.7251026e-52
1.7250907e-52
1.7250875e-52
1.725087e-52
1.7250879e-52
1.7250912e-52
1.7251002e-52
1.7254536e-52
1.7252343e-52
1.7251385e-52
1.7251021e-52
1.7250902e-52
1.725087e-52
1.7250865e-52
1.7250875e-52
1.7250907e-52
1.7250998e-52
1.7254541e-52
1.725235e-52
1.7251393e-52
1.725103e-52
1.7250912e-52
1.7250879e-52
1.7250875e-52
1.7250884e-52
1.7250916e-52
1.7251007e-52
1.7254558e-52
1.7252375e-52
1.7251423e-52
1.7251061e-52
1.7250944e-52
1.7250912e-52
1.7250907e-52
1.7250916e-52
1.7250949e-52
1.7251039e-52
1.7254613e-52
1.7252455e-52
1.725151e-52
1.7251151e-52
1.7251034e-52
1.7251002e-52
1.7250998e-52
1.7251007e-52
1.7251039e-52
1.725113e-52
8.2985295e-52
8.2975066e-52
8.2970583e-52
8.2968879e-52
8.2968323e-52
8.2968169e-52
8.2968139e-52
8.296816e-52
8.2968242e-52
8.296849e-52
8.2975066e-52
8.2964841e-52
8.296036e-52
8.2958657e-52
8.2958101e-52
8.2957947e-52
8.2957921e-52
8.2957952e-52
8.2958071e-52
8.295844e-52
8.2970583e-52
8.296036e-52
8.295588e-52
8.2954177e-52
8.2953621e-52
8.2953468e-52
8.2953445e-52
8.2953484e-52
8.2953623e-52
8.2954029e-52
8.2968879e-52
8.2958657e-52
8.2954177e-52
8.2952474e-52
8.2951918e-52
8.2951766e-52
8.2951743e-52
8.2951787e-52
8.2951934e-52
8.2952351e-52
8.2968323e-52
8.2958101e-52
8.2953621e-52
8.2951918e-52
8.2951363e-52
8.2951211e-52
8.2951189e-52
8.2951234e-52
8.2951384e-52
8.2951803e-52
8.2968169e-52
8.2957947e-52
8.2953468e-52
8.2951766e-52
8.2951211e-52
8.2951059e-52
8.2951037e-52
8.2951082e-52
8.2951233e-52
8.2951653e-52
8.2968139e-52
8.2957921e-52
8.2953445e-52
8.2951743e-52
8.2951189e-52
8.2951037e-52
8.2951015e-52
8.2951061e-52
8.2951211e-52
8.2951632e-52
8.296816e-52
8.2957952e-52
8.2953484e-52
8.2951787e-52
8.2951234e-52
8.2951082e-52
8.2951061e-52
8.2951106e-52
8.2951257e-52
8.2951677e-52
8.2968242e-52
8.2958071e-52
8.2953623e-52
8.2951934e-52
8.2951384e-52
8.2951233e-52
8.2951211e-52
8.2951257e-52
8.2951408e-52
8.2951828e-52
8.296849e-52
8.295844e-52
8.2954029e-52
8.2952351e-52
8.2951803e-52
8.2951653e-52
8.2951632e-52
8.2951677e-52
8.2951828e-52
8.2952249e-52
4.0763345e-51
4.0758479e-51
4.0756341e-51
4.0755528e-51
4.0755262e-51
4.0755189e-51
4.0755175e-51
4.0755184e-51
4.0755223e-51
4.0755339e-51
4.0758479e-51
4.0753615e-51
4.0751478e-51
4.0750665e-51
4.07504e-51
4.0750326e-51
4.0750314e-51
4.0750329e-51
4.0750386e-51
4.075056e-51
4.0756341e-51
4.0751478e-51
4.0749342e-51
4.0748529e-51
4.0748264e-51
4.0748191e-51
4.0748179e-51
4.0748198e-51
4.0748265e-51
4.0748457e-51
4.0755528e-51
4.0750665e-51
4.0748529e-51
4.0747716e-51
4.0747451e-51
4.0747378e-51
4.0747367e-51
4.0747388e-51
4.0747459e-51
4.0747656e-51
4.0755262e-51
4.07504e-51
4.0748264e-51
4.0747451e-51
4.0747186e-51
4.0747113e-51
4.0747102e-51
4.0747124e-51
4.0747196e-51
4.0747395e-51
4.0755189e-51
4.0750326e-51
4.0748191e-51
4.0747378e-51
4.0747113e-51
4.074704e-51
4.074703e-51
4.0747052e-51
4.0747124e-51
4.0747323e-51
4.0755175e-51
4.0750314e-51
4.0748179e-51
4.0747367e-51
4.0747102e-51
4.074703e-51
4.074702e-51
4.0747041e-51
4.0747114e-51
4.0747313e-51
4.0755184e-51
4.0750329e-51
4.0748198e-51
4.0747388e-51
4.0747124e-51
4.0747052e-51
4.0747041e-51
4.0747063e-51
4.0747136e-51
4.0747335e-51
4.0755223e-51
4.0750386e-51
4.0748265e-51
4.0747459e-51
4.0747196e-51
4.0747124e-51
4.0747114e-51
4.0747136e-51
4.0747208e-51
4.0747407e-51
4.0755339e-51
4.075056e-51
4.0748457e-51
4.0747656e-51
4.0747395e-51
4.0747323e-51
4.0747313e-51
4.0747335e-51
4.0747407e-51
4.0747606e-51
2.0454775e-50
2.0452412e-50
2.0451371e-50
2.0450975e-50
2.0450845e-50
2.0450809e-50
2.0450802e-50
2.0450807e-50
2.0450826e-50
2.0450881e-50
2.0452412e-50
2.045005e-50
2.0449009e-50
2.0448613e-50
2.0448484e-50
2.0448448e-50
2.0448442e-50
2.0448449e-50
2.0448477e-50
2.0448561e-50
2.0451371e-50
2.0449009e-50
2.0447969e-50
2.0447573e-50
2.0447443e-50
2.0447408e-50
2.0447402e-50
2.0447412e-50
2.0447444e-50
2.0447537e-50
2.0450975e-50
2.0448613e-50
2.0447573e-50
2.0447176e-50
2.0447047e-50
2.0447012e-50
2.0447007e-50
2.0447017e-50
2.0447052e-50
2.0447147e-50
2.0450845e-50
2.0448484e-50
2.0447443e-50
2.0447047e-50
2.0446918e-50
2.0446883e-50
2.0446878e-50
2.0446888e-50
2.0446923e-50
2.044702e-50
2.0450809e-50
2.0448448e-50
2.0447408e-50
2.0447012e-50
2.0446883e-50
2.0446847e-50
2.0446842e-50
2.0446853e-50
2.0446888e-50
2.0446985e-50
2.0450802e-50
2.0448442e-50
2.0447402e-50
2.0447007e-50
2.0446878e-50
2.0446842e-50
2.0446837e-50
2.0446848e-50
2.0446883e-50
2.044698e-50
2.0450807e-50
2.0448449e-50
2.0447412e-50
2.0447017e-50
2.0446888e-50
2.0446853e-50
2.0446848e-50
2.0446859e-50
2.0446894e-50
2.0446991e-50
2.0450826e-50
2.0448477e-50
2.0447444e-50
2.0447052e-50
2.0446923e-50
2.0446888e-50
2.0446883e-50
2.0446894e-50
2.044693e-50
2.0447026e-50
2.0450881e-50
2.0448561e-50
2.0447537e-50
2.0447147e-50
2.044702e-50
2.0446985e-50
2.044698e-50
2.0446991e-50
2.0447026e-50
2.0447122e-50
1.0484872e-49
1.04837e-49
1.0483182e-49
1.0482985e-49
1.0482921e-49
1.0482903e-49
1.0482899e-49
1.0482902e-49
1.0482911e-49
1.0482938e-49
1.04837e-49
1.0482528e-49
1.0482011e-49
1.0481814e-49
1.048175e-49
1.0481732e-49
1.0481729e-49
1.0481733e-49
1.0481747e-49
1.0481788e-49
1.0483182e-49
1.0482011e-49
1.0481494e-49
1.0481297e-49
1.0481233e-49
1.0481215e-49
1.0481212e-49
1.0481217e-49
1.0481233e-49
1.0481279e-49
1.0482985e-49
1.0481814e-49
1.0481297e-49
1.04811e-49
1.0481036e-49
1.0481018e-49
1.0481015e-49
1.0481021e-49
1.0481038e-49
1.0481085e-49
1.0482921e-49
1.048175e-49
1.0481233e-49
1.0481036e-49
1.0480971e-49
1.0480954e-49
1.0480951e-49
1.0480957e-49
1.0480974e-49
1.0481022e-49
1.0482903e-49
1.0481732e-49
1.0481215e-49
1.0481018e-49
1.0480954e-49
1.0480936e-49
1.0480934e-49
1.0480939e-49
1.0480957e-49
1.0481004e-49
1.0482899e-49
1.0481729e-49
1.0481212e-49
1.0481015e-49
1.0480951e-49
1.0480934e-49
1.0480931e-49
1.0480937e-49
1.0480954e-49
1.0481002e-49
1.0482902e-49
1.0481733e-49
1.0481217e-49
1.0481021e-49
1.0480957e-49
1.0480939e-49
1.0480937e-49
1.0480942e-49
1.048096e-49
1.0481007e-49
1.0482911e-49
1.0481747e-49
1.0481233e-49
1.0481038e-49
1.0480974e-49
1.0480957e-49
1.0480954e-49
1.048096e-49
1.0480978e-49
1.0481025e-49
1.0482938e-49
1.0481788e-49
1.0481279e-49
1.0481085e-49
1.0481022e-49
1.0481004e-49
1.0481002e-49
1.0481007e-49
1.0481025e-49
1.0481073e-49
5.4898007e-49
5.4892075e-49
5.4889451e-49
5.4888449e-49
5.4888121e-49
5.488803e-49
5.4888013e-49
5.4888026e-49
5.4888074e-49
5.4888206e-49
5.4892075e-49
5.4886146e-49
5.4883522e-49
5.4882521e-49
5.4882193e-49
5.4882103e-49
5.4882088e-49
5.4882107e-49
5.4882178e-49
5.4882386e-49
5.4889451e-49
5.4883522e-49
5.4880899e-49
5.4879897e-49
5.487957e-49
5.487948e-49
5.4879467e-49
5.4879491e-49
5.4879575e-49
5.4879806e-49
5.4888449e-49
5.4882521e-49
5.4879897e-49
5.4878896e-49
5.4878569e-49
5.4878479e-49
5.4878467e-49
5.4878493e-49
5.4878582e-49
5.487882e-49
5.4888121e-49
5.4882193e-49
5.487957e-49
5.4878569e-49
5.4878242e-49
5.4878153e-49
5.487814e-49
5.4878168e-49
5.4878258e-49
5.4878498e-49
5.488803e-49
5.4882103e-49
5.487948e-49
5.4878479e-49
5.4878153e-49
5.4878063e-49
5.4878051e-49
5.4878079e-49
5.4878169e-49
5.487841e-49
5.4888013e-49
5.4882088e-49
5.4879467e-49
5.4878467e-49
5.487814e-49
5.4878051e-49
5.4878038e-49
5.4878066e-49
5.4878157e-49
5.4878398e-49
5.4888026e-49
5.4882107e-49
5.4879491e-49
5.4878493e-49
5.4878168e-49
5.4878079e-49
5.4878066e-49
5.4878094e-49
5.4878185e-49
5.4878426e-49
5.4888074e-49
5.4882178e-49
5.4879575e-49
5.4878582e-49
5.4878258e-49
5.4878169e-49
5.4878157e-49
5.4878185e-49
5.4878276e-49
5.4878517e-49
5.4888206e-49
5.4882386e-49
5.4879806e-49
5.487882e-49
5.4878498e-49
5.487841e-49
5.4878398e-49
5.4878426e-49
5.4878517e-49
5.4878758e-49
2.9359637e-48
2.9356571e-48
2.9355212e-48
2.9354692e-48
2.9354523e-48
2.9354475e-48
2.9354467e-48
2.9354473e-48
2.9354498e-48
2.9354565e-48
2.9356571e-48
2.9353507e-48
2.9352148e-48
2.9351629e-48
2.9351459e-48
2.9351412e-48
2.9351404e-48
2.9351415e-48
2.9351451e-48
2.9351559e-48
2.9355212e-48
2.9352148e-48
2.9350789e-48
2.935027e-48
2.9350101e-48
2.9350054e-48
2.9350047e-48
2.935006e-48
2.9350103e-48
2.9350223e-48
2.9354692e-48
2.9351629e-48
2.935027e-48
2.9349751e-48
2.9349582e-48
2.9349535e-48
2.9349529e-48
2.9349543e-48
2.9349589e-48
2.9349712e-48
2.9354523e-48
2.9351459e-48
2.9350101e-48
2.9349582e-48
2.9349412e-48
2.9349366e-48
2.9349359e-48
2.9349374e-48
2.9349421e-48
2.9349545e-48
2.9354475e-48
2.9351412e-48
2.9350054e-48
2.9349535e-48
2.9349366e-48
2.9349319e-48
2.9349313e-48
2.9349328e-48
2.9349375e-48
2.9349499e-48
2.9354467e-48
2.9351404e-48
2.9350047e-48
2.9349529e-48
2.9349359e-48
2.9349313e-48
2.9349307e-48
2.9349321e-48
2.9349369e-48
2.9349493e-48
2.9354473e-48
2.9351415e-48
2.935006e-48
2.9349543e-48
2.9349374e-48
2.9349328e-48
2.9349321e-48
2.9349336e-48
2.9349383e-48
2.9349508e-48
2.9354498e-48
2.9351451e-48
2.9350103e-48
2.9349589e-48
2.9349421e-48
2.9349375e-48
2.9349369e-48
2.9349383e-48
2.9349431e-48
2.9349555e-48
2.9354565e-48
2.9351559e-48
2.9350223e-48
2.9349712e-48
2.9349545e-48
2.9349499e-48
2.9349493e-48
2.9349508e-48
2.9349555e-48
2.934968e-48
1.6036692e-47
1.6035075e-47
1.6034356e-47
1.6034081e-47
1.6033991e-47
1.6033966e-47
1.6033962e-47
1.6033965e-47
1.6033978e-47
1.6034013e-47
1.6035075e-47
1.6033459e-47
1.603274e-47
1.6032465e-47
1.6032376e-47
1.6032351e-47
1.6032347e-47
1.6032352e-47
1.6032372e-47
1.6032428e-47
1.6034356e-47
1.603274e-47
1.6032022e-47
1.6031747e-47
1.6031657e-47
1.6031633e-47
1.6031629e-47
1.6031636e-47
1.6031659e-47
1.6031722e-47
1.6034081e-47
1.6032465e-47
1.6031747e-47
1.6031472e-47
1.6031383e-47
1.6031358e-47
1.6031355e-47
1.6031362e-47
1.6031387e-47
1.6031452e-47
1.6033991e-47
1.6032376e-47
1.6031657e-47
1.6031383e-47
1.6031293e-47
1.6031268e-47
1.6031265e-47
1.6031273e-47
1.6031298e-47
1.6031363e-47
1.6033966e-47
1.6032351e-47
1.6031633e-47
1.6031358e-47
1.6031268e-47
1.6031244e-47
1.6031241e-47
1.6031248e-47
1.6031274e-47
1.6031339e-47
1.6033962e-47
1.6032347e-47
1.6031629e-47
1.6031355e-47
1.6031265e-47
1.6031241e-47
1.6031237e-47
1.6031245e-47
1.603127e-47
1.6031336e-47
1.6033965e-47
1.6032352e-47
1.6031636e-47
1.6031362e-47
1.6031273e-47
1.6031248e-47
1.6031245e-47
1.6031253e-47
1.6031278e-47
1.6031344e-47
1.6033978e-47
1.6032372e-47
1.6031659e-47
1.6031387e-47
1.6031298e-47
1.6031274e-47
1.603127e-47
1.6031278e-47
1.6031304e-47
1.6031369e-47
1.6034013e-47
1.6032428e-47
1.6031722e-47
1.6031452e-47
1.6031363e-47
1.6031339e-47
1.6031336e-47
1.6031344e-47
1.6031369e-47
1.6031435e-47
8.9456487e-47
8.9447783e-47
8.9443905e-47
8.9442422e-47
8.9441936e-47
8.9441801e-47
8.9441776e-47
8.9441795e-47
8.9441866e-47
8.9442052e-47
8.9447783e-47
8.9439082e-47
8.9435206e-47
8.9433723e-47
8.9433237e-47
8.9433103e-47
8.9433081e-47
8.9433111e-47
8.9433217e-47
8.9433521e-47
8.9443905e-47
8.9435206e-47
8.9431331e-47
8.9429848e-47
8.9429363e-47
8.9429229e-47
8.9429209e-47
8.9429247e-47
8.9429374e-47
8.9429713e-47
8.9442422e-47
8.9433723e-47
8.9429848e-47
8.9428364e-47
8.942788e-47
8.9427747e-47
8.9427728e-47
8.942777e-47
8.9427904e-47
8.9428254e-47
8.9441936e-47
8.9433237e-47
8.9429363e-47
8.942788e-47
8.9427395e-47
8.9427262e-47
8.9427244e-47
8.9427287e-47
8.9427424e-47
8.9427777e-47
8.9441801e-47
8.9433103e-47
8.9429229e-47
8.9427747e-47
8.9427262e-47
8.9427129e-47
8.9427112e-47
8.9427155e-47
8.9427292e-47
8.9427646e-47
8.9441776e-47
8.9433081e-47
8.9429209e-47
8.9427728e-47
8.9427244e-47
8.9427112e-47
8.9427094e-47
8.9427137e-47
8.9427275e-47
8.9427629e-47
8.9441795e-47
8.9433111e-47
8.9429247e-47
8.942777e-47
8.9427287e-47
8.9427155e-47
8.9427137e-47
8.942718e-47
8.9427318e-47
8.9427672e-47
8.9441866e-47
8.9433217e-47
8.9429374e-47
8.9427904e-47
8.9427424e-47
8.9427292e-47
8.9427275e-47
8.9427318e-47
8.9427456e-47
8.942781e-47
8.9442052e-47
8.9433521e-47
8.9429713e-47
8.9428254e-47
8.9427777e-47
8.9427646e-47
8.9427629e-47
8.9427672e-47
8.942781e-47
8.9428164e-47
5.0956327e-46
5.0951545e-46
5.0949411e-46
5.0948593e-46
5.0948326e-46
5.0948251e-46
5.0948238e-46
5.0948248e-46
5.0948287e-46
5.0948388e-46
5.0951545e-46
5.0946766e-46
5.0944632e-46
5.0943814e-46
5.0943547e-46
5.0943473e-46
5.0943461e-46
5.0943477e-46
5.0943537e-46
5.0943703e-46
5.0949411e-46
5.0944632e-46
5.0942498e-46
5.0941681e-46
5.0941414e-46
5.094134e-46
5.0941329e-46
5.0941351e-46
5.0941421e-46
5.0941608e-46
5.0948593e-46
5.0943814e-46
5.0941681e-46
5.0940864e-46
5.0940597e-46
5.0940523e-46
5.0940513e-46
5.0940536e-46
5.0940611e-46
5.0940804e-46
5.0948326e-46
5.0943547e-46
5.0941414e-46
5.0940597e-46
5.0940329e-46
5.0940256e-46
5.0940246e-46
5.094027e-46
5.0940346e-46
5.0940541e-46
5.0948251e-46
5.0943473e-46
5.094134e-46
5.0940523e-46
5.0940256e-46
5.0940183e-46
5.0940173e-46
5.0940198e-46
5.0940274e-46
5.0940469e-46
5.0948238e-46
5.0943461e-46
5.0941329e-46
5.0940513e-46
5.0940246e-46
5.0940173e-46
5.0940164e-46
5.0940188e-46
5.0940265e-46
5.0940459e-46
5.0948248e-46
5.0943477e-46
5.0941351e-46
5.0940536e-46
5.094027e-46
5.0940198e-46
5.0940188e-46
5.0940212e-46
5.0940289e-46
5.0940484e-46
5.0948287e-46
5.0943537e-46
5.0941421e-46
5.0940611e-46
5.0940346e-46
5.0940274e-46
5.0940265e-46
5.0940289e-46
5.0940365e-46
5.094056e-46
5.0948388e-46
5.0943703e-46
5.0941608e-46
5.0940804e-46
5.0940541e-46
5.0940469e-46
5.0940459e-46
5.0940484e-46
5.094056e-46
5.0940755e-46
2.9636228e-45
2.9633548e-45
2.9632349e-45
2.9631889e-45
2.9631739e-45
2.9631697e-45
2.9631689e-45
2.9631695e-45
2.9631717e-45
2.9631773e-45
2.9633548e-45
2.9630868e-45
2.962967e-45
2.962921e-45
2.962906e-45
2.9629018e-45
2.9629011e-45
2.9629021e-45
2.9629054e-45
2.9629148e-45
2.9632349e-45
2.962967e-45
2.9628471e-45
2.9628012e-45
2.9627862e-45
2.962782e-45
2.9627814e-45
2.9627826e-45
2.9627866e-45
2.9627971e-45
2.9631889e-45
2.962921e-45
2.9628012e-45
2.9627553e-45
2.9627402e-45
2.9627361e-45
2.9627355e-45
2.9627369e-45
2.9627411e-45
2.9627519e-45
2.9631739e-45
2.962906e-45
2.9627862e-45
2.9627402e-45
2.9627252e-45
2.9627211e-45
2.9627205e-45
2.9627219e-45
2.9627262e-45
2.9627372e-45
2.9631697e-45
2.9629018e-45
2.962782e-45
2.9627361e-45
2.9627211e-45
2.962717e-45
2.9627164e-45
2.9627178e-45
2.9627222e-45
2.9627331e-45
2.9631689e-45
2.9629011e-45
2.9627814e-45
2.9627355e-45
2.9627205e-45
2.9627164e-45
2.9627159e-45
2.9627173e-45
2.9627216e-45
2.9627326e-45
2.9631695e-45
2.9629021e-45
2.9627826e-45
2.9627369e-45
2.9627219e-45
2.9627178e-45
2.9627173e-45
2.9627187e-45
2.962723e-45
2.962734e-45
2.9631717e-45
2.9629054e-45
2.9627866e-45
2.9627411e-45
2.9627262e-45
2.9627222e-45
2.9627216e-45
2.962723e-45
2.9627274e-45
2.9627383e-45
2.9631773e-45
2.9629148e-45
2.9627971e-45
2.9627519e-45
2.9627372e-45
2.9627331e-45
2.9627326e-45
2.962734e-45
2.9627383e-45
2.9627493e-45
1.7596583e-44
1.759505e-44
1.7594363e-44
1.75941e-44
1.7594013e-44
1.7593989e-44
1.7593985e-44
1.7593988e-44
1.7594001e-44
1.7594033e-44
1.759505e-44
1.7593518e-44
1.7592831e-44
1.7592568e-44
1.7592481e-44
1.7592458e-44
1.7592454e-44
1.7592459e-44
1.7592479e-44
1.7592532e-44
1.7594363e-44
1.7592831e-44
1.7592145e-44
1.7591881e-44
1.7591795e-44
1.7591771e-44
1.7591768e-44
1.7591775e-44
1.7591798e-44
1.7591858e-44
1.75941e-44
1.7592568e-44
1.7591881e-44
1.7591618e-44
1.7591531e-44
1.7591508e-44
1.7591505e-44
1.7591512e-44
1.7591537e-44
1.7591599e-44
1.7594013e-44
1.7592481e-44
1.7591795e-44
1.7591531e-44
1.7591445e-44
1.7591422e-44
1.7591418e-44
1.7591426e-44
1.7591451e-44
1.7591514e-44
1.7593989e-44
1.7592458e-44
1.7591771e-44
1.7591508e-44
1.7591422e-44
1.7591398e-44
1.7591395e-44
1.7591403e-44
1.7591428e-44
1.7591491e-44
1.7593985e-44
1.7592454e-44
1.7591768e-44
1.7591505e-44
1.7591418e-44
1.7591395e-44
1.7591392e-44
1.75914e-44
1.7591425e-44
1.7591488e-44
1.7593988e-44
1.7592459e-44
1.7591775e-44
1.7591512e-44
1.7591426e-44
1.7591403e-44
1.75914e-44
1.7591408e-44
1.7591433e-44
1.7591496e-44
1.7594001e-44
1.7592479e-44
1.7591798e-44
1.7591537e-44
1.7591451e-44
1.7591428e-44
1.7591425e-44
1.7591433e-44
1.7591458e-44
1.7591521e-44
1.7594033e-44
1.7592532e-44
1.7591858e-44
1.7591599e-44
1.7591514e-44
1.7591491e-44
1.7591488e-44
1.7591496e-44
1.7591521e-44
1.7591584e-44
1.0664706e-43
1.0663812e-43
1.066341e-43
1.0663256e-43
1.0663206e-43
1.0663192e-43
1.0663189e-43
1.0663191e-43
1.0663199e-43
1.0663217e-43
1.0663812e-43
1.0662918e-43
1.0662517e-43
1.0662363e-43
1.0662312e-43
1.0662298e-43
1.0662296e-43
1.0662299e-43
1.0662311e-43
1.0662342e-43
1.066341e-43
1.0662517e-43
1.0662115e-43
1.0661961e-43
1.0661911e-43
1.0661897e-43
1.0661895e-43
1.0661899e-43
1.0661913e-43
1.0661948e-43
1.0663256e-43
1.0662363e-43
1.0661961e-43
1.0661807e-43
1.0661757e-43
1.0661743e-43
1.0661741e-43
1.0661746e-43
1.066176e-43
1.0661797e-43
1.0663206e-43
1.0662312e-43
1.0661911e-43
1.0661757e-43
1.0661706e-43
1.0661693e-43
1.0661691e-43
1.0661696e-43
1.066171e-43
1.0661747e-43
1.0663192e-43
1.0662298e-43
1.0661897e-43
1.0661743e-43
1.0661693e-43
1.0661679e-43
1.0661677e-43
1.0661682e-43
1.0661697e-43
1.0661734e-43
1.0663189e-43
1.0662296e-43
1.0661895e-43
1.0661741e-43
1.0661691e-43
1.0661677e-43
1.0661675e-43
1.066168e-43
1.0661695e-43
1.0661732e-43
1.0663191e-43
1.0662299e-43
1.0661899e-43
1.0661746e-43
1.0661696e-43
1.0661682e-43
1.066168e-43
1.0661685e-43
1.06617e-43
1.0661737e-43
1.0663199e-43
1.0662311e-43
1.0661913e-43
1.066176e-43
1.066171e-43
1.0661697e-43
1.0661695e-43
1.06617e-43
1.0661715e-43
1.0661752e-43
1.0663217e-43
1.0662342e-43
1.0661948e-43
1.0661797e-43
1.0661747e-43
1.0661734e-43