/*--------------------------------*- C++ -*----------------------------------*\
| =========                 |                                                 |
| \\      /  F ield         | OpenFOAM: The Open Source CFD Toolbox           |
|  \\    /   O peration     | Version:  dev                                   |
|   \\  /    A nd           | Web:      www.OpenFOAM.org                      |
|    \\/     M anipulation  |                                                 |
\*---------------------------------------------------------------------------*/
FoamFile
{
    version     2.0;
    format      ascii;
    class       volScalarField;
    location    "17";
    object      A_0;
}
// * * * * * * * * * * * * * * * * * * * * * * * * * * * * * * * * * * * * * //

dimensions      [0 0 0 0 1 0 0];

internalField   nonuniform List<scalar> 
10000
(
9.6191417e-58
9.6175903e-58
9.6169329e-58
9.6166855e-58
9.6166052e-58
9.6165829e-58
9.6165785e-58
9.6165814e-58
9.616594e-58
9.6166365e-58
9.6175903e-58
9.6160398e-58
9.6153826e-58
9.6151353e-58
9.615055e-58
9.6150328e-58
9.6150289e-58
9.6150331e-58
9.6150505e-58
9.6151087e-58
9.6169329e-58
9.6153826e-58
9.6147255e-58
9.6144782e-58
9.614398e-58
9.6143759e-58
9.6143723e-58
9.6143776e-58
9.6143977e-58
9.6144605e-58
9.6166855e-58
9.6151353e-58
9.6144782e-58
9.614231e-58
9.6141508e-58
9.6141287e-58
9.6141253e-58
9.6141311e-58
9.6141522e-58
9.6142165e-58
9.6166052e-58
9.615055e-58
9.614398e-58
9.6141508e-58
9.6140706e-58
9.6140486e-58
9.6140452e-58
9.6140512e-58
9.6140726e-58
9.6141373e-58
9.6165829e-58
9.6150328e-58
9.6143759e-58
9.6141287e-58
9.6140486e-58
9.6140265e-58
9.6140232e-58
9.6140292e-58
9.6140508e-58
9.6141155e-58
9.6165785e-58
9.6150289e-58
9.6143723e-58
9.6141253e-58
9.6140452e-58
9.6140232e-58
9.6140199e-58
9.6140259e-58
9.6140475e-58
9.6141123e-58
9.6165814e-58
9.6150331e-58
9.6143776e-58
9.6141311e-58
9.6140512e-58
9.6140292e-58
9.6140259e-58
9.614032e-58
9.6140535e-58
9.6141183e-58
9.616594e-58
9.6150505e-58
9.6143977e-58
9.6141522e-58
9.6140726e-58
9.6140508e-58
9.6140475e-58
9.6140535e-58
9.6140751e-58
9.6141399e-58
9.6166365e-58
9.6151087e-58
9.6144605e-58
9.6142165e-58
9.6141373e-58
9.6141155e-58
9.6141123e-58
9.6141183e-58
9.6141399e-58
9.6142047e-58
5.1047058e-57
5.1039055e-57
5.1035629e-57
5.1034338e-57
5.1033919e-57
5.1033802e-57
5.103378e-57
5.1033795e-57
5.103386e-57
5.103409e-57
5.1039055e-57
5.1031056e-57
5.1027631e-57
5.1026341e-57
5.1025922e-57
5.1025806e-57
5.1025785e-57
5.1025807e-57
5.1025898e-57
5.102621e-57
5.1035629e-57
5.1027631e-57
5.1024206e-57
5.1022916e-57
5.1022498e-57
5.1022382e-57
5.1022364e-57
5.1022391e-57
5.1022496e-57
5.1022833e-57
5.1034338e-57
5.1026341e-57
5.1022916e-57
5.1021627e-57
5.1021208e-57
5.1021093e-57
5.1021075e-57
5.1021105e-57
5.1021216e-57
5.102156e-57
5.1033919e-57
5.1025922e-57
5.1022498e-57
5.1021208e-57
5.1020789e-57
5.1020674e-57
5.1020657e-57
5.1020688e-57
5.10208e-57
5.1021146e-57
5.1033802e-57
5.1025806e-57
5.1022382e-57
5.1021093e-57
5.1020674e-57
5.1020559e-57
5.1020542e-57
5.1020574e-57
5.1020686e-57
5.1021033e-57
5.103378e-57
5.1025785e-57
5.1022364e-57
5.1021075e-57
5.1020657e-57
5.1020542e-57
5.1020525e-57
5.1020556e-57
5.1020669e-57
5.1021016e-57
5.1033795e-57
5.1025807e-57
5.1022391e-57
5.1021105e-57
5.1020688e-57
5.1020574e-57
5.1020556e-57
5.1020588e-57
5.1020701e-57
5.1021048e-57
5.103386e-57
5.1025898e-57
5.1022496e-57
5.1021216e-57
5.10208e-57
5.1020686e-57
5.1020669e-57
5.1020701e-57
5.1020814e-57
5.102116e-57
5.103409e-57
5.102621e-57
5.1022833e-57
5.102156e-57
5.1021146e-57
5.1021033e-57
5.1021016e-57
5.1021048e-57
5.102116e-57
5.1021507e-57
2.1453154e-56
2.1449885e-56
2.1448479e-56
2.144795e-56
2.1447777e-56
2.1447729e-56
2.144772e-56
2.1447726e-56
2.1447753e-56
2.1447846e-56
2.1449885e-56
2.1446616e-56
2.1445212e-56
2.1444682e-56
2.144451e-56
2.1444462e-56
2.1444454e-56
2.1444463e-56
2.14445e-56
2.1444628e-56
2.1448479e-56
2.1445212e-56
2.1443808e-56
2.1443278e-56
2.1443106e-56
2.1443059e-56
2.1443051e-56
2.1443062e-56
2.1443105e-56
2.1443243e-56
2.144795e-56
2.1444682e-56
2.1443278e-56
2.1442748e-56
2.1442576e-56
2.1442529e-56
2.1442522e-56
2.1442534e-56
2.144258e-56
2.1442721e-56
2.1447777e-56
2.144451e-56
2.1443106e-56
2.1442576e-56
2.1442404e-56
2.1442357e-56
2.144235e-56
2.1442363e-56
2.1442409e-56
2.1442551e-56
2.1447729e-56
2.1444462e-56
2.1443059e-56
2.1442529e-56
2.1442357e-56
2.144231e-56
2.1442303e-56
2.1442316e-56
2.1442362e-56
2.1442504e-56
2.144772e-56
2.1444454e-56
2.1443051e-56
2.1442522e-56
2.144235e-56
2.1442303e-56
2.1442296e-56
2.1442309e-56
2.1442355e-56
2.1442497e-56
2.1447726e-56
2.1444463e-56
2.1443062e-56
2.1442534e-56
2.1442363e-56
2.1442316e-56
2.1442309e-56
2.1442322e-56
2.1442368e-56
2.144251e-56
2.1447753e-56
2.14445e-56
2.1443105e-56
2.144258e-56
2.1442409e-56
2.1442362e-56
2.1442355e-56
2.1442368e-56
2.1442415e-56
2.1442557e-56
2.1447846e-56
2.1444628e-56
2.1443243e-56
2.1442721e-56
2.1442551e-56
2.1442504e-56
2.1442497e-56
2.144251e-56
2.1442557e-56
2.1442699e-56
9.0882488e-56
9.0869031e-56
9.0863231e-56
9.0861041e-56
9.0860329e-56
9.0860131e-56
9.0860093e-56
9.0860118e-56
9.0860228e-56
9.0860603e-56
9.0869031e-56
9.0855582e-56
9.0849784e-56
9.0847594e-56
9.0846882e-56
9.0846686e-56
9.0846651e-56
9.0846689e-56
9.0846842e-56
9.0847361e-56
9.0863231e-56
9.0849784e-56
9.0843986e-56
9.0841798e-56
9.0841086e-56
9.084089e-56
9.0840859e-56
9.0840906e-56
9.0841084e-56
9.0841646e-56
9.0861041e-56
9.0847594e-56
9.0841798e-56
9.0839609e-56
9.0838898e-56
9.0838702e-56
9.0838672e-56
9.0838725e-56
9.0838912e-56
9.0839486e-56
9.0860329e-56
9.0846882e-56
9.0841086e-56
9.0838898e-56
9.0838187e-56
9.0837991e-56
9.0837962e-56
9.0838016e-56
9.0838206e-56
9.0838784e-56
9.0860131e-56
9.0846686e-56
9.084089e-56
9.0838702e-56
9.0837991e-56
9.0837796e-56
9.0837767e-56
9.0837821e-56
9.0838012e-56
9.0838591e-56
9.0860093e-56
9.0846651e-56
9.0840859e-56
9.0838672e-56
9.0837962e-56
9.0837767e-56
9.0837738e-56
9.0837793e-56
9.0837984e-56
9.0838563e-56
9.0860118e-56
9.0846689e-56
9.0840906e-56
9.0838725e-56
9.0838016e-56
9.0837821e-56
9.0837793e-56
9.0837847e-56
9.0838038e-56
9.0838618e-56
9.0860228e-56
9.0846842e-56
9.0841084e-56
9.0838912e-56
9.0838206e-56
9.0838012e-56
9.0837984e-56
9.0838038e-56
9.083823e-56
9.0838809e-56
9.0860603e-56
9.0847361e-56
9.0841646e-56
9.0839486e-56
9.0838784e-56
9.0838591e-56
9.0838563e-56
9.0838618e-56
9.0838809e-56
9.0839388e-56
3.9296244e-55
3.9290594e-55
3.9288152e-55
3.9287229e-55
3.9286928e-55
3.9286845e-55
3.9286829e-55
3.928684e-55
3.9286885e-55
3.9287039e-55
3.9290594e-55
3.9284947e-55
3.9282506e-55
3.9281583e-55
3.9281282e-55
3.9281199e-55
3.9281185e-55
3.9281201e-55
3.9281265e-55
3.928148e-55
3.9288152e-55
3.9282506e-55
3.9280065e-55
3.9279142e-55
3.9278842e-55
3.9278759e-55
3.9278746e-55
3.9278766e-55
3.9278841e-55
3.9279074e-55
3.9287229e-55
3.9281583e-55
3.9279142e-55
3.9278219e-55
3.9277919e-55
3.9277836e-55
3.9277824e-55
3.9277846e-55
3.9277925e-55
3.9278164e-55
3.9286928e-55
3.9281282e-55
3.9278842e-55
3.9277919e-55
3.9277619e-55
3.9277537e-55
3.9277524e-55
3.9277547e-55
3.9277628e-55
3.9277868e-55
3.9286845e-55
3.9281199e-55
3.9278759e-55
3.9277836e-55
3.9277537e-55
3.9277454e-55
3.9277442e-55
3.9277465e-55
3.9277546e-55
3.9277787e-55
3.9286829e-55
3.9281185e-55
3.9278746e-55
3.9277824e-55
3.9277524e-55
3.9277442e-55
3.927743e-55
3.9277453e-55
3.9277534e-55
3.9277775e-55
3.928684e-55
3.9281201e-55
3.9278766e-55
3.9277846e-55
3.9277547e-55
3.9277465e-55
3.9277453e-55
3.9277476e-55
3.9277557e-55
3.9277798e-55
3.9286885e-55
3.9281265e-55
3.9278841e-55
3.9277925e-55
3.9277628e-55
3.9277546e-55
3.9277534e-55
3.9277557e-55
3.9277638e-55
3.9277879e-55
3.9287039e-55
3.928148e-55
3.9279074e-55
3.9278164e-55
3.9277868e-55
3.9277787e-55
3.9277775e-55
3.9277798e-55
3.9277879e-55
3.927812e-55
1.7355151e-54
1.7352729e-54
1.7351679e-54
1.7351282e-54
1.7351152e-54
1.7351116e-54
1.7351109e-54
1.7351114e-54
1.7351134e-54
1.7351198e-54
1.7352729e-54
1.7350308e-54
1.7349258e-54
1.7348861e-54
1.7348732e-54
1.7348696e-54
1.734869e-54
1.7348697e-54
1.7348725e-54
1.7348816e-54
1.7351679e-54
1.7349258e-54
1.7348209e-54
1.7347812e-54
1.7347683e-54
1.7347647e-54
1.7347641e-54
1.734765e-54
1.7347682e-54
1.7347781e-54
1.7351282e-54
1.7348861e-54
1.7347812e-54
1.7347415e-54
1.7347286e-54
1.734725e-54
1.7347245e-54
1.7347254e-54
1.7347288e-54
1.734739e-54
1.7351152e-54
1.7348732e-54
1.7347683e-54
1.7347286e-54
1.7347156e-54
1.7347121e-54
1.7347116e-54
1.7347126e-54
1.734716e-54
1.7347262e-54
1.7351116e-54
1.7348696e-54
1.7347647e-54
1.734725e-54
1.7347121e-54
1.7347085e-54
1.734708e-54
1.734709e-54
1.7347125e-54
1.7347227e-54
1.7351109e-54
1.734869e-54
1.7347641e-54
1.7347245e-54
1.7347116e-54
1.734708e-54
1.7347075e-54
1.7347085e-54
1.734712e-54
1.7347222e-54
1.7351114e-54
1.7348697e-54
1.734765e-54
1.7347254e-54
1.7347126e-54
1.734709e-54
1.7347085e-54
1.7347095e-54
1.734713e-54
1.7347232e-54
1.7351134e-54
1.7348725e-54
1.7347682e-54
1.7347288e-54
1.734716e-54
1.7347125e-54
1.734712e-54
1.734713e-54
1.7347165e-54
1.7347267e-54
1.7351198e-54
1.7348816e-54
1.7347781e-54
1.734739e-54
1.7347262e-54
1.7347227e-54
1.7347222e-54
1.7347232e-54
1.7347267e-54
1.7347369e-54
7.8297187e-54
7.8286585e-54
7.8281976e-54
7.828023e-54
7.8279661e-54
7.8279503e-54
7.8279473e-54
7.8279493e-54
7.8279579e-54
7.8279853e-54
7.8286585e-54
7.8275988e-54
7.8271381e-54
7.8269635e-54
7.8269067e-54
7.826891e-54
7.8268882e-54
7.8268913e-54
7.8269035e-54
7.8269428e-54
7.8281976e-54
7.8271381e-54
7.8266774e-54
7.8265029e-54
7.8264461e-54
7.8264305e-54
7.826428e-54
7.8264319e-54
7.8264461e-54
7.826489e-54
7.828023e-54
7.8269635e-54
7.8265029e-54
7.8263284e-54
7.8262716e-54
7.826256e-54
7.8262536e-54
7.8262579e-54
7.8262729e-54
7.8263169e-54
7.8279661e-54
7.8269067e-54
7.8264461e-54
7.8262716e-54
7.8262148e-54
7.8261992e-54
7.8261969e-54
7.8262014e-54
7.8262166e-54
7.8262609e-54
7.8279503e-54
7.826891e-54
7.8264305e-54
7.826256e-54
7.8261992e-54
7.8261837e-54
7.8261814e-54
7.8261858e-54
7.8262011e-54
7.8262455e-54
7.8279473e-54
7.8268882e-54
7.826428e-54
7.8262536e-54
7.8261969e-54
7.8261814e-54
7.8261791e-54
7.8261836e-54
7.8261989e-54
7.8262433e-54
7.8279493e-54
7.8268913e-54
7.8264319e-54
7.8262579e-54
7.8262014e-54
7.8261858e-54
7.8261836e-54
7.8261881e-54
7.8262034e-54
7.8262478e-54
7.8279579e-54
7.8269035e-54
7.8264461e-54
7.8262729e-54
7.8262166e-54
7.8262011e-54
7.8261989e-54
7.8262034e-54
7.8262187e-54
7.8262631e-54
7.8279853e-54
7.8269428e-54
7.826489e-54
7.8263169e-54
7.8262609e-54
7.8262455e-54
7.8262433e-54
7.8262478e-54
7.8262631e-54
7.8263075e-54
3.6084296e-53
3.6079558e-53
3.6077493e-53
3.6076709e-53
3.6076454e-53
3.6076383e-53
3.6076369e-53
3.6076379e-53
3.6076417e-53
3.6076537e-53
3.6079558e-53
3.6074822e-53
3.6072757e-53
3.6071974e-53
3.6071719e-53
3.6071648e-53
3.6071636e-53
3.607165e-53
3.6071705e-53
3.6071879e-53
3.6077493e-53
3.6072757e-53
3.6070693e-53
3.606991e-53
3.6069655e-53
3.6069585e-53
3.6069573e-53
3.6069591e-53
3.6069655e-53
3.6069845e-53
3.6076709e-53
3.6071974e-53
3.606991e-53
3.6069127e-53
3.6068872e-53
3.6068802e-53
3.6068791e-53
3.6068811e-53
3.6068878e-53
3.6069073e-53
3.6076454e-53
3.6071719e-53
3.6069655e-53
3.6068872e-53
3.6068617e-53
3.6068547e-53
3.6068537e-53
3.6068557e-53
3.6068625e-53
3.6068822e-53
3.6076383e-53
3.6071648e-53
3.6069585e-53
3.6068802e-53
3.6068547e-53
3.6068477e-53
3.6068467e-53
3.6068487e-53
3.6068556e-53
3.6068753e-53
3.6076369e-53
3.6071636e-53
3.6069573e-53
3.6068791e-53
3.6068537e-53
3.6068467e-53
3.6068457e-53
3.6068477e-53
3.6068546e-53
3.6068743e-53
3.6076379e-53
3.607165e-53
3.6069591e-53
3.6068811e-53
3.6068557e-53
3.6068487e-53
3.6068477e-53
3.6068498e-53
3.6068566e-53
3.6068763e-53
3.6076417e-53
3.6071705e-53
3.6069655e-53
3.6068878e-53
3.6068625e-53
3.6068556e-53
3.6068546e-53
3.6068566e-53
3.6068635e-53
3.6068832e-53
3.6076537e-53
3.6071879e-53
3.6069845e-53
3.6069073e-53
3.6068822e-53
3.6068753e-53
3.6068743e-53
3.6068763e-53
3.6068832e-53
3.6069029e-53
1.698842e-52
1.6986258e-52
1.6985313e-52
1.6984954e-52
1.6984837e-52
1.6984804e-52
1.6984798e-52
1.6984803e-52
1.698482e-52
1.6984873e-52
1.6986258e-52
1.6984096e-52
1.6983152e-52
1.6982793e-52
1.6982676e-52
1.6982644e-52
1.6982638e-52
1.6982645e-52
1.698267e-52
1.6982748e-52
1.6985313e-52
1.6983152e-52
1.6982207e-52
1.6981848e-52
1.6981732e-52
1.6981699e-52
1.6981694e-52
1.6981703e-52
1.6981732e-52
1.6981818e-52
1.6984954e-52
1.6982793e-52
1.6981848e-52
1.698149e-52
1.6981373e-52
1.6981341e-52
1.6981336e-52
1.6981345e-52
1.6981376e-52
1.6981465e-52
1.6984837e-52
1.6982676e-52
1.6981732e-52
1.6981373e-52
1.6981256e-52
1.6981224e-52
1.6981219e-52
1.6981229e-52
1.698126e-52
1.6981349e-52
1.6984804e-52
1.6982644e-52
1.6981699e-52
1.6981341e-52
1.6981224e-52
1.6981192e-52
1.6981187e-52
1.6981197e-52
1.6981228e-52
1.6981318e-52
1.6984798e-52
1.6982638e-52
1.6981694e-52
1.6981336e-52
1.6981219e-52
1.6981187e-52
1.6981183e-52
1.6981192e-52
1.6981224e-52
1.6981313e-52
1.6984803e-52
1.6982645e-52
1.6981703e-52
1.6981345e-52
1.6981229e-52
1.6981197e-52
1.6981192e-52
1.6981202e-52
1.6981233e-52
1.6981323e-52
1.698482e-52
1.698267e-52
1.6981732e-52
1.6981376e-52
1.698126e-52
1.6981228e-52
1.6981224e-52
1.6981233e-52
1.6981265e-52
1.6981354e-52
1.6984873e-52
1.6982748e-52
1.6981818e-52
1.6981465e-52
1.6981349e-52
1.6981318e-52
1.6981313e-52
1.6981323e-52
1.6981354e-52
1.6981444e-52
8.1705963e-52
8.1695887e-52
8.1691472e-52
8.1689793e-52
8.1689246e-52
8.1689094e-52
8.1689065e-52
8.1689085e-52
8.1689166e-52
8.168941e-52
8.1695887e-52
8.1685815e-52
8.1681401e-52
8.1679724e-52
8.1679177e-52
8.1679025e-52
8.1678999e-52
8.167903e-52
8.1679147e-52
8.1679511e-52
8.1691472e-52
8.1681401e-52
8.1676988e-52
8.1675311e-52
8.1674764e-52
8.1674614e-52
8.167459e-52
8.1674629e-52
8.1674766e-52
8.1675166e-52
8.1689793e-52
8.1679724e-52
8.1675311e-52
8.1673634e-52
8.1673087e-52
8.1672937e-52
8.1672915e-52
8.1672958e-52
8.1673103e-52
8.1673513e-52
8.1689246e-52
8.1679177e-52
8.1674764e-52
8.1673087e-52
8.1672541e-52
8.1672391e-52
8.1672369e-52
8.1672413e-52
8.1672561e-52
8.1672974e-52
8.1689094e-52
8.1679025e-52
8.1674614e-52
8.1672937e-52
8.1672391e-52
8.1672241e-52
8.167222e-52
8.1672264e-52
8.1672412e-52
8.1672826e-52
8.1689065e-52
8.1678999e-52
8.167459e-52
8.1672915e-52
8.1672369e-52
8.167222e-52
8.1672198e-52
8.1672243e-52
8.1672391e-52
8.1672805e-52
8.1689085e-52
8.167903e-52
8.1674629e-52
8.1672958e-52
8.1672413e-52
8.1672264e-52
8.1672243e-52
8.1672287e-52
8.1672436e-52
8.167285e-52
8.1689166e-52
8.1679147e-52
8.1674766e-52
8.1673103e-52
8.1672561e-52
8.1672412e-52
8.1672391e-52
8.1672436e-52
8.1672585e-52
8.1672999e-52
8.168941e-52
8.1679511e-52
8.1675166e-52
8.1673513e-52
8.1672974e-52
8.1672826e-52
8.1672805e-52
8.167285e-52
8.1672999e-52
8.1673413e-52
4.0143819e-51
4.0139025e-51
4.0136919e-51
4.0136118e-51
4.0135856e-51
4.0135784e-51
4.013577e-51
4.013578e-51
4.0135818e-51
4.0135932e-51
4.0139025e-51
4.0134233e-51
4.0132128e-51
4.0131327e-51
4.0131065e-51
4.0130993e-51
4.0130981e-51
4.0130996e-51
4.0131052e-51
4.0131223e-51
4.0136919e-51
4.0132128e-51
4.0130023e-51
4.0129222e-51
4.0128961e-51
4.0128889e-51
4.0128878e-51
4.0128897e-51
4.0128962e-51
4.0129151e-51
4.0136118e-51
4.0131327e-51
4.0129222e-51
4.0128421e-51
4.012816e-51
4.0128088e-51
4.0128078e-51
4.0128098e-51
4.0128168e-51
4.0128362e-51
4.0135856e-51
4.0131065e-51
4.0128961e-51
4.012816e-51
4.0127899e-51
4.0127827e-51
4.0127817e-51
4.0127838e-51
4.0127909e-51
4.0128105e-51
4.0135784e-51
4.0130993e-51
4.0128889e-51
4.0128088e-51
4.0127827e-51
4.0127756e-51
4.0127746e-51
4.0127767e-51
4.0127838e-51
4.0128034e-51
4.013577e-51
4.0130981e-51
4.0128878e-51
4.0128078e-51
4.0127817e-51
4.0127746e-51
4.0127736e-51
4.0127757e-51
4.0127828e-51
4.0128024e-51
4.013578e-51
4.0130996e-51
4.0128897e-51
4.0128098e-51
4.0127838e-51
4.0127767e-51
4.0127757e-51
4.0127779e-51
4.012785e-51
4.0128046e-51
4.0135818e-51
4.0131052e-51
4.0128962e-51
4.0128168e-51
4.0127909e-51
4.0127838e-51
4.0127828e-51
4.012785e-51
4.0127921e-51
4.0128117e-51
4.0135932e-51
4.0131223e-51
4.0129151e-51
4.0128362e-51
4.0128105e-51
4.0128034e-51
4.0128024e-51
4.0128046e-51
4.0128117e-51
4.0128314e-51
2.0148403e-50
2.0146074e-50
2.0145048e-50
2.0144657e-50
2.014453e-50
2.0144495e-50
2.0144488e-50
2.0144493e-50
2.0144511e-50
2.0144565e-50
2.0146074e-50
2.0143746e-50
2.0142721e-50
2.014233e-50
2.0142203e-50
2.0142167e-50
2.0142161e-50
2.0142169e-50
2.0142196e-50
2.0142279e-50
2.0145048e-50
2.0142721e-50
2.0141696e-50
2.0141305e-50
2.0141178e-50
2.0141143e-50
2.0141137e-50
2.0141147e-50
2.0141179e-50
2.014127e-50
2.0144657e-50
2.014233e-50
2.0141305e-50
2.0140915e-50
2.0140787e-50
2.0140752e-50
2.0140747e-50
2.0140758e-50
2.0140792e-50
2.0140886e-50
2.014453e-50
2.0142203e-50
2.0141178e-50
2.0140787e-50
2.014066e-50
2.0140625e-50
2.014062e-50
2.0140631e-50
2.0140665e-50
2.014076e-50
2.0144495e-50
2.0142167e-50
2.0141143e-50
2.0140752e-50
2.0140625e-50
2.014059e-50
2.0140585e-50
2.0140596e-50
2.0140631e-50
2.0140726e-50
2.0144488e-50
2.0142161e-50
2.0141137e-50
2.0140747e-50
2.014062e-50
2.0140585e-50
2.014058e-50
2.0140591e-50
2.0140626e-50
2.0140721e-50
2.0144493e-50
2.0142169e-50
2.0141147e-50
2.0140758e-50
2.0140631e-50
2.0140596e-50
2.0140591e-50
2.0140602e-50
2.0140637e-50
2.0140732e-50
2.0144511e-50
2.0142196e-50
2.0141179e-50
2.0140792e-50
2.0140665e-50
2.0140631e-50
2.0140626e-50
2.0140637e-50
2.0140672e-50
2.0140767e-50
2.0144565e-50
2.0142279e-50
2.014127e-50
2.0140886e-50
2.014076e-50
2.0140726e-50
2.0140721e-50
2.0140732e-50
2.0140767e-50
2.0140862e-50
1.0330155e-49
1.0329e-49
1.032849e-49
1.0328295e-49
1.0328232e-49
1.0328214e-49
1.0328211e-49
1.0328213e-49
1.0328223e-49
1.0328249e-49
1.0329e-49
1.0327845e-49
1.0327335e-49
1.0327141e-49
1.0327078e-49
1.032706e-49
1.0327057e-49
1.0327061e-49
1.0327074e-49
1.0327115e-49
1.032849e-49
1.0327335e-49
1.0326826e-49
1.0326632e-49
1.0326568e-49
1.0326551e-49
1.0326548e-49
1.0326553e-49
1.0326569e-49
1.0326614e-49
1.0328295e-49
1.0327141e-49
1.0326632e-49
1.0326437e-49
1.0326374e-49
1.0326356e-49
1.0326354e-49
1.0326359e-49
1.0326376e-49
1.0326423e-49
1.0328232e-49
1.0327078e-49
1.0326568e-49
1.0326374e-49
1.0326311e-49
1.0326293e-49
1.0326291e-49
1.0326296e-49
1.0326313e-49
1.032636e-49
1.0328214e-49
1.032706e-49
1.0326551e-49
1.0326356e-49
1.0326293e-49
1.0326276e-49
1.0326273e-49
1.0326279e-49
1.0326296e-49
1.0326343e-49
1.0328211e-49
1.0327057e-49
1.0326548e-49
1.0326354e-49
1.0326291e-49
1.0326273e-49
1.0326271e-49
1.0326276e-49
1.0326294e-49
1.0326341e-49
1.0328213e-49
1.0327061e-49
1.0326553e-49
1.0326359e-49
1.0326296e-49
1.0326279e-49
1.0326276e-49
1.0326282e-49
1.0326299e-49
1.0326346e-49
1.0328223e-49
1.0327074e-49
1.0326569e-49
1.0326376e-49
1.0326313e-49
1.0326296e-49
1.0326294e-49
1.0326299e-49
1.0326317e-49
1.0326364e-49
1.0328249e-49
1.0327115e-49
1.0326614e-49
1.0326423e-49
1.032636e-49
1.0326343e-49
1.0326341e-49
1.0326346e-49
1.0326364e-49
1.0326411e-49
5.4100196e-49
5.4094347e-49
5.409176e-49
5.4090772e-49
5.409045e-49
5.409036e-49
5.4090343e-49
5.4090356e-49
5.4090403e-49
5.4090534e-49
5.4094347e-49
5.4088501e-49
5.4085915e-49
5.4084928e-49
5.4084605e-49
5.4084516e-49
5.4084501e-49
5.408452e-49
5.408459e-49
5.4084796e-49
5.409176e-49
5.4085915e-49
5.4083329e-49
5.4082342e-49
5.4082019e-49
5.4081931e-49
5.4081917e-49
5.4081941e-49
5.4082024e-49
5.4082252e-49
5.4090772e-49
5.4084928e-49
5.4082342e-49
5.4081355e-49
5.4081033e-49
5.4080944e-49
5.4080932e-49
5.4080958e-49
5.4081045e-49
5.408128e-49
5.409045e-49
5.4084605e-49
5.4082019e-49
5.4081033e-49
5.4080711e-49
5.4080622e-49
5.408061e-49
5.4080637e-49
5.4080726e-49
5.4080963e-49
5.409036e-49
5.4084516e-49
5.4081931e-49
5.4080944e-49
5.4080622e-49
5.4080534e-49
5.4080522e-49
5.4080549e-49
5.4080639e-49
5.4080876e-49
5.4090343e-49
5.4084501e-49
5.4081917e-49
5.4080932e-49
5.408061e-49
5.4080522e-49
5.408051e-49
5.4080537e-49
5.4080627e-49
5.4080864e-49
5.4090356e-49
5.408452e-49
5.4081941e-49
5.4080958e-49
5.4080637e-49
5.4080549e-49
5.4080537e-49
5.4080565e-49
5.4080654e-49
5.4080892e-49
5.4090403e-49
5.408459e-49
5.4082024e-49
5.4081045e-49
5.4080726e-49
5.4080639e-49
5.4080627e-49
5.4080654e-49
5.4080744e-49
5.4080981e-49
5.4090534e-49
5.4084796e-49
5.4082252e-49
5.408128e-49
5.4080963e-49
5.4080876e-49
5.4080864e-49
5.4080892e-49
5.4080981e-49
5.4081219e-49
2.8939579e-48
2.8936556e-48
2.8935216e-48
2.8934704e-48
2.8934537e-48
2.893449e-48
2.8934481e-48
2.8934488e-48
2.8934512e-48
2.8934579e-48
2.8936556e-48
2.8933535e-48
2.8932195e-48
2.8931683e-48
2.8931516e-48
2.8931469e-48
2.8931462e-48
2.8931472e-48
2.8931508e-48
2.8931614e-48
2.8935216e-48
2.8932195e-48
2.8930855e-48
2.8930343e-48
2.8930176e-48
2.893013e-48
2.8930123e-48
2.8930136e-48
2.8930179e-48
2.8930297e-48
2.8934704e-48
2.8931683e-48
2.8930343e-48
2.8929831e-48
2.8929664e-48
2.8929618e-48
2.8929612e-48
2.8929626e-48
2.8929671e-48
2.8929793e-48
2.8934537e-48
2.8931516e-48
2.8930176e-48
2.8929664e-48
2.8929497e-48
2.8929451e-48
2.8929445e-48
2.8929459e-48
2.8929506e-48
2.8929628e-48
2.893449e-48
2.8931469e-48
2.893013e-48
2.8929618e-48
2.8929451e-48
2.8929406e-48
2.8929399e-48
2.8929414e-48
2.892946e-48
2.8929583e-48
2.8934481e-48
2.8931462e-48
2.8930123e-48
2.8929612e-48
2.8929445e-48
2.8929399e-48
2.8929393e-48
2.8929408e-48
2.8929454e-48
2.8929577e-48
2.8934488e-48
2.8931472e-48
2.8930136e-48
2.8929626e-48
2.8929459e-48
2.8929414e-48
2.8929408e-48
2.8929422e-48
2.8929469e-48
2.8929592e-48
2.8934512e-48
2.8931508e-48
2.8930179e-48
2.8929671e-48
2.8929506e-48
2.892946e-48
2.8929454e-48
2.8929469e-48
2.8929516e-48
2.8929638e-48
2.8934579e-48
2.8931614e-48
2.8930297e-48
2.8929793e-48
2.8929628e-48
2.8929583e-48
2.8929577e-48
2.8929592e-48
2.8929638e-48
2.8929761e-48
1.581089e-47
1.5809295e-47
1.5808587e-47
1.5808316e-47
1.5808227e-47
1.5808202e-47
1.5808198e-47
1.5808201e-47
1.5808214e-47
1.5808249e-47
1.5809295e-47
1.5807701e-47
1.5806993e-47
1.5806722e-47
1.5806633e-47
1.5806609e-47
1.5806604e-47
1.580661e-47
1.5806629e-47
1.5806685e-47
1.5808587e-47
1.5806993e-47
1.5806284e-47
1.5806013e-47
1.5805925e-47
1.58059e-47
1.5805897e-47
1.5805904e-47
1.5805926e-47
1.5805989e-47
1.5808316e-47
1.5806722e-47
1.5806013e-47
1.5805742e-47
1.5805654e-47
1.580563e-47
1.5805626e-47
1.5805634e-47
1.5805658e-47
1.5805722e-47
1.5808227e-47
1.5806633e-47
1.5805925e-47
1.5805654e-47
1.5805565e-47
1.5805541e-47
1.5805538e-47
1.5805546e-47
1.580557e-47
1.5805635e-47
1.5808202e-47
1.5806609e-47
1.58059e-47
1.580563e-47
1.5805541e-47
1.5805517e-47
1.5805514e-47
1.5805521e-47
1.5805546e-47
1.5805611e-47
1.5808198e-47
1.5806604e-47
1.5805897e-47
1.5805626e-47
1.5805538e-47
1.5805514e-47
1.580551e-47
1.5805518e-47
1.5805543e-47
1.5805608e-47
1.5808201e-47
1.580661e-47
1.5805904e-47
1.5805634e-47
1.5805546e-47
1.5805521e-47
1.5805518e-47
1.5805526e-47
1.5805551e-47
1.5805616e-47
1.5808214e-47
1.5806629e-47
1.5805926e-47
1.5805658e-47
1.580557e-47
1.5805546e-47
1.5805543e-47
1.5805551e-47
1.5805576e-47
1.5805641e-47
1.5808249e-47
1.5806685e-47
1.5805989e-47
1.5805722e-47
1.5805635e-47
1.5805611e-47
1.5805608e-47
1.5805616e-47
1.5805641e-47
1.5805705e-47
8.8217368e-47
8.820878e-47
8.8204955e-47
8.8203492e-47
8.8203013e-47
8.820288e-47
8.8202855e-47
8.8202874e-47
8.8202944e-47
8.8203127e-47
8.820878e-47
8.8200196e-47
8.8196372e-47
8.8194909e-47
8.8194431e-47
8.8194298e-47
8.8194276e-47
8.8194306e-47
8.8194411e-47
8.8194711e-47
8.8204955e-47
8.8196372e-47
8.8192549e-47
8.8191086e-47
8.8190608e-47
8.8190477e-47
8.8190457e-47
8.8190494e-47
8.8190619e-47
8.8190954e-47
8.8203492e-47
8.8194909e-47
8.8191086e-47
8.8189624e-47
8.8189146e-47
8.8189014e-47
8.8188996e-47
8.8189037e-47
8.8189169e-47
8.8189515e-47
8.8203013e-47
8.8194431e-47
8.8190608e-47
8.8189146e-47
8.8188668e-47
8.8188537e-47
8.8188519e-47
8.8188561e-47
8.8188696e-47
8.8189044e-47
8.820288e-47
8.8194298e-47
8.8190477e-47
8.8189014e-47
8.8188537e-47
8.8188406e-47
8.8188388e-47
8.8188431e-47
8.8188566e-47
8.8188915e-47
8.8202855e-47
8.8194276e-47
8.8190457e-47
8.8188996e-47
8.8188519e-47
8.8188388e-47
8.8188371e-47
8.8188413e-47
8.8188549e-47
8.8188898e-47
8.8202874e-47
8.8194306e-47
8.8190494e-47
8.8189037e-47
8.8188561e-47
8.8188431e-47
8.8188413e-47
8.8188456e-47
8.8188592e-47
8.8188941e-47
8.8202944e-47
8.8194411e-47
8.8190619e-47
8.8189169e-47
8.8188696e-47
8.8188566e-47
8.8188549e-47
8.8188592e-47
8.8188728e-47
8.8189077e-47
8.8203127e-47
8.8194711e-47
8.8190954e-47
8.8189515e-47
8.8189044e-47
8.8188915e-47
8.8188898e-47
8.8188941e-47
8.8189077e-47
8.8189426e-47
5.0262234e-46
5.0257515e-46
5.0255409e-46
5.0254602e-46
5.0254338e-46
5.0254265e-46
5.0254251e-46
5.0254262e-46
5.02543e-46
5.02544e-46
5.0257515e-46
5.0252798e-46
5.0250692e-46
5.0249886e-46
5.0249622e-46
5.0249549e-46
5.0249537e-46
5.0249553e-46
5.0249612e-46
5.0249776e-46
5.0255409e-46
5.0250692e-46
5.0248587e-46
5.0247781e-46
5.0247517e-46
5.0247445e-46
5.0247434e-46
5.0247455e-46
5.0247524e-46
5.0247708e-46
5.0254602e-46
5.0249886e-46
5.0247781e-46
5.0246975e-46
5.0246711e-46
5.0246639e-46
5.0246629e-46
5.0246652e-46
5.0246725e-46
5.0246915e-46
5.0254338e-46
5.0249622e-46
5.0247517e-46
5.0246711e-46
5.0246447e-46
5.0246375e-46
5.0246366e-46
5.0246389e-46
5.0246464e-46
5.0246656e-46
5.0254265e-46
5.0249549e-46
5.0247445e-46
5.0246639e-46
5.0246375e-46
5.0246303e-46
5.0246294e-46
5.0246317e-46
5.0246393e-46
5.0246585e-46
5.0254251e-46
5.0249537e-46
5.0247434e-46
5.0246629e-46
5.0246366e-46
5.0246294e-46
5.0246284e-46
5.0246308e-46
5.0246383e-46
5.0246576e-46
5.0254262e-46
5.0249553e-46
5.0247455e-46
5.0246652e-46
5.0246389e-46
5.0246317e-46
5.0246308e-46
5.0246332e-46
5.0246407e-46
5.02466e-46
5.02543e-46
5.0249612e-46
5.0247524e-46
5.0246725e-46
5.0246464e-46
5.0246393e-46
5.0246383e-46
5.0246407e-46
5.0246483e-46
5.0246675e-46
5.02544e-46
5.0249776e-46
5.0247708e-46
5.0246915e-46
5.0246656e-46
5.0246585e-46
5.0246576e-46
5.02466e-46
5.0246675e-46
5.0246867e-46
2.9239416e-45
2.923677e-45
2.9235587e-45
2.9235133e-45
2.9234984e-45
2.9234943e-45
2.9234936e-45
2.9234942e-45
2.9234963e-45
2.9235018e-45
2.923677e-45
2.9234125e-45
2.9232942e-45
2.9232489e-45
2.923234e-45
2.9232299e-45
2.9232292e-45
2.9232302e-45
2.9232335e-45
2.9232427e-45
2.9235587e-45
2.9232942e-45
2.9231759e-45
2.9231306e-45
2.9231158e-45
2.9231117e-45
2.9231111e-45
2.9231123e-45
2.9231162e-45
2.9231266e-45
2.9235133e-45
2.9232489e-45
2.9231306e-45
2.9230853e-45
2.9230704e-45
2.9230664e-45
2.9230658e-45
2.9230671e-45
2.9230713e-45
2.923082e-45
2.9234984e-45
2.923234e-45
2.9231158e-45
2.9230704e-45
2.9230556e-45
2.9230515e-45
2.923051e-45
2.9230524e-45
2.9230566e-45
2.9230674e-45
2.9234943e-45
2.9232299e-45
2.9231117e-45
2.9230664e-45
2.9230515e-45
2.9230475e-45
2.923047e-45
2.9230483e-45
2.9230526e-45
2.9230634e-45
2.9234936e-45
2.9232292e-45
2.9231111e-45
2.9230658e-45
2.923051e-45
2.923047e-45
2.9230464e-45
2.9230478e-45
2.9230521e-45
2.9230629e-45
2.9234942e-45
2.9232302e-45
2.9231123e-45
2.9230671e-45
2.9230524e-45
2.9230483e-45
2.9230478e-45
2.9230492e-45
2.9230535e-45
2.9230643e-45
2.9234963e-45
2.9232335e-45
2.9231162e-45
2.9230713e-45
2.9230566e-45
2.9230526e-45
2.9230521e-45
2.9230535e-45
2.9230577e-45
2.9230686e-45
2.9235018e-45
2.9232427e-45
2.9231266e-45
2.923082e-45
2.9230674e-45
2.9230634e-45
2.9230629e-45
2.9230643e-45
2.9230686e-45
2.9230794e-45
1.7365083e-44
1.736357e-44
1.7362891e-44
1.7362631e-44
1.7362546e-44
1.7362522e-44
1.7362518e-44
1.7362521e-44
1.7362534e-44
1.7362565e-44
1.736357e-44
1.7362057e-44
1.7361379e-44
1.7361119e-44
1.7361033e-44
1.736101e-44
1.7361006e-44
1.7361012e-44
1.7361031e-44
1.7361084e-44
1.7362891e-44
1.7361379e-44
1.7360701e-44
1.7360441e-44
1.7360356e-44
1.7360332e-44
1.7360329e-44
1.7360336e-44
1.7360359e-44
1.7360418e-44
1.7362631e-44
1.7361119e-44
1.7360441e-44
1.7360181e-44
1.7360096e-44
1.7360072e-44
1.7360069e-44
1.7360077e-44
1.7360101e-44
1.7360162e-44
1.7362546e-44
1.7361033e-44
1.7360356e-44
1.7360096e-44
1.7360011e-44
1.7359987e-44
1.7359984e-44
1.7359992e-44
1.7360017e-44
1.7360079e-44
1.7362522e-44
1.736101e-44
1.7360332e-44
1.7360072e-44
1.7359987e-44
1.7359964e-44
1.7359961e-44
1.7359969e-44
1.7359994e-44
1.7360056e-44
1.7362518e-44
1.7361006e-44
1.7360329e-44
1.7360069e-44
1.7359984e-44
1.7359961e-44
1.7359958e-44
1.7359966e-44
1.7359991e-44
1.7360053e-44
1.7362521e-44
1.7361012e-44
1.7360336e-44
1.7360077e-44
1.7359992e-44
1.7359969e-44
1.7359966e-44
1.7359974e-44
1.7359999e-44
1.7360061e-44
1.7362534e-44
1.7361031e-44
1.7360359e-44
1.7360101e-44
1.7360017e-44
1.7359994e-44
1.7359991e-44
1.7359999e-44
1.7360024e-44
1.7360086e-44
1.7362565e-44
1.7361084e-44
1.7360418e-44
1.7360162e-44
1.7360079e-44
1.7360056e-44
1.7360053e-44
1.7360061e-44
1.7360086e-44
1.7360148e-44
1.0526908e-43
1.0526025e-43
1.0525628e-43
1.0525476e-43
1.0525426e-43
1.0525413e-43
1.052541e-43
1.0525412e-43
1.0525419e-43
1.0525437e-43
1.0526025e-43
1.0525142e-43
1.0524746e-43
1.0524594e-43
1.0524544e-43
1.052453e-43
1.0524528e-43
1.0524531e-43
1.0524542e-43
1.0524573e-43
1.0525628e-43
1.0524746e-43
1.052435e-43
1.0524198e-43
1.0524148e-43
1.0524134e-43
1.0524132e-43
1.0524136e-43
1.052415e-43
1.0524185e-43
1.0525476e-43
1.0524594e-43
1.0524198e-43
1.0524045e-43
1.0523996e-43
1.0523982e-43
1.052398e-43
1.0523985e-43
1.0523999e-43
1.0524035e-43
1.0525426e-43
1.0524544e-43
1.0524148e-43
1.0523996e-43
1.0523946e-43
1.0523932e-43
1.052393e-43
1.0523935e-43
1.052395e-43
1.0523986e-43
1.0525413e-43
1.052453e-43
1.0524134e-43
1.0523982e-43
1.0523932e-43
1.0523919e-43
1.0523917e-43
1.0523922e-43
1.0523936e-43
1.0523973e-43
1.052541e-43
1.0524528e-43
1.0524132e-43
1.052398e-43
1.052393e-43
1.0523917e-43
1.0523915e-43
1.052392e-43
1.0523935e-43
1.0523971e-43
1.0525412e-43
1.0524531e-43
1.0524136e-43
1.0523985e-43
1.0523935e-43
1.0523922e-43
1.052392e-43
1.0523925e-43
1.0523939e-43
1.0523976e-43
1.0525419e-43
1.0524542e-43
1.052415e-43
1.0523999e-43
1.052395e-43
1.0523936e-43
1.0523935e-43
1.0523939e-43
1.0523954e-43
1.052399e-43
1.0525437e-43
1.0524573e-43
1.0524185e-43
1.0524035e-43
1.0523986e-43
1.0523973e-43