/*--------------------------------*- C++ -*----------------------------------*\
| =========                 |                                                 |
| \\      /  F ield         | OpenFOAM: The Open Source CFD Toolbox           |
|  \\    /   O peration     | Version:  dev                                   |
|   \\  /    A nd           | Web:      www.OpenFOAM.org                      |
|    \\/     M anipulation  |                                                 |
\*---------------------------------------------------------------------------*/
FoamFile
{
    version     2.0;
    format      ascii;
    class       volScalarField;
    location    "23";
    object      A;
}
// * * * * * * * * * * * * * * * * * * * * * * * * * * * * * * * * * * * * * //

dimensions      [0 0 0 0 1 0 0];

internalField   nonuniform List<scalar> 
10000
(
3.5625148e-50
3.5621639e-50
3.5619992e-50
3.5619268e-50
3.5618983e-50
3.5618885e-50
3.5618861e-50
3.5618871e-50
3.5618923e-50
3.561908e-50
3.5621639e-50
3.5618131e-50
3.5616485e-50
3.5615761e-50
3.5615476e-50
3.5615379e-50
3.5615356e-50
3.5615371e-50
3.5615436e-50
3.5615634e-50
3.5619992e-50
3.5616485e-50
3.5614839e-50
3.5614115e-50
3.5613831e-50
3.5613734e-50
3.5613712e-50
3.5613731e-50
3.5613804e-50
3.5614015e-50
3.5619268e-50
3.5615761e-50
3.5614115e-50
3.5613391e-50
3.5613107e-50
3.5613011e-50
3.561299e-50
3.561301e-50
3.5613087e-50
3.5613303e-50
3.5618983e-50
3.5615476e-50
3.5613831e-50
3.5613107e-50
3.5612823e-50
3.5612726e-50
3.5612706e-50
3.5612728e-50
3.5612806e-50
3.5613023e-50
3.5618885e-50
3.5615379e-50
3.5613734e-50
3.5613011e-50
3.5612726e-50
3.561263e-50
3.561261e-50
3.5612632e-50
3.561271e-50
3.5612928e-50
3.5618861e-50
3.5615356e-50
3.5613712e-50
3.561299e-50
3.5612706e-50
3.561261e-50
3.561259e-50
3.5612612e-50
3.5612691e-50
3.5612909e-50
3.5618871e-50
3.5615371e-50
3.5613731e-50
3.561301e-50
3.5612728e-50
3.5612632e-50
3.5612612e-50
3.5612634e-50
3.5612713e-50
3.5612931e-50
3.5618923e-50
3.5615436e-50
3.5613804e-50
3.5613087e-50
3.5612806e-50
3.561271e-50
3.5612691e-50
3.5612713e-50
3.5612792e-50
3.5613009e-50
3.561908e-50
3.5615634e-50
3.5614015e-50
3.5613303e-50
3.5613023e-50
3.5612928e-50
3.5612909e-50
3.5612931e-50
3.5613009e-50
3.5613227e-50
1.6470813e-49
1.6469239e-49
1.646849e-49
1.646816e-49
1.646803e-49
1.6467986e-49
1.6467975e-49
1.646798e-49
1.6468003e-49
1.6468077e-49
1.6469239e-49
1.6467665e-49
1.6466917e-49
1.6466587e-49
1.6466457e-49
1.6466413e-49
1.6466402e-49
1.6466409e-49
1.6466439e-49
1.6466532e-49
1.646849e-49
1.6466917e-49
1.6466168e-49
1.6465838e-49
1.6465709e-49
1.6465665e-49
1.6465655e-49
1.6465663e-49
1.6465697e-49
1.6465795e-49
1.646816e-49
1.6466587e-49
1.6465838e-49
1.6465509e-49
1.6465379e-49
1.6465335e-49
1.6465326e-49
1.6465335e-49
1.646537e-49
1.6465471e-49
1.646803e-49
1.6466457e-49
1.6465709e-49
1.6465379e-49
1.646525e-49
1.6465206e-49
1.6465197e-49
1.6465206e-49
1.6465242e-49
1.6465344e-49
1.6467986e-49
1.6466413e-49
1.6465665e-49
1.6465335e-49
1.6465206e-49
1.6465162e-49
1.6465153e-49
1.6465163e-49
1.6465199e-49
1.64653e-49
1.6467975e-49
1.6466402e-49
1.6465655e-49
1.6465326e-49
1.6465197e-49
1.6465153e-49
1.6465144e-49
1.6465154e-49
1.646519e-49
1.6465291e-49
1.646798e-49
1.6466409e-49
1.6465663e-49
1.6465335e-49
1.6465206e-49
1.6465163e-49
1.6465154e-49
1.6465164e-49
1.64652e-49
1.6465302e-49
1.6468003e-49
1.6466439e-49
1.6465697e-49
1.646537e-49
1.6465242e-49
1.6465199e-49
1.646519e-49
1.64652e-49
1.6465236e-49
1.6465337e-49
1.6468077e-49
1.6466532e-49
1.6465795e-49
1.6465471e-49
1.6465344e-49
1.64653e-49
1.6465291e-49
1.6465302e-49
1.6465337e-49
1.6465439e-49
5.7085242e-49
5.7079941e-49
5.7077406e-49
5.7076288e-49
5.7075848e-49
5.7075696e-49
5.7075659e-49
5.7075675e-49
5.7075754e-49
5.7076003e-49
5.7079941e-49
5.7074642e-49
5.7072108e-49
5.707099e-49
5.707055e-49
5.70704e-49
5.7070364e-49
5.7070388e-49
5.7070487e-49
5.7070801e-49
5.7077406e-49
5.7072108e-49
5.7069574e-49
5.7068457e-49
5.7068017e-49
5.7067867e-49
5.7067834e-49
5.7067863e-49
5.7067975e-49
5.7068311e-49
5.7076288e-49
5.707099e-49
5.7068457e-49
5.706734e-49
5.70669e-49
5.7066751e-49
5.7066719e-49
5.7066751e-49
5.7066869e-49
5.7067211e-49
5.7075848e-49
5.707055e-49
5.7068017e-49
5.70669e-49
5.7066461e-49
5.7066312e-49
5.7066281e-49
5.7066314e-49
5.7066434e-49
5.7066779e-49
5.7075696e-49
5.70704e-49
5.7067867e-49
5.7066751e-49
5.7066312e-49
5.7066163e-49
5.7066132e-49
5.7066166e-49
5.7066287e-49
5.7066632e-49
5.7075659e-49
5.7070364e-49
5.7067834e-49
5.7066719e-49
5.7066281e-49
5.7066132e-49
5.7066102e-49
5.7066136e-49
5.7066257e-49
5.7066602e-49
5.7075675e-49
5.7070388e-49
5.7067863e-49
5.7066751e-49
5.7066314e-49
5.7066166e-49
5.7066136e-49
5.706617e-49
5.7066291e-49
5.7066636e-49
5.7075754e-49
5.7070487e-49
5.7067975e-49
5.7066869e-49
5.7066434e-49
5.7066287e-49
5.7066257e-49
5.7066291e-49
5.7066412e-49
5.7066758e-49
5.7076003e-49
5.7070801e-49
5.7068311e-49
5.7067211e-49
5.7066779e-49
5.7066632e-49
5.7066602e-49
5.7066636e-49
5.7066758e-49
5.7067103e-49
1.9707794e-48
1.9706017e-48
1.9705165e-48
1.9704788e-48
1.9704639e-48
1.9704588e-48
1.9704576e-48
1.9704581e-48
1.9704607e-48
1.9704689e-48
1.9706017e-48
1.9704242e-48
1.9703389e-48
1.9703012e-48
1.9702864e-48
1.9702813e-48
1.9702801e-48
1.9702809e-48
1.9702842e-48
1.9702946e-48
1.9705165e-48
1.9703389e-48
1.9702536e-48
1.970216e-48
1.9702011e-48
1.9701961e-48
1.970195e-48
1.970196e-48
1.9701997e-48
1.9702108e-48
1.9704788e-48
1.9703012e-48
1.970216e-48
1.9701783e-48
1.9701635e-48
1.9701585e-48
1.9701574e-48
1.9701585e-48
1.9701624e-48
1.9701738e-48
1.9704639e-48
1.9702864e-48
1.9702011e-48
1.9701635e-48
1.9701487e-48
1.9701437e-48
1.9701426e-48
1.9701437e-48
1.9701478e-48
1.9701592e-48
1.9704588e-48
1.9702813e-48
1.9701961e-48
1.9701585e-48
1.9701437e-48
1.9701386e-48
1.9701376e-48
1.9701388e-48
1.9701428e-48
1.9701543e-48
1.9704576e-48
1.9702801e-48
1.970195e-48
1.9701574e-48
1.9701426e-48
1.9701376e-48
1.9701366e-48
1.9701377e-48
1.9701418e-48
1.9701533e-48
1.9704581e-48
1.9702809e-48
1.970196e-48
1.9701585e-48
1.9701437e-48
1.9701388e-48
1.9701377e-48
1.9701389e-48
1.970143e-48
1.9701544e-48
1.9704607e-48
1.9702842e-48
1.9701997e-48
1.9701624e-48
1.9701478e-48
1.9701428e-48
1.9701418e-48
1.970143e-48
1.970147e-48
1.9701585e-48
1.9704689e-48
1.9702946e-48
1.9702108e-48
1.9701738e-48
1.9701592e-48
1.9701543e-48
1.9701533e-48
1.9701544e-48
1.9701585e-48
1.97017e-48
6.9215423e-48
6.9209367e-48
6.920645e-48
6.9205159e-48
6.920465e-48
6.9204475e-48
6.9204432e-48
6.920445e-48
6.9204539e-48
6.920481e-48
6.9209367e-48
6.9203315e-48
6.9200398e-48
6.9199107e-48
6.9198599e-48
6.9198424e-48
6.9198384e-48
6.9198411e-48
6.9198524e-48
6.9198873e-48
6.920645e-48
6.9200398e-48
6.9197482e-48
6.9196192e-48
6.9195683e-48
6.919551e-48
6.9195472e-48
6.9195505e-48
6.9195634e-48
6.9196008e-48
6.9205159e-48
6.9199107e-48
6.9196192e-48
6.9194901e-48
6.9194393e-48
6.9194221e-48
6.9194184e-48
6.9194222e-48
6.9194357e-48
6.9194739e-48
6.920465e-48
6.9198599e-48
6.9195683e-48
6.9194393e-48
6.9193885e-48
6.9193713e-48
6.9193677e-48
6.9193716e-48
6.9193854e-48
6.9194239e-48
6.9204475e-48
6.9198424e-48
6.919551e-48
6.9194221e-48
6.9193713e-48
6.9193541e-48
6.9193505e-48
6.9193545e-48
6.9193684e-48
6.9194069e-48
6.9204432e-48
6.9198384e-48
6.9195472e-48
6.9194184e-48
6.9193677e-48
6.9193505e-48
6.919347e-48
6.919351e-48
6.9193649e-48
6.9194035e-48
6.920445e-48
6.9198411e-48
6.9195505e-48
6.9194222e-48
6.9193716e-48
6.9193545e-48
6.919351e-48
6.919355e-48
6.9193689e-48
6.9194075e-48
6.9204539e-48
6.9198524e-48
6.9195634e-48
6.9194357e-48
6.9193854e-48
6.9193684e-48
6.9193649e-48
6.9193689e-48
6.9193828e-48
6.9194214e-48
6.920481e-48
6.9198873e-48
6.9196008e-48
6.9194739e-48
6.9194239e-48
6.9194069e-48
6.9194035e-48
6.9194075e-48
6.9194214e-48
6.91946e-48
2.4775415e-47
2.4773313e-47
2.4772296e-47
2.4771845e-47
2.4771668e-47
2.4771606e-47
2.4771591e-47
2.4771598e-47
2.4771628e-47
2.477172e-47
2.4773313e-47
2.4771211e-47
2.4770195e-47
2.4769744e-47
2.4769567e-47
2.4769506e-47
2.4769491e-47
2.4769501e-47
2.476954e-47
2.476966e-47
2.4772296e-47
2.4770195e-47
2.4769179e-47
2.4768728e-47
2.4768551e-47
2.476849e-47
2.4768477e-47
2.4768489e-47
2.4768533e-47
2.4768662e-47
2.4771845e-47
2.4769744e-47
2.4768728e-47
2.4768278e-47
2.47681e-47
2.476804e-47
2.4768027e-47
2.4768041e-47
2.4768088e-47
2.4768219e-47
2.4771668e-47
2.4769567e-47
2.4768551e-47
2.47681e-47
2.4767923e-47
2.4767863e-47
2.476785e-47
2.4767864e-47
2.4767912e-47
2.4768044e-47
2.4771606e-47
2.4769506e-47
2.476849e-47
2.476804e-47
2.4767863e-47
2.4767803e-47
2.476779e-47
2.4767804e-47
2.4767853e-47
2.4767985e-47
2.4771591e-47
2.4769491e-47
2.4768477e-47
2.4768027e-47
2.476785e-47
2.476779e-47
2.4767778e-47
2.4767792e-47
2.4767841e-47
2.4767973e-47
2.4771598e-47
2.4769501e-47
2.4768489e-47
2.4768041e-47
2.4767864e-47
2.4767804e-47
2.4767792e-47
2.4767806e-47
2.4767855e-47
2.4767987e-47
2.4771628e-47
2.476954e-47
2.4768533e-47
2.4768088e-47
2.4767912e-47
2.4767853e-47
2.4767841e-47
2.4767855e-47
2.4767903e-47
2.4768036e-47
2.477172e-47
2.476966e-47
2.4768662e-47
2.4768219e-47
2.4768044e-47
2.4767985e-47
2.4767973e-47
2.4767987e-47
2.4768036e-47
2.4768168e-47
9.040297e-47
9.0395531e-47
9.0391922e-47
9.039032e-47
9.0389687e-47
9.038947e-47
9.0389416e-47
9.0389439e-47
9.0389547e-47
9.0389865e-47
9.0395531e-47
9.0388096e-47
9.0384488e-47
9.0382886e-47
9.0382254e-47
9.0382037e-47
9.0381987e-47
9.038202e-47
9.038216e-47
9.0382576e-47
9.0391922e-47
9.0384488e-47
9.038088e-47
9.0379279e-47
9.0378647e-47
9.0378431e-47
9.0378384e-47
9.0378427e-47
9.0378585e-47
9.0379033e-47
9.039032e-47
9.0382886e-47
9.0379279e-47
9.0377677e-47
9.0377046e-47
9.0376831e-47
9.0376786e-47
9.0376833e-47
9.0377001e-47
9.0377459e-47
9.0389687e-47
9.0382254e-47
9.0378647e-47
9.0377046e-47
9.0376414e-47
9.03762e-47
9.0376156e-47
9.0376206e-47
9.0376376e-47
9.0376838e-47
9.038947e-47
9.0382037e-47
9.0378431e-47
9.0376831e-47
9.03762e-47
9.0375986e-47
9.0375943e-47
9.0375993e-47
9.0376164e-47
9.0376627e-47
9.0389416e-47
9.0381987e-47
9.0378384e-47
9.0376786e-47
9.0376156e-47
9.0375943e-47
9.03759e-47
9.037595e-47
9.0376122e-47
9.0376585e-47
9.0389439e-47
9.038202e-47
9.0378427e-47
9.0376833e-47
9.0376206e-47
9.0375993e-47
9.037595e-47
9.0376e-47
9.0376172e-47
9.0376636e-47
9.0389547e-47
9.038216e-47
9.0378585e-47
9.0377001e-47
9.0376376e-47
9.0376164e-47
9.0376122e-47
9.0376172e-47
9.0376344e-47
9.0376808e-47
9.0389865e-47
9.0382576e-47
9.0379033e-47
9.0377459e-47
9.0376838e-47
9.0376627e-47
9.0376585e-47
9.0376636e-47
9.0376808e-47
9.0377271e-47
3.3629193e-46
3.3626511e-46
3.3625205e-46
3.3624625e-46
3.3624395e-46
3.3624316e-46
3.3624297e-46
3.3624305e-46
3.3624344e-46
3.3624456e-46
3.3626511e-46
3.362383e-46
3.3622525e-46
3.3621944e-46
3.3621715e-46
3.3621637e-46
3.3621618e-46
3.3621631e-46
3.3621681e-46
3.3621829e-46
3.3625205e-46
3.3622525e-46
3.3621219e-46
3.3620639e-46
3.362041e-46
3.3620332e-46
3.3620315e-46
3.3620331e-46
3.3620388e-46
3.3620548e-46
3.3624625e-46
3.3621944e-46
3.3620639e-46
3.3620059e-46
3.361983e-46
3.3619752e-46
3.3619736e-46
3.3619753e-46
3.3619814e-46
3.3619977e-46
3.3624395e-46
3.3621715e-46
3.362041e-46
3.361983e-46
3.3619601e-46
3.3619524e-46
3.3619508e-46
3.3619526e-46
3.3619587e-46
3.3619752e-46
3.3624316e-46
3.3621637e-46
3.3620332e-46
3.3619752e-46
3.3619524e-46
3.3619446e-46
3.361943e-46
3.3619449e-46
3.3619511e-46
3.3619676e-46
3.3624297e-46
3.3621618e-46
3.3620315e-46
3.3619736e-46
3.3619508e-46
3.361943e-46
3.3619415e-46
3.3619433e-46
3.3619495e-46
3.3619661e-46
3.3624305e-46
3.3621631e-46
3.3620331e-46
3.3619753e-46
3.3619526e-46
3.3619449e-46
3.3619433e-46
3.3619452e-46
3.3619514e-46
3.3619679e-46
3.3624344e-46
3.3621681e-46
3.3620388e-46
3.3619814e-46
3.3619587e-46
3.3619511e-46
3.3619495e-46
3.3619514e-46
3.3619576e-46
3.3619741e-46
3.3624456e-46
3.3621829e-46
3.3620548e-46
3.3619977e-46
3.3619752e-46
3.3619676e-46
3.3619661e-46
3.3619679e-46
3.3619741e-46
3.3619907e-46
1.2753856e-45
1.275287e-45
1.2752389e-45
1.2752175e-45
1.275209e-45
1.2752061e-45
1.2752054e-45
1.2752057e-45
1.2752071e-45
1.2752111e-45
1.275287e-45
1.2751886e-45
1.2751404e-45
1.275119e-45
1.2751105e-45
1.2751076e-45
1.275107e-45
1.2751074e-45
1.2751093e-45
1.2751146e-45
1.2752389e-45
1.2751404e-45
1.2750923e-45
1.2750709e-45
1.2750624e-45
1.2750595e-45
1.2750589e-45
1.2750595e-45
1.2750616e-45
1.2750674e-45
1.2752175e-45
1.275119e-45
1.2750709e-45
1.2750495e-45
1.275041e-45
1.2750381e-45
1.2750375e-45
1.2750382e-45
1.2750404e-45
1.2750464e-45
1.275209e-45
1.2751105e-45
1.2750624e-45
1.275041e-45
1.2750326e-45
1.2750297e-45
1.2750291e-45
1.2750298e-45
1.2750321e-45
1.2750381e-45
1.2752061e-45
1.2751076e-45
1.2750595e-45
1.2750381e-45
1.2750297e-45
1.2750268e-45
1.2750263e-45
1.2750269e-45
1.2750292e-45
1.2750352e-45
1.2752054e-45
1.275107e-45
1.2750589e-45
1.2750375e-45
1.2750291e-45
1.2750263e-45
1.2750257e-45
1.2750264e-45
1.2750287e-45
1.2750347e-45
1.2752057e-45
1.2751074e-45
1.2750595e-45
1.2750382e-45
1.2750298e-45
1.2750269e-45
1.2750264e-45
1.2750271e-45
1.2750294e-45
1.2750354e-45
1.2752071e-45
1.2751093e-45
1.2750616e-45
1.2750404e-45
1.2750321e-45
1.2750292e-45
1.2750287e-45
1.2750294e-45
1.2750316e-45
1.2750377e-45
1.2752111e-45
1.2751146e-45
1.2750674e-45
1.2750464e-45
1.2750381e-45
1.2750352e-45
1.2750347e-45
1.2750354e-45
1.2750377e-45
1.2750437e-45
4.9314229e-45
4.931054e-45
4.9308732e-45
4.9307926e-45
4.9307607e-45
4.9307497e-45
4.930747e-45
4.9307482e-45
4.9307535e-45
4.9307682e-45
4.931054e-45
4.9306852e-45
4.9305045e-45
4.9304239e-45
4.930392e-45
4.9303811e-45
4.9303786e-45
4.9303803e-45
4.9303872e-45
4.9304071e-45
4.9308732e-45
4.9305045e-45
4.9303238e-45
4.9302432e-45
4.9302113e-45
4.9302005e-45
4.9301981e-45
4.9302003e-45
4.9302082e-45
4.9302298e-45
4.9307926e-45
4.9304239e-45
4.9302432e-45
4.9301626e-45
4.9301308e-45
4.9301199e-45
4.9301177e-45
4.9301201e-45
4.9301285e-45
4.9301506e-45
4.9307607e-45
4.930392e-45
4.9302113e-45
4.9301308e-45
4.9300989e-45
4.9300881e-45
4.9300859e-45
4.9300885e-45
4.9300971e-45
4.9301193e-45
4.9307497e-45
4.9303811e-45
4.9302005e-45
4.9301199e-45
4.9300881e-45
4.9300774e-45
4.9300752e-45
4.9300778e-45
4.9300864e-45
4.9301087e-45
4.930747e-45
4.9303786e-45
4.9301981e-45
4.9301177e-45
4.9300859e-45
4.9300752e-45
4.930073e-45
4.9300756e-45
4.9300843e-45
4.9301066e-45
4.9307482e-45
4.9303803e-45
4.9302003e-45
4.9301201e-45
4.9300885e-45
4.9300778e-45
4.9300756e-45
4.9300783e-45
4.9300869e-45
4.9301093e-45
4.9307535e-45
4.9303872e-45
4.9302082e-45
4.9301285e-45
4.9300971e-45
4.9300864e-45
4.9300843e-45
4.9300869e-45
4.9300956e-45
4.9301179e-45
4.9307682e-45
4.9304071e-45
4.9302298e-45
4.9301506e-45
4.9301193e-45
4.9301087e-45
4.9301066e-45
4.9301093e-45
4.9301179e-45
4.9301403e-45
1.9440982e-44
1.9439574e-44
1.9438882e-44
1.9438573e-44
1.9438451e-44
1.9438409e-44
1.9438399e-44
1.9438403e-44
1.9438423e-44
1.9438478e-44
1.9439574e-44
1.9438167e-44
1.9437476e-44
1.9437167e-44
1.9437044e-44
1.9437002e-44
1.9436993e-44
1.9437e-44
1.9437026e-44
1.9437101e-44
1.9438882e-44
1.9437476e-44
1.9436784e-44
1.9436475e-44
1.9436353e-44
1.9436311e-44
1.9436302e-44
1.9436311e-44
1.9436341e-44
1.9436423e-44
1.9438573e-44
1.9437167e-44
1.9436475e-44
1.9436166e-44
1.9436044e-44
1.9436002e-44
1.9435994e-44
1.9436003e-44
1.9436036e-44
1.9436119e-44
1.9438451e-44
1.9437044e-44
1.9436353e-44
1.9436044e-44
1.9435922e-44
1.943588e-44
1.9435872e-44
1.9435882e-44
1.9435915e-44
1.9435999e-44
1.9438409e-44
1.9437002e-44
1.9436311e-44
1.9436002e-44
1.943588e-44
1.9435839e-44
1.9435831e-44
1.9435841e-44
1.9435874e-44
1.9435959e-44
1.9438399e-44
1.9436993e-44
1.9436302e-44
1.9435994e-44
1.9435872e-44
1.9435831e-44
1.9435823e-44
1.9435833e-44
1.9435866e-44
1.9435951e-44
1.9438403e-44
1.9437e-44
1.9436311e-44
1.9436003e-44
1.9435882e-44
1.9435841e-44
1.9435833e-44
1.9435843e-44
1.9435876e-44
1.9435961e-44
1.9438423e-44
1.9437026e-44
1.9436341e-44
1.9436036e-44
1.9435915e-44
1.9435874e-44
1.9435866e-44
1.9435876e-44
1.9435909e-44
1.9435994e-44
1.9438478e-44
1.9437101e-44
1.9436423e-44
1.9436119e-44
1.9435999e-44
1.9435959e-44
1.9435951e-44
1.9435961e-44
1.9435994e-44
1.9436079e-44
7.8141873e-44
7.81364e-44
7.8133701e-44
7.8132494e-44
7.8132016e-44
7.8131851e-44
7.8131811e-44
7.8131829e-44
7.8131907e-44
7.8132116e-44
7.81364e-44
7.8130929e-44
7.8128231e-44
7.8127024e-44
7.8126546e-44
7.8126382e-44
7.8126345e-44
7.8126371e-44
7.8126475e-44
7.8126764e-44
7.8133701e-44
7.8128231e-44
7.8125533e-44
7.8124326e-44
7.8123848e-44
7.8123686e-44
7.8123651e-44
7.8123684e-44
7.8123803e-44
7.8124118e-44
7.8132494e-44
7.8127024e-44
7.8124326e-44
7.812312e-44
7.8122642e-44
7.812248e-44
7.8122447e-44
7.8122485e-44
7.812261e-44
7.8122934e-44
7.8132016e-44
7.8126546e-44
7.8123848e-44
7.8122642e-44
7.8122165e-44
7.8122003e-44
7.8121971e-44
7.812201e-44
7.8122139e-44
7.8122465e-44
7.8131851e-44
7.8126382e-44
7.8123686e-44
7.812248e-44
7.8122003e-44
7.8121842e-44
7.812181e-44
7.8121849e-44
7.8121979e-44
7.8122306e-44
7.8131811e-44
7.8126345e-44
7.8123651e-44
7.8122447e-44
7.8121971e-44
7.812181e-44
7.8121778e-44
7.8121818e-44
7.8121948e-44
7.8122275e-44
7.8131829e-44
7.8126371e-44
7.8123684e-44
7.8122485e-44
7.812201e-44
7.8121849e-44
7.8121818e-44
7.8121858e-44
7.8121988e-44
7.8122315e-44
7.8131907e-44
7.8126475e-44
7.8123803e-44
7.812261e-44
7.8122139e-44
7.8121979e-44
7.8121948e-44
7.8121988e-44
7.8122118e-44
7.8122445e-44
7.8132116e-44
7.8126764e-44
7.8124118e-44
7.8122934e-44
7.8122465e-44
7.8122306e-44
7.8122275e-44
7.8122315e-44
7.8122445e-44
7.8122772e-44
3.2023464e-43
3.2021296e-43
3.2020223e-43
3.2019743e-43
3.2019552e-43
3.2019487e-43
3.2019471e-43
3.2019478e-43
3.2019509e-43
3.201959e-43
3.2021296e-43
3.2019128e-43
3.2018056e-43
3.2017575e-43
3.2017385e-43
3.201732e-43
3.2017305e-43
3.2017316e-43
3.2017357e-43
3.201747e-43
3.2020223e-43
3.2018056e-43
3.2016983e-43
3.2016503e-43
3.2016313e-43
3.2016248e-43
3.2016234e-43
3.2016248e-43
3.2016295e-43
3.2016419e-43
3.2019743e-43
3.2017575e-43
3.2016503e-43
3.2016023e-43
3.2015833e-43
3.2015768e-43
3.2015755e-43
3.201577e-43
3.201582e-43
3.2015948e-43
3.2019552e-43
3.2017385e-43
3.2016313e-43
3.2015833e-43
3.2015643e-43
3.2015578e-43
3.2015566e-43
3.2015581e-43
3.2015633e-43
3.2015761e-43
3.2019487e-43
3.201732e-43
3.2016248e-43
3.2015768e-43
3.2015578e-43
3.2015514e-43
3.2015501e-43
3.2015517e-43
3.2015569e-43
3.2015698e-43
3.2019471e-43
3.2017305e-43
3.2016234e-43
3.2015755e-43
3.2015566e-43
3.2015501e-43
3.2015489e-43
3.2015505e-43
3.2015557e-43
3.2015685e-43
3.2019478e-43
3.2017316e-43
3.2016248e-43
3.201577e-43
3.2015581e-43
3.2015517e-43
3.2015505e-43
3.2015521e-43
3.2015573e-43
3.2015702e-43
3.2019509e-43
3.2017357e-43
3.2016295e-43
3.201582e-43
3.2015633e-43
3.2015569e-43
3.2015557e-43
3.2015573e-43
3.2015625e-43
3.2015753e-43
3.201959e-43
3.201747e-43
3.2016419e-43
3.2015948e-43
3.2015761e-43
3.2015698e-43
3.2015685e-43
3.2015702e-43
3.2015753e-43
3.2015882e-43
1.3380287e-42
1.3379411e-42
1.3378976e-42
1.3378782e-42
1.3378704e-42
1.3378678e-42
1.3378671e-42
1.3378674e-42
1.3378687e-42
1.3378719e-42
1.3379411e-42
1.3378536e-42
1.3378101e-42
1.3377907e-42
1.3377829e-42
1.3377803e-42
1.3377797e-42
1.3377801e-42
1.3377818e-42
1.3377863e-42
1.3378976e-42
1.3378101e-42
1.3377667e-42
1.3377472e-42
1.3377395e-42
1.3377369e-42
1.3377363e-42
1.3377369e-42
1.3377388e-42
1.3377438e-42
1.3378782e-42
1.3377907e-42
1.3377472e-42
1.3377278e-42
1.33772e-42
1.3377174e-42
1.3377169e-42
1.3377175e-42
1.3377196e-42
1.3377247e-42
1.3378704e-42
1.3377829e-42
1.3377395e-42
1.33772e-42
1.3377123e-42
1.3377097e-42
1.3377092e-42
1.3377098e-42
1.3377119e-42
1.3377171e-42
1.3378678e-42
1.3377803e-42
1.3377369e-42
1.3377174e-42
1.3377097e-42
1.3377071e-42
1.3377066e-42
1.3377073e-42
1.3377094e-42
1.3377145e-42
1.3378671e-42
1.3377797e-42
1.3377363e-42
1.3377169e-42
1.3377092e-42
1.3377066e-42
1.3377061e-42
1.3377067e-42
1.3377089e-42
1.337714e-42
1.3378674e-42
1.3377801e-42
1.3377369e-42
1.3377175e-42
1.3377098e-42
1.3377073e-42
1.3377067e-42
1.3377074e-42
1.3377095e-42
1.3377147e-42
1.3378687e-42
1.3377818e-42
1.3377388e-42
1.3377196e-42
1.3377119e-42
1.3377094e-42
1.3377089e-42
1.3377095e-42
1.3377116e-42
1.3377168e-42
1.3378719e-42
1.3377863e-42
1.3377438e-42
1.3377247e-42
1.3377171e-42
1.3377145e-42
1.337714e-42
1.3377147e-42
1.3377168e-42
1.337722e-42
5.699846e-42
5.6994857e-42
5.6993064e-42
5.6992259e-42
5.699194e-42
5.699183e-42
5.6991803e-42
5.6991816e-42
5.6991867e-42
5.6991997e-42
5.6994857e-42
5.6991256e-42
5.6989464e-42
5.6988659e-42
5.698834e-42
5.698823e-42
5.6988205e-42
5.6988224e-42
5.6988293e-42
5.6988479e-42
5.6993064e-42
5.6989464e-42
5.6987672e-42
5.6986867e-42
5.6986548e-42
5.6986439e-42
5.6986416e-42
5.698644e-42
5.6986519e-42
5.6986723e-42
5.6992259e-42
5.6988659e-42
5.6986867e-42
5.6986063e-42
5.6985744e-42
5.6985636e-42
5.6985614e-42
5.698564e-42
5.6985724e-42
5.6985934e-42
5.699194e-42
5.698834e-42
5.6986548e-42
5.6985744e-42
5.6985425e-42
5.6985317e-42
5.6985296e-42
5.6985323e-42
5.6985409e-42
5.6985621e-42
5.699183e-42
5.698823e-42
5.6986439e-42
5.6985636e-42
5.6985317e-42
5.6985209e-42
5.6985188e-42
5.6985216e-42
5.6985303e-42
5.6985515e-42
5.6991803e-42
5.6988205e-42
5.6986416e-42
5.6985614e-42
5.6985296e-42
5.6985188e-42
5.6985167e-42
5.6985195e-42
5.6985282e-42
5.6985495e-42
5.6991816e-42
5.6988224e-42
5.698644e-42
5.698564e-42
5.6985323e-42
5.6985216e-42
5.6985195e-42
5.6985223e-42
5.698531e-42
5.6985522e-42
5.6991867e-42
5.6988293e-42
5.6986519e-42
5.6985724e-42
5.6985409e-42
5.6985303e-42
5.6985282e-42
5.698531e-42
5.6985398e-42
5.698561e-42
5.6991997e-42
5.6988479e-42
5.6986723e-42
5.6985934e-42
5.6985621e-42
5.6985515e-42
5.6985495e-42
5.6985522e-42
5.698561e-42
5.6985822e-42
2.4753891e-41
2.4752381e-41
2.4751627e-41
2.4751288e-41
2.4751154e-41
2.4751107e-41
2.4751096e-41
2.4751101e-41
2.4751123e-41
2.4751176e-41
2.4752381e-41
2.4750871e-41
2.4750118e-41
2.4749779e-41
2.4749644e-41
2.4749598e-41
2.4749588e-41
2.4749596e-41
2.4749625e-41
2.4749702e-41
2.4751627e-41
2.4750118e-41
2.4749364e-41
2.4749026e-41
2.4748891e-41
2.4748845e-41
2.4748836e-41
2.4748846e-41
2.4748879e-41
2.4748964e-41
2.4751288e-41
2.4749779e-41
2.4749026e-41
2.4748687e-41
2.4748553e-41
2.4748507e-41
2.4748498e-41
2.4748509e-41
2.4748545e-41
2.4748632e-41
2.4751154e-41
2.4749644e-41
2.4748891e-41
2.4748553e-41
2.4748418e-41
2.4748373e-41
2.4748364e-41
2.4748376e-41
2.4748412e-41
2.4748501e-41
2.4751107e-41
2.4749598e-41
2.4748845e-41
2.4748507e-41
2.4748373e-41
2.4748328e-41
2.4748319e-41
2.474833e-41
2.4748367e-41
2.4748456e-41
2.4751096e-41
2.4749588e-41
2.4748836e-41
2.4748498e-41
2.4748364e-41
2.4748319e-41
2.474831e-41
2.4748322e-41
2.4748359e-41
2.4748447e-41
2.4751101e-41
2.4749596e-41
2.4748846e-41
2.4748509e-41
2.4748376e-41
2.474833e-41
2.4748322e-41
2.4748334e-41
2.4748371e-41
2.4748459e-41
2.4751123e-41
2.4749625e-41
2.4748879e-41
2.4748545e-41
2.4748412e-41
2.4748367e-41
2.4748359e-41
2.4748371e-41
2.4748408e-41
2.4748496e-41
2.4751176e-41
2.4749702e-41
2.4748964e-41
2.4748632e-41
2.4748501e-41
2.4748456e-41
2.4748447e-41
2.4748459e-41
2.4748496e-41
2.4748585e-41
1.0959287e-40
1.0958642e-40
1.0958319e-40
1.0958174e-40
1.0958116e-40
1.0958096e-40
1.0958091e-40
1.0958094e-40
1.0958103e-40
1.0958125e-40
1.0958642e-40
1.0957997e-40
1.0957674e-40
1.0957529e-40
1.0957471e-40
1.0957452e-40
1.0957447e-40
1.0957451e-40
1.0957463e-40
1.0957496e-40
1.0958319e-40
1.0957674e-40
1.0957352e-40
1.0957206e-40
1.0957149e-40
1.0957129e-40
1.0957125e-40
1.0957129e-40
1.0957144e-40
1.095718e-40
1.0958174e-40
1.0957529e-40
1.0957206e-40
1.0957061e-40
1.0957004e-40
1.0956984e-40
1.095698e-40
1.0956985e-40
1.0957e-40
1.0957038e-40
1.0958116e-40
1.0957471e-40
1.0957149e-40
1.0957004e-40
1.0956946e-40
1.0956927e-40
1.0956923e-40
1.0956928e-40
1.0956944e-40
1.0956981e-40
1.0958096e-40
1.0957452e-40
1.0957129e-40
1.0956984e-40
1.0956927e-40
1.0956907e-40
1.0956903e-40
1.0956908e-40
1.0956924e-40
1.0956962e-40
1.0958091e-40
1.0957447e-40
1.0957125e-40
1.095698e-40
1.0956923e-40
1.0956903e-40
1.09569e-40
1.0956905e-40
1.0956921e-40
1.0956959e-40
1.0958094e-40
1.0957451e-40
1.0957129e-40
1.0956985e-40
1.0956928e-40
1.0956908e-40
1.0956905e-40
1.095691e-40
1.0956926e-40
1.0956964e-40
1.0958103e-40
1.0957463e-40
1.0957144e-40
1.0957e-40
1.0956944e-40
1.0956924e-40
1.0956921e-40
1.0956926e-40
1.0956942e-40
1.095698e-40
1.0958125e-40
1.0957496e-40
1.095718e-40
1.0957038e-40
1.0956981e-40
1.0956962e-40
1.0956959e-40
1.0956964e-40
1.095698e-40
1.0957017e-40
4.9459407e-40
4.94566e-40
4.9455192e-40
4.9454558e-40
4.9454305e-40
4.9454218e-40
4.9454197e-40
4.9454208e-40
4.9454248e-40
4.9454344e-40
4.94566e-40
4.9453795e-40
4.9452387e-40
4.9451753e-40
4.9451501e-40
4.9451414e-40
4.9451395e-40
4.945141e-40
4.9451465e-40
4.9451607e-40
4.9455192e-40
4.9452387e-40
4.945098e-40
4.9450346e-40
4.9450093e-40
4.9450008e-40
4.944999e-40
4.9450009e-40
4.9450073e-40
4.945023e-40
4.9454558e-40
4.9451753e-40
4.9450346e-40
4.9449711e-40
4.9449459e-40
4.9449374e-40
4.9449357e-40
4.9449378e-40
4.9449446e-40
4.9449608e-40
4.9454305e-40
4.9451501e-40
4.9450093e-40
4.9449459e-40
4.9449208e-40
4.9449122e-40
4.9449106e-40
4.9449128e-40
4.9449198e-40
4.9449361e-40
4.9454218e-40
4.9451414e-40
4.9450008e-40
4.9449374e-40
4.9449122e-40
4.9449037e-40
4.9449021e-40
4.9449044e-40
4.9449114e-40
4.9449278e-40
4.9454197e-40
4.9451395e-40
4.944999e-40
4.9449357e-40
4.9449106e-40
4.9449021e-40
4.9449005e-40
4.9449028e-40
4.9449098e-40
4.9449262e-40
4.9454208e-40
4.945141e-40
4.9450009e-40
4.9449378e-40
4.9449128e-40
4.9449044e-40
4.9449028e-40
4.944905e-40
4.9449121e-40
4.9449285e-40
4.9454248e-40
4.9451465e-40
4.9450073e-40
4.9449446e-40
4.9449198e-40
4.9449114e-40
4.9449098e-40
4.9449121e-40
4.9449191e-40
4.9449355e-40
4.9454344e-40
4.9451607e-40
4.945023e-40
4.9449608e-40
4.9449361e-40
4.9449278e-40
4.9449262e-40
4.9449285e-40
4.9449355e-40
4.944952e-40
2.2751281e-39
2.2750037e-39
2.2749411e-39
2.2749129e-39
2.2749017e-39
2.2748978e-39
2.2748969e-39
2.2748973e-39
2.2748991e-39
2.2749033e-39
2.2750037e-39
2.2748794e-39
2.2748168e-39
2.2747886e-39
2.2747774e-39
2.2747735e-39
2.2747727e-39
2.2747734e-39
2.2747758e-39
2.2747821e-39
2.2749411e-39
2.2748168e-39
2.2747543e-39
2.2747261e-39
2.2747148e-39
2.274711e-39
2.2747102e-39
2.2747111e-39
2.274714e-39
2.2747209e-39
2.2749129e-39
2.2747886e-39
2.2747261e-39
2.2746978e-39
2.2746866e-39
2.2746828e-39
2.2746821e-39
2.2746831e-39
2.2746861e-39
2.2746933e-39
2.2749017e-39
2.2747774e-39
2.2747148e-39
2.2746866e-39
2.2746754e-39
2.2746716e-39
2.2746709e-39
2.2746719e-39
2.274675e-39
2.2746823e-39
2.2748978e-39
2.2747735e-39
2.274711e-39
2.2746828e-39
2.2746716e-39
2.2746678e-39
2.2746671e-39
2.2746682e-39
2.2746713e-39
2.2746786e-39
2.2748969e-39
2.2747727e-39
2.2747102e-39
2.2746821e-39
2.2746709e-39
2.2746671e-39
2.2746664e-39
2.2746675e-39
2.2746706e-39
2.2746779e-39
2.2748973e-39
2.2747734e-39
2.2747111e-39
2.2746831e-39
2.2746719e-39
2.2746682e-39
2.2746675e-39
2.2746685e-39
2.2746716e-39
2.2746789e-39
2.2748991e-39
2.2747758e-39
2.274714e-39
2.2746861e-39
2.274675e-39
2.2746713e-39
2.2746706e-39
2.2746716e-39
2.2746748e-39
2.2746821e-39
2.2749033e-39
2.2747821e-39
2.2747209e-39
2.2746933e-39
2.2746823e-39
2.2746786e-39
2.2746779e-39
2.2746789e-39
2.2746821e-39
2.2746893e-39
1.0666172e-38
1.0665611e-38
1.0665328e-38
1.06652e-38
1.0665149e-38
1.0665131e-38
1.0665127e-38
1.0665129e-38
1.0665137e-38
1.0665156e-38
1.0665611e-38
1.066505e-38
1.0664767e-38
1.0664639e-38
1.0664588e-38
1.0664571e-38
1.0664567e-38
1.066457e-38
1.0664581e-38
1.0664609e-38
1.0665328e-38
1.0664767e-38
1.0664484e-38
1.0664356e-38
1.0664305e-38
1.0664288e-38
1.0664284e-38
1.0664288e-38
1.0664301e-38
1.0664333e-38
1.06652e-38
1.0664639e-38
1.0664356e-38
1.0664228e-38
1.0664177e-38
1.066416e-38
1.0664157e-38
1.0664161e-38
1.0664175e-38
1.0664207e-38
1.0665149e-38
1.0664588e-38
1.0664305e-38
1.0664177e-38
1.0664126e-38
1.0664109e-38
1.0664106e-38
1.0664111e-38
1.0664125e-38
1.0664158e-38
1.0665131e-38
1.0664571e-38
1.0664288e-38
1.066416e-38
1.0664109e-38
1.0664092e-38
1.0664089e-38
1.0664094e-38
1.0664108e-38
1.0664141e-38
1.0665127e-38
1.0664567e-38
1.0664284e-38
1.0664157e-38
1.0664106e-38
1.0664089e-38
1.0664086e-38
1.066409e-38
1.0664105e-38
1.0664138e-38
1.0665129e-38
1.066457e-38
1.0664288e-38
1.0664161e-38
1.0664111e-38
1.0664094e-38
1.066409e-38
1.0664095e-38
1.0664109e-38
1.0664142e-38
1.0665137e-38
1.0664581e-38
1.0664301e-38
1.0664175e-38
1.0664125e-38
1.0664108e-38
1.0664105e-38
1.0664109e-38
1.0664124e-38
1.0664157e-38
1.0665156e-38
1.0664609e-38
1.0664333e-38
1.0664207e-38
1.0664158e-38
1.0664141e-38
1.0664138e-38
1.0664142e-38
1.0664157e-38
1.066419e-38
5.0957159e-38
5.0954578e-38
5.0953273e-38
5.0952683e-38
5.0952448e-38
5.0952367e-38
5.0952348e-38
5.0952358e-38
5.0952395e-38
5.095248e-38
5.0954578e-38
5.0951999e-38
5.0950694e-38
5.0950104e-38
5.0949869e-38
5.0949789e-38
5.0949771e-38
5.0949786e-38
5.0949838e-38
5.0949968e-38
5.0953273e-38
5.0950694e-38
5.094939e-38
5.09488e-38
5.0948565e-38
5.0948485e-38
5.0948469e-38
5.0948488e-38
5.0948548e-38
5.0948693e-38
5.0952683e-38
5.0950104e-38
5.09488e-38
5.094821e-38
5.0947976e-38
5.0947896e-38
5.0947881e-38
5.0947902e-38
5.0947966e-38
5.0948116e-38
5.0952448e-38
5.0949869e-38
5.0948565e-38
5.0947976e-38
5.0947741e-38
5.0947662e-38
5.0947647e-38
5.0947669e-38
5.0947735e-38
5.0947886e-38
5.0952367e-38
5.0949789e-38
5.0948485e-38
5.0947896e-38
5.0947662e-38
5.0947583e-38
5.0947568e-38
5.094759e-38
5.0947657e-38
5.0947808e-38
5.0952348e-38
5.0949771e-38
5.0948469e-38
5.0947881e-38
5.0947647e-38
5.0947568e-38
5.0947553e-38
5.0947576e-38
5.0947642e-38
5.0947794e-38
5.0952358e-38
5.0949786e-38
5.0948488e-38
5.0947902e-38
5.0947669e-38
5.094759e-38
5.0947576e-38
5.0947598e-38
5.0947665e-38
5.0947816e-38
5.0952395e-38
5.0949838e-38
5.0948548e-38
5.0947966e-38
5.0947735e-38
5.0947657e-38
5.0947642e-38
5.0947665e-38
5.0947731e-38
5.0947883e-38
5.095248e-38
5.0949968e-38
5.0948693e-38
5.0948116e-38
5.0947886e-38
5.0947808e-38
5.0947794e-38
5.0947816e-38
5.0947883e-38