/*--------------------------------*- C++ -*----------------------------------*\
| =========                 |                                                 |
| \\      /  F ield         | OpenFOAM: The Open Source CFD Toolbox           |
|  \\    /   O peration     | Version:  dev                                   |
|   \\  /    A nd           | Web:      www.OpenFOAM.org                      |
|    \\/     M anipulation  |                                                 |
\*---------------------------------------------------------------------------*/
FoamFile
{
    version     2.0;
    format      ascii;
    class       volScalarField;
    location    "23";
    object      A_0;
}
// * * * * * * * * * * * * * * * * * * * * * * * * * * * * * * * * * * * * * //

dimensions      [0 0 0 0 1 0 0];

internalField   nonuniform List<scalar> 
10000
(
3.5193853e-50
3.5190385e-50
3.5188758e-50
3.5188042e-50
3.5187761e-50
3.5187664e-50
3.518764e-50
3.5187651e-50
3.5187702e-50
3.5187856e-50
3.5190385e-50
3.5186919e-50
3.5185292e-50
3.5184577e-50
3.5184295e-50
3.5184199e-50
3.5184177e-50
3.5184191e-50
3.5184256e-50
3.5184451e-50
3.5188758e-50
3.5185292e-50
3.5183665e-50
3.518295e-50
3.5182669e-50
3.5182573e-50
3.5182552e-50
3.5182571e-50
3.5182643e-50
3.5182852e-50
3.5188042e-50
3.5184577e-50
3.518295e-50
3.5182235e-50
3.5181954e-50
3.5181859e-50
3.5181838e-50
3.5181859e-50
3.5181935e-50
3.5182148e-50
3.5187761e-50
3.5184295e-50
3.5182669e-50
3.5181954e-50
3.5181673e-50
3.5181578e-50
3.5181558e-50
3.5181579e-50
3.5181657e-50
3.5181871e-50
3.5187664e-50
3.5184199e-50
3.5182573e-50
3.5181859e-50
3.5181578e-50
3.5181483e-50
3.5181463e-50
3.5181485e-50
3.5181562e-50
3.5181777e-50
3.518764e-50
3.5184177e-50
3.5182552e-50
3.5181838e-50
3.5181558e-50
3.5181463e-50
3.5181444e-50
3.5181465e-50
3.5181543e-50
3.5181758e-50
3.5187651e-50
3.5184191e-50
3.5182571e-50
3.5181859e-50
3.5181579e-50
3.5181485e-50
3.5181465e-50
3.5181487e-50
3.5181565e-50
3.518178e-50
3.5187702e-50
3.5184256e-50
3.5182643e-50
3.5181935e-50
3.5181657e-50
3.5181562e-50
3.5181543e-50
3.5181565e-50
3.5181643e-50
3.5181858e-50
3.5187856e-50
3.5184451e-50
3.5182852e-50
3.5182148e-50
3.5181871e-50
3.5181777e-50
3.5181758e-50
3.518178e-50
3.5181858e-50
3.5182073e-50
1.6272874e-49
1.6271318e-49
1.6270578e-49
1.6270252e-49
1.6270124e-49
1.627008e-49
1.6270069e-49
1.6270074e-49
1.6270097e-49
1.627017e-49
1.6271318e-49
1.6269763e-49
1.6269023e-49
1.6268697e-49
1.6268569e-49
1.6268525e-49
1.6268515e-49
1.6268522e-49
1.6268551e-49
1.6268643e-49
1.6270578e-49
1.6269023e-49
1.6268283e-49
1.6267958e-49
1.626783e-49
1.6267786e-49
1.6267776e-49
1.6267785e-49
1.6267817e-49
1.6267915e-49
1.6270252e-49
1.6268697e-49
1.6267958e-49
1.6267632e-49
1.6267504e-49
1.6267461e-49
1.6267451e-49
1.6267461e-49
1.6267495e-49
1.6267595e-49
1.6270124e-49
1.6268569e-49
1.626783e-49
1.6267504e-49
1.6267376e-49
1.6267333e-49
1.6267324e-49
1.6267333e-49
1.6267368e-49
1.6267469e-49
1.627008e-49
1.6268525e-49
1.6267786e-49
1.6267461e-49
1.6267333e-49
1.6267289e-49
1.626728e-49
1.626729e-49
1.6267325e-49
1.6267426e-49
1.6270069e-49
1.6268515e-49
1.6267776e-49
1.6267451e-49
1.6267324e-49
1.626728e-49
1.6267271e-49
1.6267281e-49
1.6267317e-49
1.6267417e-49
1.6270074e-49
1.6268522e-49
1.6267785e-49
1.6267461e-49
1.6267333e-49
1.626729e-49
1.6267281e-49
1.6267291e-49
1.6267327e-49
1.6267427e-49
1.6270097e-49
1.6268551e-49
1.6267817e-49
1.6267495e-49
1.6267368e-49
1.6267325e-49
1.6267317e-49
1.6267327e-49
1.6267362e-49
1.6267463e-49
1.627017e-49
1.6268643e-49
1.6267915e-49
1.6267595e-49
1.6267469e-49
1.6267426e-49
1.6267417e-49
1.6267427e-49
1.6267463e-49
1.6267563e-49
5.6406563e-49
5.6401323e-49
5.6398817e-49
5.6397713e-49
5.6397278e-49
5.6397128e-49
5.6397091e-49
5.6397107e-49
5.6397185e-49
5.6397431e-49
5.6401323e-49
5.6396085e-49
5.639358e-49
5.6392476e-49
5.6392041e-49
5.6391892e-49
5.6391857e-49
5.639188e-49
5.6391979e-49
5.6392289e-49
5.6398817e-49
5.639358e-49
5.6391076e-49
5.6389972e-49
5.6389537e-49
5.6389389e-49
5.6389357e-49
5.6389385e-49
5.6389496e-49
5.6389828e-49
5.6397713e-49
5.6392476e-49
5.6389972e-49
5.6388868e-49
5.6388434e-49
5.6388286e-49
5.6388255e-49
5.6388286e-49
5.6388403e-49
5.6388741e-49
5.6397278e-49
5.6392041e-49
5.6389537e-49
5.6388434e-49
5.6387999e-49
5.6387852e-49
5.6387821e-49
5.6387854e-49
5.6387973e-49
5.6388313e-49
5.6397128e-49
5.6391892e-49
5.6389389e-49
5.6388286e-49
5.6387852e-49
5.6387705e-49
5.6387675e-49
5.6387708e-49
5.6387828e-49
5.6388169e-49
5.6397091e-49
5.6391857e-49
5.6389357e-49
5.6388255e-49
5.6387821e-49
5.6387675e-49
5.6387644e-49
5.6387678e-49
5.6387798e-49
5.6388139e-49
5.6397107e-49
5.639188e-49
5.6389385e-49
5.6388286e-49
5.6387854e-49
5.6387708e-49
5.6387678e-49
5.6387712e-49
5.6387832e-49
5.6388173e-49
5.6397185e-49
5.6391979e-49
5.6389496e-49
5.6388403e-49
5.6387973e-49
5.6387828e-49
5.6387798e-49
5.6387832e-49
5.6387951e-49
5.6388293e-49
5.6397431e-49
5.6392289e-49
5.6389828e-49
5.6388741e-49
5.6388313e-49
5.6388169e-49
5.6388139e-49
5.6388173e-49
5.6388293e-49
5.6388634e-49
1.9476225e-48
1.9474468e-48
1.9473625e-48
1.9473253e-48
1.9473106e-48
1.9473055e-48
1.9473043e-48
1.9473048e-48
1.9473074e-48
1.9473155e-48
1.9474468e-48
1.9472712e-48
1.9471869e-48
1.9471497e-48
1.947135e-48
1.94713e-48
1.9471288e-48
1.9471296e-48
1.9471329e-48
1.9471432e-48
1.9473625e-48
1.9471869e-48
1.9471027e-48
1.9470654e-48
1.9470508e-48
1.9470458e-48
1.9470447e-48
1.9470457e-48
1.9470494e-48
1.9470604e-48
1.9473253e-48
1.9471497e-48
1.9470654e-48
1.9470282e-48
1.9470136e-48
1.9470086e-48
1.9470075e-48
1.9470086e-48
1.9470125e-48
1.9470238e-48
1.9473106e-48
1.947135e-48
1.9470508e-48
1.9470136e-48
1.9469989e-48
1.946994e-48
1.9469929e-48
1.9469941e-48
1.946998e-48
1.9470093e-48
1.9473055e-48
1.94713e-48
1.9470458e-48
1.9470086e-48
1.946994e-48
1.946989e-48
1.946988e-48
1.9469891e-48
1.9469931e-48
1.9470044e-48
1.9473043e-48
1.9471288e-48
1.9470447e-48
1.9470075e-48
1.9469929e-48
1.946988e-48
1.946987e-48
1.9469881e-48
1.9469921e-48
1.9470035e-48
1.9473048e-48
1.9471296e-48
1.9470457e-48
1.9470086e-48
1.9469941e-48
1.9469891e-48
1.9469881e-48
1.9469893e-48
1.9469933e-48
1.9470046e-48
1.9473074e-48
1.9471329e-48
1.9470494e-48
1.9470125e-48
1.946998e-48
1.9469931e-48
1.9469921e-48
1.9469933e-48
1.9469973e-48
1.9470086e-48
1.9473155e-48
1.9471432e-48
1.9470604e-48
1.9470238e-48
1.9470093e-48
1.9470044e-48
1.9470035e-48
1.9470046e-48
1.9470086e-48
1.94702e-48
6.8411926e-48
6.8405939e-48
6.8403054e-48
6.8401778e-48
6.8401275e-48
6.8401102e-48
6.8401059e-48
6.8401077e-48
6.8401165e-48
6.8401433e-48
6.8405939e-48
6.8399954e-48
6.839707e-48
6.8395794e-48
6.8395291e-48
6.8395119e-48
6.8395079e-48
6.8395106e-48
6.8395218e-48
6.8395563e-48
6.8403054e-48
6.839707e-48
6.8394187e-48
6.8392912e-48
6.8392409e-48
6.8392238e-48
6.83922e-48
6.8392233e-48
6.839236e-48
6.839273e-48
6.8401778e-48
6.8395794e-48
6.8392912e-48
6.8391636e-48
6.8391134e-48
6.8390963e-48
6.8390927e-48
6.8390964e-48
6.8391098e-48
6.8391475e-48
6.8401275e-48
6.8395291e-48
6.8392409e-48
6.8391134e-48
6.8390631e-48
6.8390461e-48
6.8390426e-48
6.8390465e-48
6.8390601e-48
6.8390981e-48
6.8401102e-48
6.8395119e-48
6.8392238e-48
6.8390963e-48
6.8390461e-48
6.8390291e-48
6.8390256e-48
6.8390295e-48
6.8390433e-48
6.8390814e-48
6.8401059e-48
6.8395079e-48
6.83922e-48
6.8390927e-48
6.8390426e-48
6.8390256e-48
6.8390221e-48
6.8390261e-48
6.8390398e-48
6.839078e-48
6.8401077e-48
6.8395106e-48
6.8392233e-48
6.8390964e-48
6.8390465e-48
6.8390295e-48
6.8390261e-48
6.83903e-48
6.8390438e-48
6.8390819e-48
6.8401165e-48
6.8395218e-48
6.839236e-48
6.8391098e-48
6.8390601e-48
6.8390433e-48
6.8390398e-48
6.8390438e-48
6.8390575e-48
6.8390957e-48
6.8401433e-48
6.8395563e-48
6.839273e-48
6.8391475e-48
6.8390981e-48
6.8390814e-48
6.839078e-48
6.8390819e-48
6.8390957e-48
6.8391338e-48
2.4491354e-47
2.4489275e-47
2.448827e-47
2.4487824e-47
2.4487649e-47
2.4487588e-47
2.4487573e-47
2.448758e-47
2.448761e-47
2.4487701e-47
2.4489275e-47
2.4487197e-47
2.4486192e-47
2.4485747e-47
2.4485571e-47
2.4485511e-47
2.4485497e-47
2.4485506e-47
2.4485545e-47
2.4485663e-47
2.448827e-47
2.4486192e-47
2.4485187e-47
2.4484742e-47
2.4484566e-47
2.4484506e-47
2.4484493e-47
2.4484505e-47
2.4484549e-47
2.4484676e-47
2.4487824e-47
2.4485747e-47
2.4484742e-47
2.4484297e-47
2.4484121e-47
2.4484062e-47
2.4484049e-47
2.4484062e-47
2.4484109e-47
2.4484238e-47
2.4487649e-47
2.4485571e-47
2.4484566e-47
2.4484121e-47
2.4483946e-47
2.4483886e-47
2.4483874e-47
2.4483888e-47
2.4483935e-47
2.4484065e-47
2.4487588e-47
2.4485511e-47
2.4484506e-47
2.4484062e-47
2.4483886e-47
2.4483827e-47
2.4483815e-47
2.4483828e-47
2.4483876e-47
2.4484007e-47
2.4487573e-47
2.4485497e-47
2.4484493e-47
2.4484049e-47
2.4483874e-47
2.4483815e-47
2.4483803e-47
2.4483816e-47
2.4483864e-47
2.4483995e-47
2.448758e-47
2.4485506e-47
2.4484505e-47
2.4484062e-47
2.4483888e-47
2.4483828e-47
2.4483816e-47
2.448383e-47
2.4483878e-47
2.4484009e-47
2.448761e-47
2.4485545e-47
2.4484549e-47
2.4484109e-47
2.4483935e-47
2.4483876e-47
2.4483864e-47
2.4483878e-47
2.4483926e-47
2.4484057e-47
2.4487701e-47
2.4485663e-47
2.4484676e-47
2.4484238e-47
2.4484065e-47
2.4484007e-47
2.4483995e-47
2.4484009e-47
2.4484057e-47
2.4484188e-47
8.9379547e-47
8.937219e-47
8.936862e-47
8.9367036e-47
8.936641e-47
8.9366195e-47
8.9366142e-47
8.9366165e-47
8.9366272e-47
8.9366586e-47
8.937219e-47
8.9364836e-47
8.9361267e-47
8.9359684e-47
8.9359058e-47
8.9358844e-47
8.9358794e-47
8.9358828e-47
8.9358965e-47
8.9359378e-47
8.936862e-47
8.9361267e-47
8.93577e-47
8.9356116e-47
8.9355491e-47
8.9355278e-47
8.9355232e-47
8.9355274e-47
8.935543e-47
8.9355874e-47
8.9367036e-47
8.9359684e-47
8.9356116e-47
8.9354533e-47
8.9353908e-47
8.9353696e-47
8.9353652e-47
8.9353698e-47
8.9353864e-47
8.9354317e-47
8.936641e-47
8.9359058e-47
8.9355491e-47
8.9353908e-47
8.9353284e-47
8.9353072e-47
8.9353029e-47
8.9353077e-47
8.9353246e-47
8.9353703e-47
8.9366195e-47
8.9358844e-47
8.9355278e-47
8.9353696e-47
8.9353072e-47
8.9352861e-47
8.9352818e-47
8.9352867e-47
8.9353037e-47
8.9353495e-47
8.9366142e-47
8.9358794e-47
8.9355232e-47
8.9353652e-47
8.9353029e-47
8.9352818e-47
8.9352775e-47
8.9352825e-47
8.9352995e-47
8.9353453e-47
8.9366165e-47
8.9358828e-47
8.9355274e-47
8.9353698e-47
8.9353077e-47
8.9352867e-47
8.9352825e-47
8.9352875e-47
8.9353045e-47
8.9353503e-47
8.9366272e-47
8.9358965e-47
8.935543e-47
8.9353864e-47
8.9353246e-47
8.9353037e-47
8.9352995e-47
8.9353045e-47
8.9353215e-47
8.9353673e-47
8.9366586e-47
8.9359378e-47
8.9355874e-47
8.9354317e-47
8.9353703e-47
8.9353495e-47
8.9353453e-47
8.9353503e-47
8.9353673e-47
8.9354131e-47
3.3253406e-46
3.3250754e-46
3.3249462e-46
3.3248888e-46
3.3248661e-46
3.3248583e-46
3.3248564e-46
3.3248572e-46
3.324861e-46
3.3248721e-46
3.3250754e-46
3.3248102e-46
3.3246811e-46
3.3246237e-46
3.324601e-46
3.3245932e-46
3.3245914e-46
3.3245926e-46
3.3245976e-46
3.3246123e-46
3.3249462e-46
3.3246811e-46
3.324552e-46
3.3244946e-46
3.3244719e-46
3.3244642e-46
3.3244625e-46
3.3244641e-46
3.3244697e-46
3.3244855e-46
3.3248888e-46
3.3246237e-46
3.3244946e-46
3.3244372e-46
3.3244146e-46
3.3244069e-46
3.3244053e-46
3.324407e-46
3.324413e-46
3.3244291e-46
3.3248661e-46
3.324601e-46
3.3244719e-46
3.3244146e-46
3.3243919e-46
3.3243843e-46
3.3243827e-46
3.3243845e-46
3.3243906e-46
3.3244069e-46
3.3248583e-46
3.3245932e-46
3.3244642e-46
3.3244069e-46
3.3243843e-46
3.3243766e-46
3.324375e-46
3.3243768e-46
3.324383e-46
3.3243993e-46
3.3248564e-46
3.3245914e-46
3.3244625e-46
3.3244053e-46
3.3243827e-46
3.324375e-46
3.3243735e-46
3.3243753e-46
3.3243815e-46
3.3243978e-46
3.3248572e-46
3.3245926e-46
3.3244641e-46
3.324407e-46
3.3243845e-46
3.3243768e-46
3.3243753e-46
3.3243771e-46
3.3243833e-46
3.3243996e-46
3.324861e-46
3.3245976e-46
3.3244697e-46
3.324413e-46
3.3243906e-46
3.324383e-46
3.3243815e-46
3.3243833e-46
3.3243894e-46
3.3244058e-46
3.3248721e-46
3.3246123e-46
3.3244855e-46
3.3244291e-46
3.3244069e-46
3.3243993e-46
3.3243978e-46
3.3243996e-46
3.3244058e-46
3.3244222e-46
1.2613224e-45
1.2612249e-45
1.2611773e-45
1.2611561e-45
1.2611477e-45
1.2611448e-45
1.2611441e-45
1.2611444e-45
1.2611458e-45
1.2611498e-45
1.2612249e-45
1.2611274e-45
1.2610798e-45
1.2610587e-45
1.2610503e-45
1.2610474e-45
1.2610467e-45
1.2610472e-45
1.261049e-45
1.2610543e-45
1.2611773e-45
1.2610798e-45
1.2610323e-45
1.2610111e-45
1.2610027e-45
1.2609998e-45
1.2609992e-45
1.2609998e-45
1.2610019e-45
1.2610076e-45
1.2611561e-45
1.2610587e-45
1.2610111e-45
1.2609899e-45
1.2609815e-45
1.2609787e-45
1.2609781e-45
1.2609787e-45
1.2609809e-45
1.2609868e-45
1.2611477e-45
1.2610503e-45
1.2610027e-45
1.2609815e-45
1.2609731e-45
1.2609703e-45
1.2609697e-45
1.2609704e-45
1.2609726e-45
1.2609786e-45
1.2611448e-45
1.2610474e-45
1.2609998e-45
1.2609787e-45
1.2609703e-45
1.2609675e-45
1.2609669e-45
1.2609676e-45
1.2609698e-45
1.2609758e-45
1.2611441e-45
1.2610467e-45
1.2609992e-45
1.2609781e-45
1.2609697e-45
1.2609669e-45
1.2609663e-45
1.260967e-45
1.2609693e-45
1.2609752e-45
1.2611444e-45
1.2610472e-45
1.2609998e-45
1.2609787e-45
1.2609704e-45
1.2609676e-45
1.260967e-45
1.2609677e-45
1.26097e-45
1.2609759e-45
1.2611458e-45
1.261049e-45
1.2610019e-45
1.2609809e-45
1.2609726e-45
1.2609698e-45
1.2609693e-45
1.26097e-45
1.2609722e-45
1.2609782e-45
1.2611498e-45
1.2610543e-45
1.2610076e-45
1.2609868e-45
1.2609786e-45
1.2609758e-45
1.2609752e-45
1.2609759e-45
1.2609782e-45
1.2609842e-45
4.877782e-45
4.877417e-45
4.8772381e-45
4.8771584e-45
4.8771268e-45
4.8771159e-45
4.8771133e-45
4.8771145e-45
4.8771197e-45
4.8771342e-45
4.877417e-45
4.8770521e-45
4.8768733e-45
4.8767935e-45
4.876762e-45
4.8767512e-45
4.8767487e-45
4.8767504e-45
4.8767573e-45
4.876777e-45
4.8772381e-45
4.8768733e-45
4.8766945e-45
4.8766148e-45
4.8765832e-45
4.8765725e-45
4.8765702e-45
4.8765723e-45
4.8765802e-45
4.8766015e-45
4.8771584e-45
4.8767935e-45
4.8766148e-45
4.876535e-45
4.8765035e-45
4.8764928e-45
4.8764906e-45
4.876493e-45
4.8765013e-45
4.8765232e-45
4.8771268e-45
4.876762e-45
4.8765832e-45
4.8765035e-45
4.8764721e-45
4.8764614e-45
4.8764592e-45
4.8764617e-45
4.8764702e-45
4.8764922e-45
4.8771159e-45
4.8767512e-45
4.8765725e-45
4.8764928e-45
4.8764614e-45
4.8764507e-45
4.8764486e-45
4.8764511e-45
4.8764597e-45
4.8764818e-45
4.8771133e-45
4.8767487e-45
4.8765702e-45
4.8764906e-45
4.8764592e-45
4.8764486e-45
4.8764464e-45
4.876449e-45
4.8764576e-45
4.8764797e-45
4.8771145e-45
4.8767504e-45
4.8765723e-45
4.876493e-45
4.8764617e-45
4.8764511e-45
4.876449e-45
4.8764516e-45
4.8764602e-45
4.8764823e-45
4.8771197e-45
4.8767573e-45
4.8765802e-45
4.8765013e-45
4.8764702e-45
4.8764597e-45
4.8764576e-45
4.8764602e-45
4.8764687e-45
4.8764908e-45
4.8771342e-45
4.876777e-45
4.8766015e-45
4.8765232e-45
4.8764922e-45
4.8764818e-45
4.8764797e-45
4.8764823e-45
4.8764908e-45
4.876513e-45
1.9232446e-44
1.9231053e-44
1.9230368e-44
1.9230062e-44
1.9229941e-44
1.92299e-44
1.9229889e-44
1.9229894e-44
1.9229914e-44
1.9229968e-44
1.9231053e-44
1.9229661e-44
1.9228976e-44
1.922867e-44
1.9228549e-44
1.9228508e-44
1.9228498e-44
1.9228505e-44
1.9228531e-44
1.9228605e-44
1.9230368e-44
1.9228976e-44
1.9228291e-44
1.9227986e-44
1.9227865e-44
1.9227824e-44
1.9227815e-44
1.9227823e-44
1.9227853e-44
1.9227934e-44
1.9230062e-44
1.922867e-44
1.9227986e-44
1.922768e-44
1.9227559e-44
1.9227518e-44
1.922751e-44
1.9227519e-44
1.9227551e-44
1.9227634e-44
1.9229941e-44
1.9228549e-44
1.9227865e-44
1.9227559e-44
1.9227438e-44
1.9227398e-44
1.9227389e-44
1.9227399e-44
1.9227432e-44
1.9227515e-44
1.92299e-44
1.9228508e-44
1.9227824e-44
1.9227518e-44
1.9227398e-44
1.9227357e-44
1.9227348e-44
1.9227358e-44
1.9227391e-44
1.9227475e-44
1.9229889e-44
1.9228498e-44
1.9227815e-44
1.922751e-44
1.9227389e-44
1.9227348e-44
1.922734e-44
1.922735e-44
1.9227383e-44
1.9227467e-44
1.9229894e-44
1.9228505e-44
1.9227823e-44
1.9227519e-44
1.9227399e-44
1.9227358e-44
1.922735e-44
1.922736e-44
1.9227393e-44
1.9227477e-44
1.9229914e-44
1.9228531e-44
1.9227853e-44
1.9227551e-44
1.9227432e-44
1.9227391e-44
1.9227383e-44
1.9227393e-44
1.9227426e-44
1.922751e-44
1.9229968e-44
1.9228605e-44
1.9227934e-44
1.9227634e-44
1.9227515e-44
1.9227475e-44
1.9227467e-44
1.9227477e-44
1.922751e-44
1.9227594e-44
7.7315568e-44
7.7310151e-44
7.7307479e-44
7.7306284e-44
7.7305811e-44
7.7305648e-44
7.7305608e-44
7.7305626e-44
7.7305703e-44
7.730591e-44
7.7310151e-44
7.7304736e-44
7.7302065e-44
7.7300871e-44
7.7300398e-44
7.7300236e-44
7.7300198e-44
7.7300225e-44
7.7300327e-44
7.7300613e-44
7.7307479e-44
7.7302065e-44
7.7299394e-44
7.72982e-44
7.7297728e-44
7.7297567e-44
7.7297532e-44
7.7297565e-44
7.7297683e-44
7.7297995e-44
7.7306284e-44
7.7300871e-44
7.72982e-44
7.7297007e-44
7.7296534e-44
7.7296374e-44
7.7296341e-44
7.7296378e-44
7.7296503e-44
7.7296822e-44
7.7305811e-44
7.7300398e-44
7.7297728e-44
7.7296534e-44
7.7296062e-44
7.7295902e-44
7.729587e-44
7.7295908e-44
7.7296036e-44
7.7296358e-44
7.7305648e-44
7.7300236e-44
7.7297567e-44
7.7296374e-44
7.7295902e-44
7.7295742e-44
7.729571e-44
7.729575e-44
7.7295878e-44
7.7296201e-44
7.7305608e-44
7.7300198e-44
7.7297532e-44
7.7296341e-44
7.729587e-44
7.729571e-44
7.7295679e-44
7.7295718e-44
7.7295847e-44
7.729617e-44
7.7305626e-44
7.7300225e-44
7.7297565e-44
7.7296378e-44
7.7295908e-44
7.729575e-44
7.7295718e-44
7.7295758e-44
7.7295886e-44
7.729621e-44
7.7305703e-44
7.7300327e-44
7.7297683e-44
7.7296503e-44
7.7296036e-44
7.7295878e-44
7.7295847e-44
7.7295886e-44
7.7296015e-44
7.7296339e-44
7.730591e-44
7.7300613e-44
7.7297995e-44
7.7296822e-44
7.7296358e-44
7.7296201e-44
7.729617e-44
7.729621e-44
7.7296339e-44
7.7296662e-44
3.1689755e-43
3.1687608e-43
3.1686546e-43
3.168607e-43
3.1685882e-43
3.1685817e-43
3.1685801e-43
3.1685808e-43
3.1685839e-43
3.1685919e-43
3.1687608e-43
3.1685462e-43
3.16844e-43
3.1683925e-43
3.1683736e-43
3.1683672e-43
3.1683657e-43
3.1683668e-43
3.1683708e-43
3.1683821e-43
3.1686546e-43
3.16844e-43
3.1683339e-43
3.1682863e-43
3.1682675e-43
3.1682611e-43
3.1682597e-43
3.1682611e-43
3.1682658e-43
3.168278e-43
3.168607e-43
3.1683925e-43
3.1682863e-43
3.1682388e-43
3.16822e-43
3.1682136e-43
3.1682123e-43
3.1682138e-43
3.1682188e-43
3.1682314e-43
3.1685882e-43
3.1683736e-43
3.1682675e-43
3.16822e-43
3.1682012e-43
3.1681948e-43
3.1681936e-43
3.1681951e-43
3.1682002e-43
3.1682129e-43
3.1685817e-43
3.1683672e-43
3.1682611e-43
3.1682136e-43
3.1681948e-43
3.1681885e-43
3.1681872e-43
3.1681888e-43
3.1681939e-43
3.1682066e-43
3.1685801e-43
3.1683657e-43
3.1682597e-43
3.1682123e-43
3.1681936e-43
3.1681872e-43
3.168186e-43
3.1681875e-43
3.1681927e-43
3.1682054e-43
3.1685808e-43
3.1683668e-43
3.1682611e-43
3.1682138e-43
3.1681951e-43
3.1681888e-43
3.1681875e-43
3.1681891e-43
3.1681943e-43
3.168207e-43
3.1685839e-43
3.1683708e-43
3.1682658e-43
3.1682188e-43
3.1682002e-43
3.1681939e-43
3.1681927e-43
3.1681943e-43
3.1681994e-43
3.1682122e-43
3.1685919e-43
3.1683821e-43
3.168278e-43
3.1682314e-43
3.1682129e-43
3.1682066e-43
3.1682054e-43
3.168207e-43
3.1682122e-43
3.1682249e-43
1.3242928e-42
1.3242061e-42
1.3241631e-42
1.3241438e-42
1.3241362e-42
1.3241335e-42
1.3241329e-42
1.3241332e-42
1.3241344e-42
1.3241376e-42
1.3242061e-42
1.3241194e-42
1.3240764e-42
1.3240572e-42
1.3240495e-42
1.3240469e-42
1.3240463e-42
1.3240467e-42
1.3240484e-42
1.3240529e-42
1.3241631e-42
1.3240764e-42
1.3240334e-42
1.3240142e-42
1.3240065e-42
1.3240039e-42
1.3240034e-42
1.3240039e-42
1.3240058e-42
1.3240108e-42
1.3241438e-42
1.3240572e-42
1.3240142e-42
1.3239949e-42
1.3239873e-42
1.3239847e-42
1.3239841e-42
1.3239848e-42
1.3239868e-42
1.3239918e-42
1.3241362e-42
1.3240495e-42
1.3240065e-42
1.3239873e-42
1.3239796e-42
1.323977e-42
1.3239765e-42
1.3239772e-42
1.3239792e-42
1.3239843e-42
1.3241335e-42
1.3240469e-42
1.3240039e-42
1.3239847e-42
1.323977e-42
1.3239745e-42
1.323974e-42
1.3239746e-42
1.3239767e-42
1.3239818e-42
1.3241329e-42
1.3240463e-42
1.3240034e-42
1.3239841e-42
1.3239765e-42
1.323974e-42
1.3239735e-42
1.3239741e-42
1.3239762e-42
1.3239813e-42
1.3241332e-42
1.3240467e-42
1.3240039e-42
1.3239848e-42
1.3239772e-42
1.3239746e-42
1.3239741e-42
1.3239748e-42
1.3239768e-42
1.323982e-42
1.3241344e-42
1.3240484e-42
1.3240058e-42
1.3239868e-42
1.3239792e-42
1.3239767e-42
1.3239762e-42
1.3239768e-42
1.3239789e-42
1.3239841e-42
1.3241376e-42
1.3240529e-42
1.3240108e-42
1.3239918e-42
1.3239843e-42
1.3239818e-42
1.3239813e-42
1.323982e-42
1.3239841e-42
1.3239892e-42
5.6422246e-42
5.6418679e-42
5.6416904e-42
5.6416107e-42
5.6415791e-42
5.6415682e-42
5.6415655e-42
5.6415668e-42
5.6415718e-42
5.6415847e-42
5.6418679e-42
5.6415113e-42
5.6413338e-42
5.6412542e-42
5.6412225e-42
5.6412117e-42
5.6412093e-42
5.6412111e-42
5.6412179e-42
5.6412363e-42
5.6416904e-42
5.6413338e-42
5.6411564e-42
5.6410767e-42
5.6410451e-42
5.6410344e-42
5.6410321e-42
5.6410344e-42
5.6410423e-42
5.6410625e-42
5.6416107e-42
5.6412542e-42
5.6410767e-42
5.6409971e-42
5.6409655e-42
5.6409548e-42
5.6409526e-42
5.6409552e-42
5.6409636e-42
5.6409843e-42
5.6415791e-42
5.6412225e-42
5.6410451e-42
5.6409655e-42
5.640934e-42
5.6409233e-42
5.6409212e-42
5.6409238e-42
5.6409324e-42
5.6409533e-42
5.6415682e-42
5.6412117e-42
5.6410344e-42
5.6409548e-42
5.6409233e-42
5.6409126e-42
5.6409105e-42
5.6409132e-42
5.6409219e-42
5.6409429e-42
5.6415655e-42
5.6412093e-42
5.6410321e-42
5.6409526e-42
5.6409212e-42
5.6409105e-42
5.6409085e-42
5.6409112e-42
5.6409198e-42
5.6409408e-42
5.6415668e-42
5.6412111e-42
5.6410344e-42
5.6409552e-42
5.6409238e-42
5.6409132e-42
5.6409112e-42
5.6409139e-42
5.6409226e-42
5.6409436e-42
5.6415718e-42
5.6412179e-42
5.6410423e-42
5.6409636e-42
5.6409324e-42
5.6409219e-42
5.6409198e-42
5.6409226e-42
5.6409313e-42
5.6409523e-42
5.6415847e-42
5.6412363e-42
5.6410625e-42
5.6409843e-42
5.6409533e-42
5.6409429e-42
5.6409408e-42
5.6409436e-42
5.6409523e-42
5.6409733e-42
2.4507554e-41
2.4506058e-41
2.4505312e-41
2.4504977e-41
2.4504843e-41
2.4504797e-41
2.4504786e-41
2.4504792e-41
2.4504813e-41
2.4504866e-41
2.4506058e-41
2.4504563e-41
2.4503817e-41
2.4503482e-41
2.4503349e-41
2.4503303e-41
2.4503293e-41
2.45033e-41
2.4503329e-41
2.4503406e-41
2.4505312e-41
2.4503817e-41
2.4503071e-41
2.4502736e-41
2.4502603e-41
2.4502557e-41
2.4502548e-41
2.4502558e-41
2.4502591e-41
2.4502675e-41
2.4504977e-41
2.4503482e-41
2.4502736e-41
2.45024e-41
2.4502267e-41
2.4502222e-41
2.4502213e-41
2.4502224e-41
2.450226e-41
2.4502346e-41
2.4504843e-41
2.4503349e-41
2.4502603e-41
2.4502267e-41
2.4502135e-41
2.4502089e-41
2.4502081e-41
2.4502092e-41
2.4502128e-41
2.4502216e-41
2.4504797e-41
2.4503303e-41
2.4502557e-41
2.4502222e-41
2.4502089e-41
2.4502045e-41
2.4502036e-41
2.4502047e-41
2.4502084e-41
2.4502172e-41
2.4504786e-41
2.4503293e-41
2.4502548e-41
2.4502213e-41
2.4502081e-41
2.4502036e-41
2.4502027e-41
2.4502039e-41
2.4502075e-41
2.4502163e-41
2.4504792e-41
2.45033e-41
2.4502558e-41
2.4502224e-41
2.4502092e-41
2.4502047e-41
2.4502039e-41
2.4502051e-41
2.4502087e-41
2.4502175e-41
2.4504813e-41
2.4503329e-41
2.4502591e-41
2.450226e-41
2.4502128e-41
2.4502084e-41
2.4502075e-41
2.4502087e-41
2.4502124e-41
2.4502212e-41
2.4504866e-41
2.4503406e-41
2.4502675e-41
2.4502346e-41
2.4502216e-41
2.4502172e-41
2.4502163e-41
2.4502175e-41
2.4502212e-41
2.45023e-41
1.0851971e-40
1.0851332e-40
1.0851012e-40
1.0850869e-40
1.0850811e-40
1.0850792e-40
1.0850787e-40
1.0850789e-40
1.0850798e-40
1.0850821e-40
1.0851332e-40
1.0850693e-40
1.0850374e-40
1.085023e-40
1.0850173e-40
1.0850153e-40
1.0850149e-40
1.0850152e-40
1.0850165e-40
1.0850197e-40
1.0851012e-40
1.0850374e-40
1.0850054e-40
1.084991e-40
1.0849853e-40
1.0849834e-40
1.084983e-40
1.0849834e-40
1.0849848e-40
1.0849884e-40
1.0850869e-40
1.085023e-40
1.084991e-40
1.0849767e-40
1.084971e-40
1.084969e-40
1.0849686e-40
1.0849691e-40
1.0849706e-40
1.0849743e-40
1.0850811e-40
1.0850173e-40
1.0849853e-40
1.084971e-40
1.0849653e-40
1.0849633e-40
1.0849629e-40
1.0849634e-40
1.084965e-40
1.0849687e-40
1.0850792e-40
1.0850153e-40
1.0849834e-40
1.084969e-40
1.0849633e-40
1.0849614e-40
1.084961e-40
1.0849615e-40
1.0849631e-40
1.0849668e-40
1.0850787e-40
1.0850149e-40
1.084983e-40
1.0849686e-40
1.0849629e-40
1.084961e-40
1.0849607e-40
1.0849612e-40
1.0849627e-40
1.0849665e-40
1.0850789e-40
1.0850152e-40
1.0849834e-40
1.0849691e-40
1.0849634e-40
1.0849615e-40
1.0849612e-40
1.0849617e-40
1.0849632e-40
1.084967e-40
1.0850798e-40
1.0850165e-40
1.0849848e-40
1.0849706e-40
1.084965e-40
1.0849631e-40
1.0849627e-40
1.0849632e-40
1.0849648e-40
1.0849686e-40
1.0850821e-40
1.0850197e-40
1.0849884e-40
1.0849743e-40
1.0849687e-40
1.0849668e-40
1.0849665e-40
1.084967e-40
1.0849686e-40
1.0849723e-40
4.898303e-40
4.898025e-40
4.8978855e-40
4.8978227e-40
4.8977976e-40
4.897789e-40
4.897787e-40
4.897788e-40
4.897792e-40
4.8978015e-40
4.898025e-40
4.8977471e-40
4.8976076e-40
4.8975448e-40
4.8975198e-40
4.8975112e-40
4.8975093e-40
4.8975108e-40
4.8975162e-40
4.8975304e-40
4.8978855e-40
4.8976076e-40
4.8974682e-40
4.8974054e-40
4.8973804e-40
4.8973719e-40
4.8973701e-40
4.897372e-40
4.8973783e-40
4.8973939e-40
4.8978227e-40
4.8975448e-40
4.8974054e-40
4.8973425e-40
4.8973176e-40
4.8973091e-40
4.8973075e-40
4.8973096e-40
4.8973163e-40
4.8973323e-40
4.8977976e-40
4.8975198e-40
4.8973804e-40
4.8973176e-40
4.8972926e-40
4.8972842e-40
4.8972826e-40
4.8972848e-40
4.8972917e-40
4.8973079e-40
4.897789e-40
4.8975112e-40
4.8973719e-40
4.8973091e-40
4.8972842e-40
4.8972758e-40
4.8972742e-40
4.8972764e-40
4.8972833e-40
4.8972996e-40
4.897787e-40
4.8975093e-40
4.8973701e-40
4.8973075e-40
4.8972826e-40
4.8972742e-40
4.8972726e-40
4.8972748e-40
4.8972818e-40
4.8972981e-40
4.897788e-40
4.8975108e-40
4.897372e-40
4.8973096e-40
4.8972848e-40
4.8972764e-40
4.8972748e-40
4.8972771e-40
4.897284e-40
4.8973003e-40
4.897792e-40
4.8975162e-40
4.8973783e-40
4.8973163e-40
4.8972917e-40
4.8972833e-40
4.8972818e-40
4.897284e-40
4.897291e-40
4.8973073e-40
4.8978015e-40
4.8975304e-40
4.8973939e-40
4.8973323e-40
4.8973079e-40
4.8972996e-40
4.8972981e-40
4.8973003e-40
4.8973073e-40
4.8973236e-40
2.2535831e-39
2.2534599e-39
2.2533979e-39
2.2533699e-39
2.2533588e-39
2.253355e-39
2.253354e-39
2.2533545e-39
2.2533563e-39
2.2533604e-39
2.2534599e-39
2.2533367e-39
2.2532747e-39
2.2532468e-39
2.2532356e-39
2.2532318e-39
2.253231e-39
2.2532316e-39
2.2532341e-39
2.2532403e-39
2.2533979e-39
2.2532747e-39
2.2532127e-39
2.2531848e-39
2.2531737e-39
2.2531699e-39
2.2531691e-39
2.25317e-39
2.2531728e-39
2.2531797e-39
2.2533699e-39
2.2532468e-39
2.2531848e-39
2.2531568e-39
2.2531457e-39
2.253142e-39
2.2531412e-39
2.2531422e-39
2.2531452e-39
2.2531523e-39
2.2533588e-39
2.2532356e-39
2.2531737e-39
2.2531457e-39
2.2531346e-39
2.2531309e-39
2.2531301e-39
2.2531311e-39
2.2531342e-39
2.2531414e-39
2.253355e-39
2.2532318e-39
2.2531699e-39
2.253142e-39
2.2531309e-39
2.2531271e-39
2.2531264e-39
2.2531274e-39
2.2531305e-39
2.2531377e-39
2.253354e-39
2.253231e-39
2.2531691e-39
2.2531412e-39
2.2531301e-39
2.2531264e-39
2.2531257e-39
2.2531267e-39
2.2531298e-39
2.253137e-39
2.2533545e-39
2.2532316e-39
2.25317e-39
2.2531422e-39
2.2531311e-39
2.2531274e-39
2.2531267e-39
2.2531277e-39
2.2531309e-39
2.2531381e-39
2.2533563e-39
2.2532341e-39
2.2531728e-39
2.2531452e-39
2.2531342e-39
2.2531305e-39
2.2531298e-39
2.2531309e-39
2.253134e-39
2.2531412e-39
2.2533604e-39
2.2532403e-39
2.2531797e-39
2.2531523e-39
2.2531414e-39
2.2531377e-39
2.253137e-39
2.2531381e-39
2.2531412e-39
2.2531484e-39
1.0566907e-38
1.056635e-38
1.056607e-38
1.0565943e-38
1.0565893e-38
1.0565875e-38
1.0565871e-38
1.0565873e-38
1.0565881e-38
1.05659e-38
1.056635e-38
1.0565794e-38
1.0565514e-38
1.0565387e-38
1.0565337e-38
1.0565319e-38
1.0565315e-38
1.0565319e-38
1.056533e-38
1.0565358e-38
1.056607e-38
1.0565514e-38
1.0565233e-38
1.0565107e-38
1.0565056e-38
1.0565039e-38
1.0565035e-38
1.0565039e-38
1.0565052e-38
1.0565083e-38
1.0565943e-38
1.0565387e-38
1.0565107e-38
1.056498e-38
1.0564929e-38
1.0564912e-38
1.0564909e-38
1.0564913e-38
1.0564927e-38
1.0564959e-38
1.0565893e-38
1.0565337e-38
1.0565056e-38
1.0564929e-38
1.0564879e-38
1.0564862e-38
1.0564859e-38
1.0564863e-38
1.0564878e-38
1.056491e-38
1.0565875e-38
1.0565319e-38
1.0565039e-38
1.0564912e-38
1.0564862e-38
1.0564845e-38
1.0564842e-38
1.0564847e-38
1.0564861e-38
1.0564893e-38
1.0565871e-38
1.0565315e-38
1.0565035e-38
1.0564909e-38
1.0564859e-38
1.0564842e-38
1.0564839e-38
1.0564843e-38
1.0564858e-38
1.056489e-38
1.0565873e-38
1.0565319e-38
1.0565039e-38
1.0564913e-38
1.0564863e-38
1.0564847e-38
1.0564843e-38
1.0564848e-38
1.0564862e-38
1.0564895e-38
1.0565881e-38
1.056533e-38
1.0565052e-38
1.0564927e-38
1.0564878e-38
1.0564861e-38
1.0564858e-38
1.0564862e-38
1.0564877e-38
1.0564909e-38
1.05659e-38
1.0565358e-38
1.0565083e-38
1.0564959e-38
1.056491e-38
1.0564893e-38
1.056489e-38
1.0564895e-38
1.0564909e-38
1.0564942e-38
5.0491303e-38
5.0488745e-38
5.0487452e-38
5.0486867e-38
5.0486634e-38
5.0486554e-38
5.0486535e-38
5.0486544e-38
5.0486581e-38
5.0486666e-38
5.0488745e-38
5.0486188e-38
5.0484895e-38
5.0484311e-38
5.0484078e-38
5.0483998e-38
5.048398e-38
5.0483995e-38
5.0484046e-38
5.0484175e-38
5.0487452e-38
5.0484895e-38
5.0483603e-38
5.0483018e-38
5.0482785e-38
5.0482706e-38
5.048269e-38
5.0482709e-38
5.0482769e-38
5.0482912e-38
5.0486867e-38
5.0484311e-38
5.0483018e-38
5.0482433e-38
5.0482201e-38
5.0482122e-38
5.0482107e-38
5.0482128e-38
5.0482192e-38
5.048234e-38
5.0486634e-38
5.0484078e-38
5.0482785e-38
5.0482201e-38
5.0481969e-38
5.048189e-38
5.0481875e-38
5.0481897e-38
5.0481962e-38
5.0482112e-38
5.0486554e-38
5.0483998e-38
5.0482706e-38
5.0482122e-38
5.048189e-38
5.0481812e-38
5.0481797e-38
5.0481819e-38
5.0481885e-38
5.0482035e-38
5.0486535e-38
5.048398e-38
5.048269e-38
5.0482107e-38
5.0481875e-38
5.0481797e-38
5.0481783e-38
5.0481805e-38
5.0481871e-38
5.0482021e-38
5.0486544e-38
5.0483995e-38
5.0482709e-38
5.0482128e-38
5.0481897e-38
5.0481819e-38
5.0481805e-38
5.0481827e-38
5.0481893e-38
5.0482043e-38
5.0486581e-38
5.0484046e-38
5.0482769e-38
5.0482192e-38
5.0481962e-38
5.0481885e-38
5.0481871e-38
5.0481893e-38
5.0481959e-38
5.0482109e-38
5.0486666e-38
5.0484175e-38
5.0482912e-38
5.048234e-38
5.0482112e-38
5.0482035e-38
5.0482021e-38
5.0482043e-38