/*--------------------------------*- C++ -*----------------------------------*\
| =========                 |                                                 |
| \\      /  F ield         | OpenFOAM: The Open Source CFD Toolbox           |
|  \\    /   O peration     | Version:  dev                                   |
|   \\  /    A nd           | Web:      www.OpenFOAM.org                      |
|    \\/     M anipulation  |                                                 |
\*---------------------------------------------------------------------------*/
FoamFile
{
    version     2.0;
    format      ascii;
    class       volScalarField;
    location    "75.995";
    object      A;
}
// * * * * * * * * * * * * * * * * * * * * * * * * * * * * * * * * * * * * * //

dimensions      [0 0 0 0 1 0 0];

internalField   nonuniform List<scalar> 
10000
(
3.109493e-25
3.1057796e-25
3.1038157e-25
3.1027577e-25
3.1022224e-25
3.1019906e-25
3.1019497e-25
3.1020724e-25
3.1024183e-25
3.1031251e-25
3.1057796e-25
3.1020815e-25
3.100123e-25
3.0990675e-25
3.0985338e-25
3.0983038e-25
3.0982665e-25
3.0983977e-25
3.0987661e-25
3.0995376e-25
3.1038157e-25
3.100123e-25
3.0981676e-25
3.0971141e-25
3.096582e-25
3.0963542e-25
3.0963212e-25
3.0964608e-25
3.0968445e-25
3.0976381e-25
3.1027577e-25
3.0990675e-25
3.0971141e-25
3.0960621e-25
3.0955314e-25
3.0953056e-25
3.0952759e-25
3.0954211e-25
3.0958131e-25
3.096615e-25
3.1022224e-25
3.0985338e-25
3.096582e-25
3.0955314e-25
3.095002e-25
3.0947777e-25
3.0947502e-25
3.0948986e-25
3.0952947e-25
3.0961e-25
3.1019906e-25
3.0983038e-25
3.0963542e-25
3.0953056e-25
3.0947777e-25
3.0945547e-25
3.0945286e-25
3.0946788e-25
3.0950768e-25
3.0958834e-25
3.1019497e-25
3.0982665e-25
3.0963212e-25
3.0952759e-25
3.0947502e-25
3.0945286e-25
3.0945035e-25
3.0946547e-25
3.0950536e-25
3.0958609e-25
3.1020724e-25
3.0983977e-25
3.0964608e-25
3.0954211e-25
3.0948986e-25
3.0946788e-25
3.0946547e-25
3.0948066e-25
3.0952061e-25
3.0960138e-25
3.1024183e-25
3.0987661e-25
3.0968445e-25
3.0958131e-25
3.0952947e-25
3.0950768e-25
3.0950536e-25
3.0952061e-25
3.0956062e-25
3.0964148e-25
3.1031251e-25
3.0995376e-25
3.0976381e-25
3.096615e-25
3.0961e-25
3.0958834e-25
3.0958609e-25
3.0960138e-25
3.0964148e-25
3.0972256e-25
1.0445195e-24
1.0433196e-24
1.0426672e-24
1.0423149e-24
1.0421366e-24
1.0420593e-24
1.0420456e-24
1.0420863e-24
1.0422013e-24
1.0424449e-24
1.0433196e-24
1.0421245e-24
1.0414738e-24
1.0411224e-24
1.0409445e-24
1.0408679e-24
1.0408554e-24
1.0408989e-24
1.0410215e-24
1.0412869e-24
1.0426672e-24
1.0414738e-24
1.0408242e-24
1.0404734e-24
1.0402961e-24
1.0402202e-24
1.0402091e-24
1.0402555e-24
1.0403832e-24
1.040656e-24
1.0423149e-24
1.0411224e-24
1.0404734e-24
1.0401231e-24
1.0399463e-24
1.039871e-24
1.0398611e-24
1.0399093e-24
1.0400398e-24
1.0403154e-24
1.0421366e-24
1.0409445e-24
1.0402961e-24
1.0399463e-24
1.0397699e-24
1.0396951e-24
1.0396859e-24
1.0397352e-24
1.039867e-24
1.0401438e-24
1.0420593e-24
1.0408679e-24
1.0402202e-24
1.039871e-24
1.0396951e-24
1.0396208e-24
1.039612e-24
1.0396619e-24
1.0397944e-24
1.0400716e-24
1.0420456e-24
1.0408554e-24
1.0402091e-24
1.0398611e-24
1.0396859e-24
1.039612e-24
1.0396036e-24
1.0396539e-24
1.0397866e-24
1.040064e-24
1.0420863e-24
1.0408989e-24
1.0402555e-24
1.0399093e-24
1.0397352e-24
1.0396619e-24
1.0396539e-24
1.0397043e-24
1.0398373e-24
1.0401149e-24
1.0422013e-24
1.0410215e-24
1.0403832e-24
1.0400398e-24
1.039867e-24
1.0397944e-24
1.0397866e-24
1.0398373e-24
1.0399705e-24
1.0402483e-24
1.0424449e-24
1.0412869e-24
1.040656e-24
1.0403154e-24
1.0401438e-24
1.0400716e-24
1.040064e-24
1.0401149e-24
1.0402483e-24
1.040527e-24
2.1624349e-24
2.1600321e-24
2.1587072e-24
2.1579897e-24
2.157626e-24
2.1574682e-24
2.15744e-24
2.1575222e-24
2.1577553e-24
2.1582645e-24
2.1600321e-24
2.1576388e-24
2.1563174e-24
2.1556016e-24
2.1552388e-24
2.1550823e-24
2.1550565e-24
2.1551447e-24
2.1553933e-24
2.1559476e-24
2.1587072e-24
2.1563174e-24
2.1549981e-24
2.1542836e-24
2.1539219e-24
2.1537669e-24
2.1537441e-24
2.153838e-24
2.1540973e-24
2.1546668e-24
2.1579897e-24
2.1556016e-24
2.1542836e-24
2.1535701e-24
2.1532094e-24
2.1530557e-24
2.1530352e-24
2.153133e-24
2.1533979e-24
2.1539733e-24
2.157626e-24
2.1552388e-24
2.1539219e-24
2.1532094e-24
2.1528497e-24
2.152697e-24
2.152678e-24
2.152778e-24
2.1530458e-24
2.1536234e-24
2.1574682e-24
2.1550823e-24
2.1537669e-24
2.1530557e-24
2.152697e-24
2.1525453e-24
2.1525272e-24
2.1526285e-24
2.1528975e-24
2.1534761e-24
2.15744e-24
2.1550565e-24
2.1537441e-24
2.1530352e-24
2.152678e-24
2.1525272e-24
2.1525099e-24
2.1526118e-24
2.1528815e-24
2.1534605e-24
2.1575222e-24
2.1551447e-24
2.153838e-24
2.153133e-24
2.152778e-24
2.1526285e-24
2.1526118e-24
2.1527142e-24
2.1529843e-24
2.1535636e-24
2.1577553e-24
2.1553933e-24
2.1540973e-24
2.1533979e-24
2.1530458e-24
2.1528975e-24
2.1528815e-24
2.1529843e-24
2.1532548e-24
2.1538347e-24
2.1582645e-24
2.1559476e-24
2.1546668e-24
2.1539733e-24
2.1536234e-24
2.1534761e-24
2.1534605e-24
2.1535636e-24
2.1538347e-24
2.1544163e-24
4.0972748e-24
4.0928697e-24
4.0904197e-24
4.0890891e-24
4.0884134e-24
4.0881198e-24
4.0880667e-24
4.0882177e-24
4.0886458e-24
4.0895898e-24
4.0928697e-24
4.0884819e-24
4.0860383e-24
4.0847106e-24
4.0840368e-24
4.0837456e-24
4.0836971e-24
4.0838592e-24
4.0843166e-24
4.0853458e-24
4.0904197e-24
4.0860383e-24
4.0835986e-24
4.0822734e-24
4.0816016e-24
4.0813133e-24
4.0812703e-24
4.0814433e-24
4.0819207e-24
4.0829787e-24
4.0890891e-24
4.0847106e-24
4.0822734e-24
4.08095e-24
4.08028e-24
4.0799942e-24
4.0799556e-24
4.0801358e-24
4.0806239e-24
4.0816928e-24
4.0884134e-24
4.0840368e-24
4.0816016e-24
4.08028e-24
4.0796117e-24
4.0793279e-24
4.079292e-24
4.0794765e-24
4.0799699e-24
4.0810431e-24
4.0881198e-24
4.0837456e-24
4.0813133e-24
4.0799942e-24
4.0793279e-24
4.0790457e-24
4.0790117e-24
4.0791984e-24
4.0796943e-24
4.0807692e-24
4.0880667e-24
4.0836971e-24
4.0812703e-24
4.0799556e-24
4.079292e-24
4.0790117e-24
4.0789791e-24
4.0791671e-24
4.0796642e-24
4.0807399e-24
4.0882177e-24
4.0838592e-24
4.0814433e-24
4.0801358e-24
4.0794765e-24
4.0791984e-24
4.0791671e-24
4.0793559e-24
4.0798538e-24
4.0809301e-24
4.0886458e-24
4.0843166e-24
4.0819207e-24
4.0806239e-24
4.0799699e-24
4.0796943e-24
4.0796642e-24
4.0798538e-24
4.0803524e-24
4.0814298e-24
4.0895898e-24
4.0853458e-24
4.0829787e-24
4.0816928e-24
4.0810431e-24
4.0807692e-24
4.0807399e-24
4.0809301e-24
4.0814298e-24
4.0825104e-24
7.6324237e-24
7.6244864e-24
7.6200452e-24
7.617626e-24
7.6163953e-24
7.6158598e-24
7.6157617e-24
7.6160329e-24
7.6168012e-24
7.6184932e-24
7.6244864e-24
7.6165799e-24
7.6121501e-24
7.6097361e-24
7.6085088e-24
7.6079776e-24
7.6078882e-24
7.60818e-24
7.6090025e-24
7.6108524e-24
7.6200452e-24
7.6121501e-24
7.6077274e-24
7.6053178e-24
7.6040943e-24
7.6035684e-24
7.6034891e-24
7.6038009e-24
7.6046605e-24
7.6065638e-24
7.617626e-24
7.6097361e-24
7.6053178e-24
7.6029116e-24
7.6016914e-24
7.6011702e-24
7.6010988e-24
7.6014241e-24
7.6023035e-24
7.6042269e-24
7.6163953e-24
7.6085088e-24
7.6040943e-24
7.6016914e-24
7.6004743e-24
7.5999566e-24
7.5998905e-24
7.6002236e-24
7.6011127e-24
7.6030441e-24
7.6158598e-24
7.6079776e-24
7.6035684e-24
7.6011702e-24
7.5999566e-24
7.5994421e-24
7.5993793e-24
7.5997166e-24
7.6006103e-24
7.602545e-24
7.6157617e-24
7.6078882e-24
7.6034891e-24
7.6010988e-24
7.5998905e-24
7.5993793e-24
7.5993191e-24
7.5996587e-24
7.6005546e-24
7.6024909e-24
7.6160329e-24
7.60818e-24
7.6038009e-24
7.6014241e-24
7.6002236e-24
7.5997166e-24
7.5996587e-24
7.6e-24
7.6008973e-24
7.6028346e-24
7.6168012e-24
7.6090025e-24
7.6046605e-24
7.6023035e-24
7.6011127e-24
7.6006103e-24
7.6005546e-24
7.6008973e-24
7.6017959e-24
7.603735e-24
7.6184932e-24
7.6108524e-24
7.6065638e-24
7.6042269e-24
7.6030441e-24
7.602545e-24
7.6024909e-24
7.6028346e-24
7.603735e-24
7.60568e-24
1.4252846e-23
1.4238514e-23
1.4230456e-23
1.4226053e-23
1.422381e-23
1.4222832e-23
1.4222651e-23
1.4223138e-23
1.4224516e-23
1.4227532e-23
1.4238514e-23
1.4224238e-23
1.42162e-23
1.4211807e-23
1.4209569e-23
1.42086e-23
1.4208434e-23
1.420896e-23
1.4210438e-23
1.4213748e-23
1.4230456e-23
1.42162e-23
1.4208174e-23
1.4203789e-23
1.4201559e-23
1.4200599e-23
1.4200452e-23
1.4201015e-23
1.4202562e-23
1.4205971e-23
1.4226053e-23
1.4211807e-23
1.4203789e-23
1.4199411e-23
1.4197186e-23
1.4196235e-23
1.4196103e-23
1.419669e-23
1.4198274e-23
1.420172e-23
1.422381e-23
1.4209569e-23
1.4201559e-23
1.4197186e-23
1.4194968e-23
1.4194023e-23
1.41939e-23
1.4194502e-23
1.4196104e-23
1.4199565e-23
1.4222832e-23
1.42086e-23
1.4200599e-23
1.4196235e-23
1.4194023e-23
1.4193084e-23
1.4192968e-23
1.4193577e-23
1.4195187e-23
1.4198655e-23
1.4222651e-23
1.4208434e-23
1.4200452e-23
1.4196103e-23
1.41939e-23
1.4192968e-23
1.4192856e-23
1.419347e-23
1.4195084e-23
1.4198554e-23
1.4223138e-23
1.420896e-23
1.4201015e-23
1.419669e-23
1.4194502e-23
1.4193577e-23
1.419347e-23
1.4194087e-23
1.4195704e-23
1.4199176e-23
1.4224516e-23
1.4210438e-23
1.4202562e-23
1.4198274e-23
1.4196104e-23
1.4195187e-23
1.4195084e-23
1.4195704e-23
1.4197323e-23
1.4200798e-23
1.4227532e-23
1.4213748e-23
1.4205971e-23
1.420172e-23
1.4199565e-23
1.4198655e-23
1.4198554e-23
1.4199176e-23
1.4200798e-23
1.4204284e-23
2.6835676e-23
2.6809597e-23
2.6794867e-23
2.6786797e-23
2.6782677e-23
2.6780879e-23
2.6780542e-23
2.6781423e-23
2.6783909e-23
2.6789314e-23
2.6809597e-23
2.6783617e-23
2.6768923e-23
2.6760871e-23
2.6756762e-23
2.6754979e-23
2.6754671e-23
2.6755624e-23
2.6758299e-23
2.6764252e-23
2.6794867e-23
2.6768923e-23
2.6754253e-23
2.6746215e-23
2.6742119e-23
2.6740354e-23
2.6740081e-23
2.6741103e-23
2.6743906e-23
2.6750045e-23
2.6786797e-23
2.6760871e-23
2.6746215e-23
2.6738189e-23
2.6734104e-23
2.6732355e-23
2.6732109e-23
2.6733178e-23
2.6736049e-23
2.6742258e-23
2.6782677e-23
2.6756762e-23
2.6742119e-23
2.6734104e-23
2.673003e-23
2.6728293e-23
2.6728065e-23
2.6729161e-23
2.6732066e-23
2.6738302e-23
2.6780879e-23
2.6754979e-23
2.6740354e-23
2.6732355e-23
2.6728293e-23
2.6726567e-23
2.6726351e-23
2.672746e-23
2.6730381e-23
2.6736629e-23
2.6780542e-23
2.6754671e-23
2.6740081e-23
2.6732109e-23
2.6728065e-23
2.6726351e-23
2.6726143e-23
2.6727261e-23
2.673019e-23
2.6736442e-23
2.6781423e-23
2.6755624e-23
2.6741103e-23
2.6733178e-23
2.6729161e-23
2.672746e-23
2.6727261e-23
2.6728385e-23
2.6731318e-23
2.6737574e-23
2.6783909e-23
2.6758299e-23
2.6743906e-23
2.6736049e-23
2.6732066e-23
2.6730381e-23
2.673019e-23
2.6731318e-23
2.6734255e-23
2.6740517e-23
2.6789314e-23
2.6764252e-23
2.6750045e-23
2.6742258e-23
2.6738302e-23
2.6736629e-23
2.6736442e-23
2.6737574e-23
2.6740517e-23
2.6746798e-23
5.1033002e-23
5.098509e-23
5.0957912e-23
5.0942983e-23
5.0935346e-23
5.0932009e-23
5.0931375e-23
5.0932985e-23
5.0937514e-23
5.0947279e-23
5.098509e-23
5.093736e-23
5.0910248e-23
5.0895349e-23
5.0887734e-23
5.0884424e-23
5.0883846e-23
5.0885591e-23
5.0890475e-23
5.0901277e-23
5.0957912e-23
5.0910248e-23
5.0883179e-23
5.0868307e-23
5.0860716e-23
5.0857439e-23
5.0856927e-23
5.0858802e-23
5.0863928e-23
5.087508e-23
5.0942983e-23
5.0895349e-23
5.0868307e-23
5.0853457e-23
5.0845886e-23
5.084264e-23
5.0842179e-23
5.0844141e-23
5.0849396e-23
5.086068e-23
5.0935346e-23
5.0887734e-23
5.0860716e-23
5.0845886e-23
5.0838335e-23
5.0835112e-23
5.0834685e-23
5.0836698e-23
5.0842016e-23
5.0853352e-23
5.0932009e-23
5.0884424e-23
5.0857439e-23
5.084264e-23
5.0835112e-23
5.0831909e-23
5.0831504e-23
5.0833544e-23
5.0838891e-23
5.0850249e-23
5.0931375e-23
5.0883846e-23
5.0856927e-23
5.0842179e-23
5.0834685e-23
5.0831504e-23
5.0831115e-23
5.083317e-23
5.0838532e-23
5.08499e-23
5.0932985e-23
5.0885591e-23
5.0858802e-23
5.0844141e-23
5.0836698e-23
5.0833544e-23
5.083317e-23
5.0835236e-23
5.0840607e-23
5.0851981e-23
5.0937514e-23
5.0890475e-23
5.0863928e-23
5.0849396e-23
5.0842016e-23
5.0838891e-23
5.0838532e-23
5.0840607e-23
5.0845986e-23
5.0857371e-23
5.0947279e-23
5.0901277e-23
5.087508e-23
5.086068e-23
5.0853352e-23
5.0850249e-23
5.08499e-23
5.0851981e-23
5.0857371e-23
5.0868788e-23
9.8074361e-23
9.7985447e-23
9.7934797e-23
9.7906899e-23
9.7892604e-23
9.7886347e-23
9.7885146e-23
9.7888117e-23
9.789645e-23
9.7914267e-23
9.7985447e-23
9.7896865e-23
9.7846339e-23
9.7818497e-23
9.7804242e-23
9.7798037e-23
9.7796942e-23
9.7800169e-23
9.7809178e-23
9.7828975e-23
9.7934797e-23
9.7846339e-23
9.7795891e-23
9.7768099e-23
9.7753888e-23
9.7747747e-23
9.7746777e-23
9.7750252e-23
9.7759722e-23
9.7780186e-23
9.7906899e-23
9.7818497e-23
9.7768099e-23
9.7740347e-23
9.7726176e-23
9.7720092e-23
9.7719219e-23
9.7722861e-23
9.7732576e-23
9.7753291e-23
9.7892604e-23
9.7804242e-23
9.7753888e-23
9.7726176e-23
9.7712042e-23
9.7706002e-23
9.7705193e-23
9.7708931e-23
9.7718767e-23
9.7739581e-23
9.7886347e-23
9.7798037e-23
9.7747747e-23
9.7720092e-23
9.7706002e-23
9.77e-23
9.7699233e-23
9.7703022e-23
9.7712914e-23
9.773377e-23
9.7885146e-23
9.7796942e-23
9.7746777e-23
9.7719219e-23
9.7705193e-23
9.7699233e-23
9.7698497e-23
9.7702315e-23
9.7712235e-23
9.7733109e-23
9.7888117e-23
9.7800169e-23
9.7750252e-23
9.7722861e-23
9.7708931e-23
9.7703022e-23
9.7702315e-23
9.7706153e-23
9.771609e-23
9.7736976e-23
9.789645e-23
9.7809178e-23
9.7759722e-23
9.7732576e-23
9.7718767e-23
9.7712914e-23
9.7712235e-23
9.771609e-23
9.7726041e-23
9.7746947e-23
9.7914267e-23
9.7828975e-23
9.7780186e-23
9.7753291e-23
9.7739581e-23
9.773377e-23
9.7733109e-23
9.7736976e-23
9.7746947e-23
9.7767912e-23
1.9050722e-22
1.9034051e-22
1.9024515e-22
1.9019249e-22
1.9016546e-22
1.9015361e-22
1.9015131e-22
1.9015685e-22
1.9017234e-22
1.9020518e-22
1.9034051e-22
1.9017442e-22
1.9007929e-22
1.9002673e-22
1.8999977e-22
1.8998802e-22
1.8998593e-22
1.8999196e-22
1.9000875e-22
1.9004541e-22
1.9024515e-22
1.9007929e-22
1.8998431e-22
1.8993184e-22
1.8990497e-22
1.8989334e-22
1.8989148e-22
1.8989799e-22
1.8991567e-22
1.8995362e-22
1.9019249e-22
1.9002673e-22
1.8993184e-22
1.8987945e-22
1.8985265e-22
1.8984113e-22
1.8983946e-22
1.8984629e-22
1.8986445e-22
1.8990288e-22
1.9016546e-22
1.8999977e-22
1.8990497e-22
1.8985265e-22
1.8982592e-22
1.8981449e-22
1.8981295e-22
1.8981996e-22
1.8983834e-22
1.8987696e-22
1.9015361e-22
1.8998802e-22
1.8989334e-22
1.8984113e-22
1.8981449e-22
1.8980313e-22
1.8980166e-22
1.8980878e-22
1.8982727e-22
1.8986597e-22
1.9015131e-22
1.8998593e-22
1.8989148e-22
1.8983946e-22
1.8981295e-22
1.8980166e-22
1.8980026e-22
1.8980743e-22
1.8982597e-22
1.8986471e-22
1.9015685e-22
1.8999196e-22
1.8989799e-22
1.8984629e-22
1.8981996e-22
1.8980878e-22
1.8980743e-22
1.8981464e-22
1.8983321e-22
1.8987197e-22
1.9017234e-22
1.9000875e-22
1.8991567e-22
1.8986445e-22
1.8983834e-22
1.8982727e-22
1.8982597e-22
1.8983321e-22
1.8985182e-22
1.8989061e-22
1.9020518e-22
1.9004541e-22
1.8995362e-22
1.8990288e-22
1.8987696e-22
1.8986597e-22
1.8986471e-22
1.8987197e-22
1.8989061e-22
1.8992951e-22
3.7407572e-22
3.7375989e-22
3.7357849e-22
3.7347805e-22
3.7342641e-22
3.7340374e-22
3.733993e-22
3.7340974e-22
3.7343884e-22
3.7350002e-22
3.7375989e-22
3.7344522e-22
3.7326426e-22
3.7316401e-22
3.7311251e-22
3.7309003e-22
3.7308599e-22
3.7309739e-22
3.7312903e-22
3.7319764e-22
3.7357849e-22
3.7326426e-22
3.7308357e-22
3.729835e-22
3.7293216e-22
3.7290992e-22
3.7290634e-22
3.7291867e-22
3.7295203e-22
3.7302314e-22
3.7347805e-22
3.7316401e-22
3.729835e-22
3.7288358e-22
3.7283238e-22
3.7281035e-22
3.7280713e-22
3.7282008e-22
3.7285436e-22
3.7292642e-22
3.7342641e-22
3.7311251e-22
3.7293216e-22
3.7283238e-22
3.7278132e-22
3.7275946e-22
3.7275648e-22
3.7276979e-22
3.7280452e-22
3.7287694e-22
3.7340374e-22
3.7309003e-22
3.7290992e-22
3.7281035e-22
3.7275946e-22
3.7273773e-22
3.7273491e-22
3.7274841e-22
3.7278335e-22
3.7285593e-22
3.733993e-22
3.7308599e-22
3.7290634e-22
3.7280713e-22
3.7275648e-22
3.7273491e-22
3.7273221e-22
3.7274581e-22
3.7278085e-22
3.728535e-22
3.7340974e-22
3.7309739e-22
3.7291867e-22
3.7282008e-22
3.7276979e-22
3.7274841e-22
3.7274581e-22
3.7275949e-22
3.7279459e-22
3.7286728e-22
3.7343884e-22
3.7312903e-22
3.7295203e-22
3.7285436e-22
3.7280452e-22
3.7278335e-22
3.7278085e-22
3.7279459e-22
3.7282975e-22
3.7290251e-22
3.7350002e-22
3.7319764e-22
3.7302314e-22
3.7292642e-22
3.7287694e-22
3.7285593e-22
3.728535e-22
3.7286728e-22
3.7290251e-22
3.7297547e-22
7.4254958e-22
7.41945e-22
7.4159636e-22
7.414028e-22
7.4130312e-22
7.412593e-22
7.4125064e-22
7.4127053e-22
7.413258e-22
7.4144096e-22
7.41945e-22
7.4134263e-22
7.409948e-22
7.4080162e-22
7.4070221e-22
7.4065876e-22
7.4065088e-22
7.4067265e-22
7.4073291e-22
7.4086269e-22
7.4159636e-22
7.409948e-22
7.406475e-22
7.4045466e-22
7.4035556e-22
7.4031258e-22
7.4030561e-22
7.403292e-22
7.4039284e-22
7.4052755e-22
7.414028e-22
7.4080162e-22
7.4045466e-22
7.4026209e-22
7.4016328e-22
7.4012071e-22
7.4011445e-22
7.4013927e-22
7.4020471e-22
7.4034126e-22
7.4130312e-22
7.4070221e-22
7.4035556e-22
7.4016328e-22
7.4006473e-22
7.4002249e-22
7.400167e-22
7.4004221e-22
7.4010853e-22
7.4024582e-22
7.412593e-22
7.4065876e-22
7.4031258e-22
7.4012071e-22
7.4002249e-22
7.3998052e-22
7.3997503e-22
7.4000092e-22
7.4006766e-22
7.4020525e-22
7.4125064e-22
7.4065088e-22
7.4030561e-22
7.4011445e-22
7.400167e-22
7.3997503e-22
7.3996978e-22
7.3999587e-22
7.4006281e-22
7.4020054e-22
7.4127053e-22
7.4067265e-22
7.403292e-22
7.4013927e-22
7.4004221e-22
7.4000092e-22
7.3999587e-22
7.4002212e-22
7.4008917e-22
7.4022698e-22
7.413258e-22
7.4073291e-22
7.4039284e-22
7.4020471e-22
7.4010853e-22
7.4006766e-22
7.4006281e-22
7.4008917e-22
7.4015633e-22
7.4029427e-22
7.4144096e-22
7.4086269e-22
7.4052755e-22
7.4034126e-22
7.4024582e-22
7.4020525e-22
7.4020054e-22
7.4022698e-22
7.4029427e-22
7.4043258e-22
1.4901451e-21
1.4889756e-21
1.4882985e-21
1.4879216e-21
1.4877272e-21
1.4876417e-21
1.4876246e-21
1.4876629e-21
1.487769e-21
1.4879881e-21
1.4889756e-21
1.4878104e-21
1.4871348e-21
1.4867587e-21
1.4865648e-21
1.48648e-21
1.4864645e-21
1.4865065e-21
1.4866225e-21
1.4868707e-21
1.4882985e-21
1.4871348e-21
1.4864603e-21
1.4860849e-21
1.4858916e-21
1.4858077e-21
1.485794e-21
1.4858396e-21
1.4859623e-21
1.4862203e-21
1.4879216e-21
1.4867587e-21
1.4860849e-21
1.4857099e-21
1.4855172e-21
1.4854341e-21
1.4854218e-21
1.4854699e-21
1.4855962e-21
1.4858578e-21
1.4877272e-21
1.4865648e-21
1.4858916e-21
1.4855172e-21
1.485325e-21
1.4852426e-21
1.4852312e-21
1.4852807e-21
1.4854087e-21
1.4856718e-21
1.4876417e-21
1.48648e-21
1.4858077e-21
1.4854341e-21
1.4852426e-21
1.4851607e-21
1.4851499e-21
1.4852001e-21
1.4853289e-21
1.4855926e-21
1.4876246e-21
1.4864645e-21
1.485794e-21
1.4854218e-21
1.4852312e-21
1.4851499e-21
1.4851396e-21
1.4851902e-21
1.4853194e-21
1.4855834e-21
1.4876629e-21
1.4865065e-21
1.4858396e-21
1.4854699e-21
1.4852807e-21
1.4852001e-21
1.4851902e-21
1.4852411e-21
1.4853706e-21
1.4856347e-21
1.487769e-21
1.4866225e-21
1.4859623e-21
1.4855962e-21
1.4854087e-21
1.4853289e-21
1.4853194e-21
1.4853706e-21
1.4855002e-21
1.4857646e-21
1.4879881e-21
1.4868707e-21
1.4862203e-21
1.4858578e-21
1.4856718e-21
1.4855926e-21
1.4855834e-21
1.4856347e-21
1.4857646e-21
1.4860297e-21
3.023317e-21
3.0210311e-21
3.0197024e-21
3.018961e-21
3.0185779e-21
3.0184091e-21
3.0183752e-21
3.0184498e-21
3.0186555e-21
3.0190768e-21
3.0210311e-21
3.0187534e-21
3.0174277e-21
3.0166877e-21
3.0163057e-21
3.0161383e-21
3.0161075e-21
3.0161896e-21
3.0164152e-21
3.0168949e-21
3.0197024e-21
3.0174277e-21
3.016104e-21
3.0153653e-21
3.0149845e-21
3.014819e-21
3.0147918e-21
3.0148811e-21
3.0151202e-21
3.0156195e-21
3.018961e-21
3.0166877e-21
3.0153653e-21
3.0146277e-21
3.0142479e-21
3.0140841e-21
3.0140597e-21
3.0141538e-21
3.0144001e-21
3.0149068e-21
3.0185779e-21
3.0163057e-21
3.0149845e-21
3.0142479e-21
3.0138693e-21
3.0137067e-21
3.0136842e-21
3.0137811e-21
3.0140309e-21
3.0145405e-21
3.0184091e-21
3.0161383e-21
3.014819e-21
3.0140841e-21
3.0137067e-21
3.0135452e-21
3.0135239e-21
3.0136223e-21
3.0138737e-21
3.0143845e-21
3.0183752e-21
3.0161075e-21
3.0147918e-21
3.0140597e-21
3.0136842e-21
3.0135239e-21
3.0135035e-21
3.0136027e-21
3.013855e-21
3.0143663e-21
3.0184498e-21
3.0161896e-21
3.0148811e-21
3.0141538e-21
3.0137811e-21
3.0136223e-21
3.0136027e-21
3.0137025e-21
3.0139552e-21
3.0144669e-21
3.0186555e-21
3.0164152e-21
3.0151202e-21
3.0144001e-21
3.0140309e-21
3.0138737e-21
3.013855e-21
3.0139552e-21
3.0142083e-21
3.0147205e-21
3.0190768e-21
3.0168949e-21
3.0156195e-21
3.0149068e-21
3.0145405e-21
3.0143845e-21
3.0143663e-21
3.0144669e-21
3.0147205e-21
3.015234e-21
6.2015713e-21
6.197056e-21
6.1944214e-21
6.1929475e-21
6.1921848e-21
6.1918484e-21
6.1917803e-21
6.1919271e-21
6.1923306e-21
6.1931492e-21
6.197056e-21
6.1925569e-21
6.1899282e-21
6.1884571e-21
6.1876965e-21
6.1873629e-21
6.1873011e-21
6.1874631e-21
6.1879069e-21
6.1888442e-21
6.1944214e-21
6.1899282e-21
6.1873034e-21
6.1858349e-21
6.1850766e-21
6.1847468e-21
6.1846923e-21
6.1848689e-21
6.1853401e-21
6.1863172e-21
6.1929475e-21
6.1884571e-21
6.1858349e-21
6.1843685e-21
6.1836125e-21
6.183286e-21
6.1832372e-21
6.1834236e-21
6.1839093e-21
6.1849014e-21
6.1921848e-21
6.1876965e-21
6.1850766e-21
6.1836125e-21
6.1828587e-21
6.1825347e-21
6.1824897e-21
6.1826817e-21
6.1831745e-21
6.1841725e-21
6.1918484e-21
6.1873629e-21
6.1847468e-21
6.183286e-21
6.1825347e-21
6.1822129e-21
6.1821704e-21
6.1823654e-21
6.1828616e-21
6.183862e-21
6.1917803e-21
6.1873011e-21
6.1846923e-21
6.1832372e-21
6.1824897e-21
6.1821704e-21
6.1821296e-21
6.1823264e-21
6.1828241e-21
6.1838256e-21
6.1919271e-21
6.1874631e-21
6.1848689e-21
6.1834236e-21
6.1826817e-21
6.1823654e-21
6.1823264e-21
6.1825243e-21
6.183023e-21
6.1840251e-21
6.1923306e-21
6.1879069e-21
6.1853401e-21
6.1839093e-21
6.1831745e-21
6.1828616e-21
6.1828241e-21
6.183023e-21
6.1835224e-21
6.1845255e-21
6.1931492e-21
6.1888442e-21
6.1863172e-21
6.1849014e-21
6.1841725e-21
6.183862e-21
6.1838256e-21
6.1840251e-21
6.1845255e-21
6.1855312e-21
1.2861435e-20
1.2852423e-20
1.2847144e-20
1.2844184e-20
1.284265e-20
1.2841972e-20
1.2841834e-20
1.2842126e-20
1.2842926e-20
1.2844534e-20
1.2852423e-20
1.2843443e-20
1.2838176e-20
1.2835221e-20
1.2833691e-20
1.2833019e-20
1.2832894e-20
1.2833217e-20
1.28341e-20
1.2835951e-20
1.2847144e-20
1.2838176e-20
1.2832916e-20
1.2829967e-20
1.2828441e-20
1.2827777e-20
1.2827667e-20
1.282802e-20
1.2828959e-20
1.2830892e-20
1.2844184e-20
1.2835221e-20
1.2829967e-20
1.2827021e-20
1.2825501e-20
1.2824843e-20
1.2824745e-20
1.2825118e-20
1.2826086e-20
1.282805e-20
1.284265e-20
1.2833691e-20
1.2828441e-20
1.2825501e-20
1.2823984e-20
1.2823332e-20
1.2823241e-20
1.2823626e-20
1.2824609e-20
1.2826585e-20
1.2841972e-20
1.2833019e-20
1.2827777e-20
1.2824843e-20
1.2823332e-20
1.2822684e-20
1.2822599e-20
1.282299e-20
1.2823979e-20
1.282596e-20
1.2841834e-20
1.2832894e-20
1.2827667e-20
1.2824745e-20
1.2823241e-20
1.2822599e-20
1.2822517e-20
1.2822911e-20
1.2823904e-20
1.2825887e-20
1.2842126e-20
1.2833217e-20
1.282802e-20
1.2825118e-20
1.2823626e-20
1.282299e-20
1.2822911e-20
1.2823308e-20
1.2824302e-20
1.2826287e-20
1.2842926e-20
1.28341e-20
1.2828959e-20
1.2826086e-20
1.2824609e-20
1.2823979e-20
1.2823904e-20
1.2824302e-20
1.2825299e-20
1.2827285e-20
1.2844534e-20
1.2835951e-20
1.2830892e-20
1.282805e-20
1.2826585e-20
1.282596e-20
1.2825887e-20
1.2826287e-20
1.2827285e-20
1.2829276e-20
2.6968029e-20
2.6949852e-20
2.6939165e-20
2.6933157e-20
2.6930038e-20
2.692866e-20
2.6928378e-20
2.6928965e-20
2.6930568e-20
2.693376e-20
2.6949852e-20
2.6931738e-20
2.6921075e-20
2.6915078e-20
2.6911968e-20
2.6910601e-20
2.6910345e-20
2.6910997e-20
2.6912771e-20
2.6916468e-20
2.6939165e-20
2.6921075e-20
2.6910426e-20
2.690444e-20
2.690134e-20
2.6899989e-20
2.6899764e-20
2.6900478e-20
2.6902368e-20
2.6906234e-20
2.6933157e-20
2.6915078e-20
2.690444e-20
2.6898463e-20
2.6895372e-20
2.6894035e-20
2.6893834e-20
2.689459e-20
2.6896541e-20
2.6900471e-20
2.6930038e-20
2.6911968e-20
2.690134e-20
2.6895372e-20
2.689229e-20
2.6890964e-20
2.6890779e-20
2.6891558e-20
2.689354e-20
2.6897495e-20
2.692866e-20
2.6910601e-20
2.6899989e-20
2.6894035e-20
2.6890964e-20
2.6889647e-20
2.6889473e-20
2.6890265e-20
2.689226e-20
2.6896225e-20
2.6928378e-20
2.6910345e-20
2.6899764e-20
2.6893834e-20
2.6890779e-20
2.6889473e-20
2.6889306e-20
2.6890105e-20
2.6892107e-20
2.6896077e-20
2.6928965e-20
2.6910997e-20
2.6900478e-20
2.689459e-20
2.6891558e-20
2.6890265e-20
2.6890105e-20
2.6890909e-20
2.6892915e-20
2.6896887e-20
2.6930568e-20
2.6912771e-20
2.6902368e-20
2.6896541e-20
2.689354e-20
2.689226e-20
2.6892107e-20
2.6892915e-20
2.6894925e-20
2.6898901e-20
2.693376e-20
2.6916468e-20
2.6906234e-20
2.6900471e-20
2.6897495e-20
2.6896225e-20
2.6896077e-20
2.6896887e-20
2.6898901e-20
2.6902887e-20
5.7171401e-20
5.7134355e-20
5.7112493e-20
5.7100174e-20
5.709377e-20
5.7090936e-20
5.7090353e-20
5.7091548e-20
5.7094794e-20
5.7101201e-20
5.7134355e-20
5.7097437e-20
5.7075623e-20
5.7063326e-20
5.705694e-20
5.7054131e-20
5.7053603e-20
5.7054932e-20
5.7058538e-20
5.7066001e-20
5.7112493e-20
5.7075623e-20
5.705384e-20
5.7041565e-20
5.7035199e-20
5.7032423e-20
5.703196e-20
5.7033419e-20
5.7037266e-20
5.7045084e-20
5.7100174e-20
5.7063326e-20
5.7041565e-20
5.7029308e-20
5.7022961e-20
5.7020214e-20
5.7019802e-20
5.7021347e-20
5.7025323e-20
5.7033273e-20
5.709377e-20
5.705694e-20
5.7035199e-20
5.7022961e-20
5.7016633e-20
5.7013909e-20
5.7013529e-20
5.7015125e-20
5.7019164e-20
5.7027166e-20
5.7090936e-20
5.7054131e-20
5.7032423e-20
5.7020214e-20
5.7013909e-20
5.7011204e-20
5.7010846e-20
5.7012468e-20
5.7016536e-20
5.7024561e-20
5.7090353e-20
5.7053603e-20
5.703196e-20
5.7019802e-20
5.7013529e-20
5.7010846e-20
5.7010504e-20
5.7012141e-20
5.7016223e-20
5.7024257e-20
5.7091548e-20
5.7054932e-20
5.7033419e-20
5.7021347e-20
5.7015125e-20
5.7012468e-20
5.7012141e-20
5.7013788e-20
5.7017879e-20
5.7025918e-20
5.7094794e-20
5.7058538e-20
5.7037266e-20
5.7025323e-20
5.7019164e-20
5.7016536e-20
5.7016223e-20
5.7017879e-20
5.7021976e-20
5.7030022e-20
5.7101201e-20
5.7066001e-20
5.7045084e-20
5.7033273e-20
5.7027166e-20
5.7024561e-20
5.7024257e-20
5.7025918e-20
5.7030022e-20
5.7038089e-20
1.2253813e-19
1.2246184e-19
1.2241665e-19
1.2239113e-19
1.2237784e-19
1.2237196e-19
1.2237074e-19
1.223732e-19
1.2237985e-19
1.2239284e-19
1.2246184e-19
1.2238581e-19
1.2234072e-19
1.2231525e-19
1.22302e-19
1.2229616e-19
1.2229506e-19
1.2229781e-19
1.2230521e-19
1.2232044e-19
1.2241665e-19
1.2234072e-19
1.222957e-19
1.2227027e-19
1.2225706e-19
1.222513e-19
1.2225033e-19
1.2225335e-19
1.2226127e-19
1.2227725e-19
1.2239113e-19
1.2231525e-19
1.2227027e-19
1.2224487e-19
1.2223171e-19
1.2222601e-19
1.2222515e-19
1.2222835e-19
1.2223654e-19
1.222528e-19
1.2237784e-19
1.22302e-19
1.2225706e-19
1.2223171e-19
1.2221858e-19
1.2221293e-19
1.2221214e-19
1.2221544e-19
1.2222376e-19
1.2224014e-19
1.2237196e-19
1.2229616e-19
1.222513e-19
1.2222601e-19
1.2221293e-19
1.2220731e-19
1.2220657e-19
1.2220993e-19
1.2221832e-19
1.2223473e-19
1.2237074e-19
1.2229506e-19
1.2225033e-19
1.2222515e-19
1.2221214e-19
1.2220657e-19
1.2220586e-19
1.2220926e-19
1.2221767e-19
1.2223411e-19
1.223732e-19
1.2229781e-19
1.2225335e-19
1.2222835e-19
1.2221544e-19
1.2220993e-19
1.2220926e-19
1.2221267e-19
1.222211e-19
1.2223755e-19
1.2237985e-19
1.2230521e-19
1.2226127e-19
1.2223654e-19
1.2222376e-19
1.2221832e-19
1.2221767e-19
1.222211e-19
1.2222954e-19
1.2224601e-19
1.2239284e-19
1.2232044e-19
1.2227725e-19
1.222528e-19
1.2224014e-19
1.2223473e-19
1.2223411e-19
1.2223755e-19
1.2224601e-19
1.2226251e-19
2.6553033e-19
2.6537159e-19
2.6527723e-19
2.6522382e-19
2.6519597e-19
2.6518363e-19
2.6518107e-19
2.6518617e-19
2.6519993e-19
2.6522657e-19
2.6537159e-19
2.6521339e-19
2.6511924e-19
2.6506592e-19
2.6503815e-19
2.6502591e-19
2.650236e-19
2.6502932e-19
2.650447e-19
2.6507612e-19
2.6527723e-19
2.6511924e-19
2.6502522e-19
2.6497199e-19
2.6494431e-19
2.6493223e-19
2.649302e-19
2.649365e-19
2.6495297e-19
2.64986e-19
2.6522382e-19
2.6506592e-19
2.6497199e-19
2.6491885e-19
2.6489125e-19
2.6487929e-19
2.648775e-19
2.6488419e-19
2.6490124e-19
2.6493486e-19
2.6519597e-19
2.6503815e-19
2.6494431e-19
2.6489125e-19
2.6486374e-19
2.6485188e-19
2.6485024e-19
2.6485715e-19
2.6487449e-19
2.6490835e-19
2.6518363e-19
2.6502591e-19
2.6493223e-19
2.6487929e-19
2.6485188e-19
2.6484011e-19
2.6483857e-19
2.648456e-19
2.6486307e-19
2.6489703e-19
2.6518107e-19
2.650236e-19
2.649302e-19
2.648775e-19
2.6485024e-19
2.6483857e-19
2.6483709e-19
2.6484419e-19
2.6486173e-19
2.6489573e-19
2.6518617e-19
2.6502932e-19
2.649365e-19
2.6488419e-19
2.6485715e-19
2.648456e-19
2.6484419e-19
2.6485134e-19
2.6486891e-19
2.6490293e-19
2.6519993e-19
2.650447e-19
2.6495297e-19
2.6490124e-19
2.6487449e-19
2.6486307e-19
2.6486173e-19
2.6486891e-19
2.648865e-19
2.6492056e-19
2.6522657e-19
2.6507612e-19
2.64986e-19
2.6493486e-19
2.6490835e-19
2.6489703e-19
2.6489573e-19
2.6490293e-19
2.6492056e-19
2.649547e-19
5.8168746e-19
5.8135376e-19
5.8115471e-19
5.8104177e-19
5.8098281e-19
5.8095665e-19
5.8095121e-19
5.8096195e-19
5.8099073e-19
5.8104593e-19
5.8135376e-19
5.810212e-19
5.8082257e-19
5.8070983e-19
5.8065102e-19
5.8062511e-19
5.806202e-19
5.8063225e-19
5.8066453e-19
5.8073006e-19
5.8115471e-19
5.8082257e-19
5.8062422e-19
5.8051168e-19
5.8045307e-19
5.8042746e-19
5.8042319e-19
5.8043649e-19
5.8047113e-19
5.8054012e-19
5.8104177e-19
5.8070983e-19
5.8051168e-19
5.803993e-19
5.8034087e-19
5.8031555e-19
5.8031176e-19
5.8032591e-19
5.803618e-19
5.8043208e-19
5.8098281e-19
5.8065102e-19
5.8045307e-19
5.8034087e-19
5.8028263e-19
5.8025752e-19
5.8025406e-19
5.8026869e-19
5.8030519e-19
5.8037598e-19
5.8095665e-19
5.8062511e-19
5.8042746e-19
5.8031555e-19
5.8025752e-19
5.8023261e-19
5.8022935e-19
5.8024424e-19
5.8028103e-19
5.8035203e-19
5.8095121e-19
5.806202e-19
5.8042319e-19
5.8031176e-19
5.8025406e-19
5.8022935e-19
5.8022625e-19
5.8024128e-19
5.8027821e-19
5.803493e-19
5.8096195e-19
5.8063225e-19
5.8043649e-19
5.8032591e-19
5.8026869e-19
5.8024424e-19
5.8024128e-19
5.8025641e-19
5.8029341e-19
5.8036456e-19
5.8099073e-19
5.8066453e-19
5.8047113e-19
5.803618e-19
5.8030519e-19
5.8028103e-19
5.8027821e-19
5.8029341e-19
5.8033048e-19
5.8040169e-19
5.8104593e-19
5.8073006e-19
5.8054012e-19
5.8043208e-19
5.8037598e-19
5.8035203e-19
5.803493e-19
5.8036456e-19
5.8040169e-19