/*--------------------------------*- C++ -*----------------------------------*\
| =========                 |                                                 |
| \\      /  F ield         | OpenFOAM: The Open Source CFD Toolbox           |
|  \\    /   O peration     | Version:  dev                                   |
|   \\  /    A nd           | Web:      www.OpenFOAM.org                      |
|    \\/     M anipulation  |                                                 |
\*---------------------------------------------------------------------------*/
FoamFile
{
    version     2.0;
    format      ascii;
    class       volScalarField;
    location    "33";
    object      A;
}
// * * * * * * * * * * * * * * * * * * * * * * * * * * * * * * * * * * * * * //

dimensions      [0 0 0 0 1 0 0];

internalField   nonuniform List<scalar> 
10000
(
1.0084989e-41
1.0084441e-41
1.0084161e-41
1.0084019e-41
1.0083952e-41
1.0083924e-41
1.0083915e-41
1.0083917e-41
1.0083932e-41
1.0083974e-41
1.0084441e-41
1.0083893e-41
1.0083613e-41
1.0083472e-41
1.0083405e-41
1.0083377e-41
1.0083368e-41
1.0083371e-41
1.0083389e-41
1.0083438e-41
1.0084161e-41
1.0083613e-41
1.0083333e-41
1.0083192e-41
1.0083125e-41
1.0083097e-41
1.0083089e-41
1.0083093e-41
1.0083112e-41
1.0083164e-41
1.0084019e-41
1.0083472e-41
1.0083192e-41
1.008305e-41
1.0082983e-41
1.0082956e-41
1.0082948e-41
1.0082952e-41
1.0082972e-41
1.0083025e-41
1.0083952e-41
1.0083405e-41
1.0083125e-41
1.0082983e-41
1.0082917e-41
1.0082889e-41
1.0082881e-41
1.0082886e-41
1.0082906e-41
1.0082959e-41
1.0083924e-41
1.0083377e-41
1.0083097e-41
1.0082956e-41
1.0082889e-41
1.0082861e-41
1.0082853e-41
1.0082858e-41
1.0082879e-41
1.0082932e-41
1.0083915e-41
1.0083368e-41
1.0083089e-41
1.0082948e-41
1.0082881e-41
1.0082853e-41
1.0082846e-41
1.0082851e-41
1.0082871e-41
1.0082925e-41
1.0083917e-41
1.0083371e-41
1.0083093e-41
1.0082952e-41
1.0082886e-41
1.0082858e-41
1.0082851e-41
1.0082856e-41
1.0082877e-41
1.008293e-41
1.0083932e-41
1.0083389e-41
1.0083112e-41
1.0082972e-41
1.0082906e-41
1.0082879e-41
1.0082871e-41
1.0082877e-41
1.0082897e-41
1.008295e-41
1.0083974e-41
1.0083438e-41
1.0083164e-41
1.0083025e-41
1.0082959e-41
1.0082932e-41
1.0082925e-41
1.008293e-41
1.008295e-41
1.0083003e-41
4.0862648e-41
4.0860499e-41
4.0859381e-41
4.0858814e-41
4.0858546e-41
4.0858433e-41
4.0858397e-41
4.0858406e-41
4.0858466e-41
4.0858637e-41
4.0860499e-41
4.0858351e-41
4.0857233e-41
4.0856666e-41
4.0856399e-41
4.0856286e-41
4.0856251e-41
4.0856264e-41
4.0856334e-41
4.0856537e-41
4.0859381e-41
4.0857233e-41
4.0856116e-41
4.0855549e-41
4.0855282e-41
4.085517e-41
4.0855137e-41
4.0855153e-41
4.085523e-41
4.0855442e-41
4.0858814e-41
4.0856666e-41
4.0855549e-41
4.0854983e-41
4.0854716e-41
4.0854604e-41
4.0854572e-41
4.0854591e-41
4.0854671e-41
4.0854887e-41
4.0858546e-41
4.0856399e-41
4.0855282e-41
4.0854716e-41
4.0854449e-41
4.0854338e-41
4.0854306e-41
4.0854326e-41
4.0854407e-41
4.0854625e-41
4.0858433e-41
4.0856286e-41
4.085517e-41
4.0854604e-41
4.0854338e-41
4.0854227e-41
4.0854196e-41
4.0854216e-41
4.0854298e-41
4.0854516e-41
4.0858397e-41
4.0856251e-41
4.0855137e-41
4.0854572e-41
4.0854306e-41
4.0854196e-41
4.0854165e-41
4.0854185e-41
4.0854268e-41
4.0854486e-41
4.0858406e-41
4.0856264e-41
4.0855153e-41
4.0854591e-41
4.0854326e-41
4.0854216e-41
4.0854185e-41
4.0854206e-41
4.0854288e-41
4.0854507e-41
4.0858466e-41
4.0856334e-41
4.085523e-41
4.0854671e-41
4.0854407e-41
4.0854298e-41
4.0854268e-41
4.0854288e-41
4.0854371e-41
4.0854589e-41
4.0858637e-41
4.0856537e-41
4.0855442e-41
4.0854887e-41
4.0854625e-41
4.0854516e-41
4.0854486e-41
4.0854507e-41
4.0854589e-41
4.0854808e-41
1.1611468e-40
1.1610875e-40
1.1610565e-40
1.1610407e-40
1.1610332e-40
1.1610301e-40
1.1610291e-40
1.1610293e-40
1.161031e-40
1.1610358e-40
1.1610875e-40
1.1610283e-40
1.1609973e-40
1.1609815e-40
1.160974e-40
1.1609709e-40
1.1609699e-40
1.1609703e-40
1.1609722e-40
1.1609779e-40
1.1610565e-40
1.1609973e-40
1.1609662e-40
1.1609505e-40
1.160943e-40
1.1609399e-40
1.160939e-40
1.1609394e-40
1.1609415e-40
1.1609475e-40
1.1610407e-40
1.1609815e-40
1.1609505e-40
1.1609347e-40
1.1609272e-40
1.1609241e-40
1.1609232e-40
1.1609238e-40
1.160926e-40
1.160932e-40
1.1610332e-40
1.160974e-40
1.160943e-40
1.1609272e-40
1.1609198e-40
1.1609167e-40
1.1609158e-40
1.1609164e-40
1.1609186e-40
1.1609247e-40
1.1610301e-40
1.1609709e-40
1.1609399e-40
1.1609241e-40
1.1609167e-40
1.1609136e-40
1.1609127e-40
1.1609133e-40
1.1609156e-40
1.1609217e-40
1.1610291e-40
1.1609699e-40
1.160939e-40
1.1609232e-40
1.1609158e-40
1.1609127e-40
1.1609119e-40
1.1609125e-40
1.1609147e-40
1.1609208e-40
1.1610293e-40
1.1609703e-40
1.1609394e-40
1.1609238e-40
1.1609164e-40
1.1609133e-40
1.1609125e-40
1.160913e-40
1.1609153e-40
1.1609214e-40
1.161031e-40
1.1609722e-40
1.1609415e-40
1.160926e-40
1.1609186e-40
1.1609156e-40
1.1609147e-40
1.1609153e-40
1.1609176e-40
1.1609237e-40
1.1610358e-40
1.1609779e-40
1.1609475e-40
1.160932e-40
1.1609247e-40
1.1609217e-40
1.1609208e-40
1.1609214e-40
1.1609237e-40
1.1609298e-40
3.2210896e-40
3.2209302e-40
3.2208463e-40
3.2208035e-40
3.2207832e-40
3.2207747e-40
3.2207719e-40
3.2207726e-40
3.220777e-40
3.2207897e-40
3.2209302e-40
3.2207709e-40
3.220687e-40
3.2206442e-40
3.220624e-40
3.2206154e-40
3.2206128e-40
3.2206138e-40
3.220619e-40
3.220634e-40
3.2208463e-40
3.220687e-40
3.220603e-40
3.2205603e-40
3.2205401e-40
3.2205316e-40
3.2205291e-40
3.2205303e-40
3.220536e-40
3.2205519e-40
3.2208035e-40
3.2206442e-40
3.2205603e-40
3.2205176e-40
3.2204974e-40
3.2204889e-40
3.2204865e-40
3.2204879e-40
3.2204938e-40
3.22051e-40
3.2207832e-40
3.220624e-40
3.2205401e-40
3.2204974e-40
3.2204772e-40
3.2204687e-40
3.2204664e-40
3.2204679e-40
3.2204739e-40
3.2204902e-40
3.2207747e-40
3.2206154e-40
3.2205316e-40
3.2204889e-40
3.2204687e-40
3.2204603e-40
3.220458e-40
3.2204595e-40
3.2204657e-40
3.2204819e-40
3.2207719e-40
3.2206128e-40
3.2205291e-40
3.2204865e-40
3.2204664e-40
3.220458e-40
3.2204557e-40
3.2204572e-40
3.2204634e-40
3.2204797e-40
3.2207726e-40
3.2206138e-40
3.2205303e-40
3.2204879e-40
3.2204679e-40
3.2204595e-40
3.2204572e-40
3.2204588e-40
3.2204649e-40
3.2204812e-40
3.220777e-40
3.220619e-40
3.220536e-40
3.2204938e-40
3.2204739e-40
3.2204657e-40
3.2204634e-40
3.2204649e-40
3.2204711e-40
3.2204874e-40
3.2207897e-40
3.220634e-40
3.2205519e-40
3.22051e-40
3.2204902e-40
3.2204819e-40
3.2204797e-40
3.2204812e-40
3.2204874e-40
3.2205037e-40
9.0359801e-40
9.0355467e-40
9.0353174e-40
9.0352003e-40
9.0351447e-40
9.0351212e-40
9.0351137e-40
9.0351156e-40
9.0351274e-40
9.0351611e-40
9.0355467e-40
9.0351135e-40
9.0348842e-40
9.0347671e-40
9.0347116e-40
9.0346882e-40
9.0346811e-40
9.0346837e-40
9.0346978e-40
9.0347381e-40
9.0353174e-40
9.0348842e-40
9.034655e-40
9.0345379e-40
9.0344825e-40
9.0344592e-40
9.0344524e-40
9.0344558e-40
9.0344712e-40
9.0345137e-40
9.0352003e-40
9.0347671e-40
9.0345379e-40
9.0344209e-40
9.0343655e-40
9.0343424e-40
9.0343357e-40
9.0343396e-40
9.0343558e-40
9.0343991e-40
9.0351447e-40
9.0347116e-40
9.0344825e-40
9.0343655e-40
9.0343102e-40
9.0342871e-40
9.0342806e-40
9.0342847e-40
9.0343012e-40
9.0343448e-40
9.0351212e-40
9.0346882e-40
9.0344592e-40
9.0343424e-40
9.0342871e-40
9.0342641e-40
9.0342577e-40
9.0342619e-40
9.0342785e-40
9.0343222e-40
9.0351137e-40
9.0346811e-40
9.0344524e-40
9.0343357e-40
9.0342806e-40
9.0342577e-40
9.0342514e-40
9.0342556e-40
9.0342723e-40
9.034316e-40
9.0351156e-40
9.0346837e-40
9.0344558e-40
9.0343396e-40
9.0342847e-40
9.0342619e-40
9.0342556e-40
9.0342599e-40
9.0342766e-40
9.0343203e-40
9.0351274e-40
9.0346978e-40
9.0344712e-40
9.0343558e-40
9.0343012e-40
9.0342785e-40
9.0342723e-40
9.0342766e-40
9.0342933e-40
9.034337e-40
9.0351611e-40
9.0347381e-40
9.0345137e-40
9.0343991e-40
9.0343448e-40
9.0343222e-40
9.034316e-40
9.0343203e-40
9.034337e-40
9.0343808e-40
2.5753565e-39
2.5752368e-39
2.5751732e-39
2.5751406e-39
2.5751252e-39
2.5751186e-39
2.5751165e-39
2.5751171e-39
2.5751203e-39
2.5751294e-39
2.5752368e-39
2.5751172e-39
2.5750536e-39
2.575021e-39
2.5750056e-39
2.5749991e-39
2.5749971e-39
2.5749978e-39
2.5750017e-39
2.5750126e-39
2.5751732e-39
2.5750536e-39
2.57499e-39
2.5749574e-39
2.574942e-39
2.5749355e-39
2.5749336e-39
2.5749346e-39
2.5749388e-39
2.5749504e-39
2.5751406e-39
2.575021e-39
2.5749574e-39
2.5749249e-39
2.5749095e-39
2.574903e-39
2.5749012e-39
2.5749023e-39
2.5749067e-39
2.5749185e-39
2.5751252e-39
2.5750056e-39
2.574942e-39
2.5749095e-39
2.5748941e-39
2.5748877e-39
2.5748859e-39
2.574887e-39
2.5748916e-39
2.5749034e-39
2.5751186e-39
2.5749991e-39
2.5749355e-39
2.574903e-39
2.5748877e-39
2.5748813e-39
2.5748795e-39
2.5748807e-39
2.5748852e-39
2.5748972e-39
2.5751165e-39
2.5749971e-39
2.5749336e-39
2.5749012e-39
2.5748859e-39
2.5748795e-39
2.5748777e-39
2.5748789e-39
2.5748835e-39
2.5748954e-39
2.5751171e-39
2.5749978e-39
2.5749346e-39
2.5749023e-39
2.574887e-39
2.5748807e-39
2.5748789e-39
2.5748801e-39
2.5748847e-39
2.5748966e-39
2.5751203e-39
2.5750017e-39
2.5749388e-39
2.5749067e-39
2.5748916e-39
2.5748852e-39
2.5748835e-39
2.5748847e-39
2.5748893e-39
2.5749013e-39
2.5751294e-39
2.5750126e-39
2.5749504e-39
2.5749185e-39
2.5749034e-39
2.5748972e-39
2.5748954e-39
2.5748966e-39
2.5749013e-39
2.5749132e-39
7.4624398e-39
7.462104e-39
7.4619246e-39
7.4618327e-39
7.461789e-39
7.4617704e-39
7.4617646e-39
7.461766e-39
7.461775e-39
7.4617999e-39
7.462104e-39
7.4617683e-39
7.461589e-39
7.461497e-39
7.4614533e-39
7.4614349e-39
7.4614293e-39
7.4614314e-39
7.4614422e-39
7.4614724e-39
7.4619246e-39
7.461589e-39
7.4614097e-39
7.4613178e-39
7.4612742e-39
7.4612558e-39
7.4612505e-39
7.4612532e-39
7.4612651e-39
7.4612971e-39
7.4618327e-39
7.461497e-39
7.4613178e-39
7.4612259e-39
7.4611823e-39
7.4611641e-39
7.4611589e-39
7.4611619e-39
7.4611745e-39
7.4612071e-39
7.461789e-39
7.4614533e-39
7.4612742e-39
7.4611823e-39
7.4611388e-39
7.4611206e-39
7.4611155e-39
7.4611188e-39
7.4611316e-39
7.4611644e-39
7.4617704e-39
7.4614349e-39
7.4612558e-39
7.4611641e-39
7.4611206e-39
7.4611025e-39
7.4610975e-39
7.4611008e-39
7.4611137e-39
7.4611467e-39
7.4617646e-39
7.4614293e-39
7.4612505e-39
7.4611589e-39
7.4611155e-39
7.4610975e-39
7.4610925e-39
7.4610959e-39
7.4611088e-39
7.4611418e-39
7.461766e-39
7.4614314e-39
7.4612532e-39
7.4611619e-39
7.4611188e-39
7.4611008e-39
7.4610959e-39
7.4610993e-39
7.4611122e-39
7.4611452e-39
7.461775e-39
7.4614422e-39
7.4612651e-39
7.4611745e-39
7.4611316e-39
7.4611137e-39
7.4611088e-39
7.4611122e-39
7.4611252e-39
7.4611582e-39
7.4617999e-39
7.4614724e-39
7.4612971e-39
7.4612071e-39
7.4611644e-39
7.4611467e-39
7.4611418e-39
7.4611452e-39
7.4611582e-39
7.4611912e-39
2.1987146e-38
2.1986188e-38
2.1985675e-38
2.1985411e-38
2.1985285e-38
2.1985232e-38
2.1985215e-38
2.1985219e-38
2.1985244e-38
2.1985314e-38
2.1986188e-38
2.1985231e-38
2.1984717e-38
2.1984453e-38
2.1984328e-38
2.1984275e-38
2.1984258e-38
2.1984264e-38
2.1984295e-38
2.198438e-38
2.1985675e-38
2.1984717e-38
2.1984204e-38
2.198394e-38
2.1983814e-38
2.1983762e-38
2.1983746e-38
2.1983754e-38
2.1983788e-38
2.1983878e-38
2.1985411e-38
2.1984453e-38
2.198394e-38
2.1983676e-38
2.1983551e-38
2.1983498e-38
2.1983483e-38
2.1983492e-38
2.1983528e-38
2.198362e-38
2.1985285e-38
2.1984328e-38
2.1983814e-38
2.1983551e-38
2.1983425e-38
2.1983373e-38
2.1983359e-38
2.1983368e-38
2.1983405e-38
2.1983497e-38
2.1985232e-38
2.1984275e-38
2.1983762e-38
2.1983498e-38
2.1983373e-38
2.1983321e-38
2.1983307e-38
2.1983316e-38
2.1983353e-38
2.1983446e-38
2.1985215e-38
2.1984258e-38
2.1983746e-38
2.1983483e-38
2.1983359e-38
2.1983307e-38
2.1983293e-38
2.1983302e-38
2.1983339e-38
2.1983432e-38
2.1985219e-38
2.1984264e-38
2.1983754e-38
2.1983492e-38
2.1983368e-38
2.1983316e-38
2.1983302e-38
2.1983312e-38
2.1983349e-38
2.1983442e-38
2.1985244e-38
2.1984295e-38
2.1983788e-38
2.1983528e-38
2.1983405e-38
2.1983353e-38
2.1983339e-38
2.1983349e-38
2.1983386e-38
2.1983479e-38
2.1985314e-38
2.198438e-38
2.1983878e-38
2.198362e-38
2.1983497e-38
2.1983446e-38
2.1983432e-38
2.1983442e-38
2.1983479e-38
2.1983572e-38
6.5876834e-38
6.5874056e-38
6.587256e-38
6.587179e-38
6.5871423e-38
6.5871267e-38
6.5871218e-38
6.587123e-38
6.5871304e-38
6.58715e-38
6.5874056e-38
6.5871279e-38
6.5869784e-38
6.5869014e-38
6.5868647e-38
6.5868492e-38
6.5868445e-38
6.5868463e-38
6.5868551e-38
6.5868794e-38
6.587256e-38
6.5869784e-38
6.5868289e-38
6.5867519e-38
6.5867153e-38
6.5866999e-38
6.5866954e-38
6.5866976e-38
6.5867075e-38
6.5867333e-38
6.587179e-38
6.5869014e-38
6.5867519e-38
6.5866749e-38
6.5866383e-38
6.586623e-38
6.5866187e-38
6.5866212e-38
6.5866316e-38
6.586658e-38
6.5871423e-38
6.5868647e-38
6.5867153e-38
6.5866383e-38
6.5866018e-38
6.5865865e-38
6.5865823e-38
6.586585e-38
6.5865956e-38
6.5866222e-38
6.5871267e-38
6.5868492e-38
6.5866999e-38
6.586623e-38
6.5865865e-38
6.5865713e-38
6.5865671e-38
6.5865699e-38
6.5865806e-38
6.5866072e-38
6.5871218e-38
6.5868445e-38
6.5866954e-38
6.5866187e-38
6.5865823e-38
6.5865671e-38
6.586563e-38
6.5865658e-38
6.5865765e-38
6.5866032e-38
6.587123e-38
6.5868463e-38
6.5866976e-38
6.5866212e-38
6.586585e-38
6.5865699e-38
6.5865658e-38
6.5865687e-38
6.5865794e-38
6.5866061e-38
6.5871304e-38
6.5868551e-38
6.5867075e-38
6.5866316e-38
6.5865956e-38
6.5865806e-38
6.5865765e-38
6.5865794e-38
6.5865902e-38
6.5866168e-38
6.58715e-38
6.5868794e-38
6.5867333e-38
6.586658e-38
6.5866222e-38
6.5866072e-38
6.5866032e-38
6.5866061e-38
6.5866168e-38
6.5866435e-38
2.0072261e-37
2.0071442e-37
2.0071e-37
2.0070771e-37
2.0070662e-37
2.0070616e-37
2.0070601e-37
2.0070605e-37
2.0070626e-37
2.0070683e-37
2.0071442e-37
2.0070624e-37
2.0070181e-37
2.0069953e-37
2.0069844e-37
2.0069798e-37
2.0069784e-37
2.0069789e-37
2.0069815e-37
2.0069886e-37
2.0071e-37
2.0070181e-37
2.0069739e-37
2.006951e-37
2.0069402e-37
2.0069356e-37
2.0069343e-37
2.0069349e-37
2.0069379e-37
2.0069454e-37
2.0070771e-37
2.0069953e-37
2.006951e-37
2.0069282e-37
2.0069174e-37
2.0069128e-37
2.0069115e-37
2.0069123e-37
2.0069154e-37
2.006923e-37
2.0070662e-37
2.0069844e-37
2.0069402e-37
2.0069174e-37
2.0069065e-37
2.006902e-37
2.0069007e-37
2.0069015e-37
2.0069047e-37
2.0069124e-37
2.0070616e-37
2.0069798e-37
2.0069356e-37
2.0069128e-37
2.006902e-37
2.0068975e-37
2.0068962e-37
2.0068971e-37
2.0069002e-37
2.006908e-37
2.0070601e-37
2.0069784e-37
2.0069343e-37
2.0069115e-37
2.0069007e-37
2.0068962e-37
2.006895e-37
2.0068958e-37
2.006899e-37
2.0069068e-37
2.0070605e-37
2.0069789e-37
2.0069349e-37
2.0069123e-37
2.0069015e-37
2.0068971e-37
2.0068958e-37
2.0068967e-37
2.0068999e-37
2.0069077e-37
2.0070626e-37
2.0069815e-37
2.0069379e-37
2.0069154e-37
2.0069047e-37
2.0069002e-37
2.006899e-37
2.0068999e-37
2.0069031e-37
2.0069108e-37
2.0070683e-37
2.0069886e-37
2.0069454e-37
2.006923e-37
2.0069124e-37
2.006908e-37
2.0069068e-37
2.0069077e-37
2.0069108e-37
2.0069186e-37
6.2198345e-37
6.2195892e-37
6.2194561e-37
6.2193872e-37
6.2193543e-37
6.2193404e-37
6.219336e-37
6.219337e-37
6.2193434e-37
6.2193601e-37
6.2195892e-37
6.219344e-37
6.2192109e-37
6.219142e-37
6.2191092e-37
6.2190953e-37
6.2190911e-37
6.2190927e-37
6.2191005e-37
6.2191214e-37
6.2194561e-37
6.2192109e-37
6.2190778e-37
6.2190089e-37
6.2189761e-37
6.2189623e-37
6.2189583e-37
6.2189604e-37
6.2189691e-37
6.2189914e-37
6.2193872e-37
6.219142e-37
6.2190089e-37
6.2189401e-37
6.2189074e-37
6.2188936e-37
6.2188898e-37
6.2188921e-37
6.2189013e-37
6.2189241e-37
6.2193543e-37
6.2191092e-37
6.2189761e-37
6.2189074e-37
6.2188746e-37
6.218861e-37
6.2188572e-37
6.2188597e-37
6.2188691e-37
6.218892e-37
6.2193404e-37
6.2190953e-37
6.2189623e-37
6.2188936e-37
6.218861e-37
6.2188473e-37
6.2188436e-37
6.2188462e-37
6.2188556e-37
6.2188787e-37
6.219336e-37
6.2190911e-37
6.2189583e-37
6.2188898e-37
6.2188572e-37
6.2188436e-37
6.2188399e-37
6.2188425e-37
6.218852e-37
6.2188751e-37
6.219337e-37
6.2190927e-37
6.2189604e-37
6.2188921e-37
6.2188597e-37
6.2188462e-37
6.2188425e-37
6.2188451e-37
6.2188546e-37
6.2188777e-37
6.2193434e-37
6.2191005e-37
6.2189691e-37
6.2189013e-37
6.2188691e-37
6.2188556e-37
6.218852e-37
6.2188546e-37
6.2188642e-37
6.2188872e-37
6.2193601e-37
6.2191214e-37
6.2189914e-37
6.2189241e-37
6.218892e-37
6.2188787e-37
6.2188751e-37
6.2188777e-37
6.2188872e-37
6.2189103e-37
1.9601757e-36
1.960101e-36
1.9600602e-36
1.9600391e-36
1.9600291e-36
1.9600248e-36
1.9600234e-36
1.9600238e-36
1.9600257e-36
1.9600307e-36
1.960101e-36
1.9600263e-36
1.9599856e-36
1.9599645e-36
1.9599544e-36
1.9599501e-36
1.9599489e-36
1.9599493e-36
1.9599517e-36
1.959958e-36
1.9600602e-36
1.9599856e-36
1.9599449e-36
1.9599238e-36
1.9599137e-36
1.9599095e-36
1.9599083e-36
1.9599089e-36
1.9599116e-36
1.9599183e-36
1.9600391e-36
1.9599645e-36
1.9599238e-36
1.9599027e-36
1.9598926e-36
1.9598884e-36
1.9598873e-36
1.959888e-36
1.9598908e-36
1.9598977e-36
1.9600291e-36
1.9599544e-36
1.9599137e-36
1.9598926e-36
1.9598826e-36
1.9598784e-36
1.9598773e-36
1.959878e-36
1.9598809e-36
1.9598878e-36
1.9600248e-36
1.9599501e-36
1.9599095e-36
1.9598884e-36
1.9598784e-36
1.9598742e-36
1.9598731e-36
1.9598739e-36
1.9598768e-36
1.9598837e-36
1.9600234e-36
1.9599489e-36
1.9599083e-36
1.9598873e-36
1.9598773e-36
1.9598731e-36
1.959872e-36
1.9598728e-36
1.9598757e-36
1.9598826e-36
1.9600238e-36
1.9599493e-36
1.9599089e-36
1.959888e-36
1.959878e-36
1.9598739e-36
1.9598728e-36
1.9598736e-36
1.9598765e-36
1.9598834e-36
1.9600257e-36
1.9599517e-36
1.9599116e-36
1.9598908e-36
1.9598809e-36
1.9598768e-36
1.9598757e-36
1.9598765e-36
1.9598794e-36
1.9598864e-36
1.9600307e-36
1.959958e-36
1.9599183e-36
1.9598977e-36
1.9598878e-36
1.9598837e-36
1.9598826e-36
1.9598834e-36
1.9598864e-36
1.9598933e-36
6.2828214e-36
6.2825901e-36
6.2824635e-36
6.2823978e-36
6.2823664e-36
6.282353e-36
6.2823488e-36
6.2823498e-36
6.2823558e-36
6.2823709e-36
6.2825901e-36
6.2823589e-36
6.2822323e-36
6.2821666e-36
6.2821352e-36
6.2821219e-36
6.2821179e-36
6.2821194e-36
6.2821268e-36
6.282146e-36
6.2824635e-36
6.2822323e-36
6.2821058e-36
6.2820401e-36
6.2820088e-36
6.2819956e-36
6.2819918e-36
6.2819937e-36
6.282002e-36
6.2820226e-36
6.2823978e-36
6.2821666e-36
6.2820401e-36
6.2819745e-36
6.2819431e-36
6.28193e-36
6.2819264e-36
6.2819286e-36
6.2819373e-36
6.2819584e-36
6.2823664e-36
6.2821352e-36
6.2820088e-36
6.2819431e-36
6.2819119e-36
6.2818988e-36
6.2818952e-36
6.2818976e-36
6.2819065e-36
6.2819278e-36
6.282353e-36
6.2821219e-36
6.2819956e-36
6.28193e-36
6.2818988e-36
6.2818858e-36
6.2818822e-36
6.2818847e-36
6.2818937e-36
6.281915e-36
6.2823488e-36
6.2821179e-36
6.2819918e-36
6.2819264e-36
6.2818952e-36
6.2818822e-36
6.2818787e-36
6.2818812e-36
6.2818903e-36
6.2819116e-36
6.2823498e-36
6.2821194e-36
6.2819937e-36
6.2819286e-36
6.2818976e-36
6.2818847e-36
6.2818812e-36
6.2818838e-36
6.2818928e-36
6.2819142e-36
6.2823558e-36
6.2821268e-36
6.282002e-36
6.2819373e-36
6.2819065e-36
6.2818937e-36
6.2818903e-36
6.2818928e-36
6.2819019e-36
6.2819233e-36
6.2823709e-36
6.282146e-36
6.2820226e-36
6.2819584e-36
6.2819278e-36
6.281915e-36
6.2819116e-36
6.2819142e-36
6.2819233e-36
6.2819446e-36
2.0481555e-35
2.0480827e-35
2.0480427e-35
2.0480219e-35
2.0480119e-35
2.0480077e-35
2.0480064e-35
2.0480067e-35
2.0480086e-35
2.0480132e-35
2.0480827e-35
2.0480099e-35
2.0479699e-35
2.0479491e-35
2.0479392e-35
2.047935e-35
2.0479337e-35
2.0479342e-35
2.0479365e-35
2.0479425e-35
2.0480427e-35
2.0479699e-35
2.04793e-35
2.0479092e-35
2.0478992e-35
2.0478951e-35
2.0478939e-35
2.0478945e-35
2.0478971e-35
2.0479035e-35
2.0480219e-35
2.0479491e-35
2.0479092e-35
2.0478884e-35
2.0478785e-35
2.0478743e-35
2.0478732e-35
2.0478739e-35
2.0478766e-35
2.0478832e-35
2.0480119e-35
2.0479392e-35
2.0478992e-35
2.0478785e-35
2.0478686e-35
2.0478644e-35
2.0478633e-35
2.0478641e-35
2.0478669e-35
2.0478735e-35
2.0480077e-35
2.047935e-35
2.0478951e-35
2.0478743e-35
2.0478644e-35
2.0478603e-35
2.0478592e-35
2.04786e-35
2.0478628e-35
2.0478695e-35
2.0480064e-35
2.0479337e-35
2.0478939e-35
2.0478732e-35
2.0478633e-35
2.0478592e-35
2.0478581e-35
2.0478589e-35
2.0478617e-35
2.0478684e-35
2.0480067e-35
2.0479342e-35
2.0478945e-35
2.0478739e-35
2.0478641e-35
2.04786e-35
2.0478589e-35
2.0478597e-35
2.0478625e-35
2.0478692e-35
2.0480086e-35
2.0479365e-35
2.0478971e-35
2.0478766e-35
2.0478669e-35
2.0478628e-35
2.0478617e-35
2.0478625e-35
2.0478654e-35
2.0478721e-35
2.0480132e-35
2.0479425e-35
2.0479035e-35
2.0478832e-35
2.0478735e-35
2.0478695e-35
2.0478684e-35
2.0478692e-35
2.0478721e-35
2.0478788e-35
6.7907748e-35
6.7905419e-35
6.7904135e-35
6.7903465e-35
6.7903145e-35
6.7903009e-35
6.7902966e-35
6.7902976e-35
6.7903036e-35
6.7903182e-35
6.7905419e-35
6.7903091e-35
6.7901807e-35
6.7901137e-35
6.7900817e-35
6.7900682e-35
6.7900641e-35
6.7900657e-35
6.7900731e-35
6.790092e-35
6.7904135e-35
6.7901807e-35
6.7900523e-35
6.7899854e-35
6.7899534e-35
6.78994e-35
6.7899361e-35
6.7899381e-35
6.7899465e-35
6.7899669e-35
6.7903465e-35
6.7901137e-35
6.7899854e-35
6.7899185e-35
6.7898866e-35
6.7898732e-35
6.7898695e-35
6.7898718e-35
6.7898807e-35
6.7899016e-35
6.7903145e-35
6.7900817e-35
6.7899534e-35
6.7898866e-35
6.7898547e-35
6.7898413e-35
6.7898377e-35
6.7898402e-35
6.7898493e-35
6.7898704e-35
6.7903009e-35
6.7900682e-35
6.78994e-35
6.7898732e-35
6.7898413e-35
6.7898281e-35
6.7898245e-35
6.789827e-35
6.7898362e-35
6.7898574e-35
6.7902966e-35
6.7900641e-35
6.7899361e-35
6.7898695e-35
6.7898377e-35
6.7898245e-35
6.7898209e-35
6.7898235e-35
6.7898327e-35
6.7898539e-35
6.7902976e-35
6.7900657e-35
6.7899381e-35
6.7898718e-35
6.7898402e-35
6.789827e-35
6.7898235e-35
6.7898262e-35
6.7898354e-35
6.7898566e-35
6.7903036e-35
6.7900731e-35
6.7899465e-35
6.7898807e-35
6.7898493e-35
6.7898362e-35
6.7898327e-35
6.7898354e-35
6.7898446e-35
6.7898658e-35
6.7903182e-35
6.790092e-35
6.7899669e-35
6.7899016e-35
6.7898704e-35
6.7898574e-35
6.7898539e-35
6.7898566e-35
6.7898658e-35
6.789887e-35
2.2899085e-34
2.2898327e-34
2.2897908e-34
2.2897689e-34
2.2897584e-34
2.289754e-34
2.2897526e-34
2.2897529e-34
2.2897549e-34
2.2897595e-34
2.2898327e-34
2.289757e-34
2.2897151e-34
2.2896932e-34
2.2896827e-34
2.2896783e-34
2.289677e-34
2.2896775e-34
2.2896799e-34
2.289686e-34
2.2897908e-34
2.2897151e-34
2.2896732e-34
2.2896513e-34
2.2896409e-34
2.2896365e-34
2.2896352e-34
2.2896359e-34
2.2896386e-34
2.2896452e-34
2.2897689e-34
2.2896932e-34
2.2896513e-34
2.2896295e-34
2.289619e-34
2.2896146e-34
2.2896134e-34
2.2896142e-34
2.2896171e-34
2.2896239e-34
2.2897584e-34
2.2896827e-34
2.2896409e-34
2.289619e-34
2.2896086e-34
2.2896042e-34
2.289603e-34
2.2896039e-34
2.2896068e-34
2.2896136e-34
2.289754e-34
2.2896783e-34
2.2896365e-34
2.2896146e-34
2.2896042e-34
2.2895999e-34
2.2895987e-34
2.2895995e-34
2.2896025e-34
2.2896094e-34
2.2897526e-34
2.289677e-34
2.2896352e-34
2.2896134e-34
2.289603e-34
2.2895987e-34
2.2895975e-34
2.2895984e-34
2.2896014e-34
2.2896083e-34
2.2897529e-34
2.2896775e-34
2.2896359e-34
2.2896142e-34
2.2896039e-34
2.2895995e-34
2.2895984e-34
2.2895993e-34
2.2896023e-34
2.2896091e-34
2.2897549e-34
2.2896799e-34
2.2896386e-34
2.2896171e-34
2.2896068e-34
2.2896025e-34
2.2896014e-34
2.2896023e-34
2.2896053e-34
2.2896122e-34
2.2897595e-34
2.289686e-34
2.2896452e-34
2.2896239e-34
2.2896136e-34
2.2896094e-34
2.2896083e-34
2.2896091e-34
2.2896122e-34
2.289619e-34
7.8532198e-34
7.8529694e-34
7.8528303e-34
7.8527576e-34
7.8527227e-34
7.8527078e-34
7.8527032e-34
7.8527044e-34
7.8527108e-34
7.8527259e-34
7.8529694e-34
7.852719e-34
7.85258e-34
7.8525073e-34
7.8524724e-34
7.8524577e-34
7.8524532e-34
7.852455e-34
7.852463e-34
7.852483e-34
7.8528303e-34
7.85258e-34
7.852441e-34
7.8523683e-34
7.8523335e-34
7.8523188e-34
7.8523147e-34
7.8523169e-34
7.852326e-34
7.8523477e-34
7.8527576e-34
7.8525073e-34
7.8523683e-34
7.8522956e-34
7.8522609e-34
7.8522463e-34
7.8522423e-34
7.8522449e-34
7.8522545e-34
7.8522767e-34
7.8527227e-34
7.8524724e-34
7.8523335e-34
7.8522609e-34
7.8522261e-34
7.8522116e-34
7.8522077e-34
7.8522105e-34
7.8522204e-34
7.8522428e-34
7.8527078e-34
7.8524577e-34
7.8523188e-34
7.8522463e-34
7.8522116e-34
7.8521971e-34
7.8521933e-34
7.8521961e-34
7.8522061e-34
7.8522286e-34
7.8527032e-34
7.8524532e-34
7.8523147e-34
7.8522423e-34
7.8522077e-34
7.8521933e-34
7.8521895e-34
7.8521924e-34
7.8522024e-34
7.8522249e-34
7.8527044e-34
7.852455e-34
7.8523169e-34
7.8522449e-34
7.8522105e-34
7.8521961e-34
7.8521924e-34
7.8521953e-34
7.8522053e-34
7.8522279e-34
7.8527108e-34
7.852463e-34
7.852326e-34
7.8522545e-34
7.8522204e-34
7.8522061e-34
7.8522024e-34
7.8522053e-34
7.8522154e-34
7.8522379e-34
7.8527259e-34
7.852483e-34
7.8523477e-34
7.8522767e-34
7.8522428e-34
7.8522286e-34
7.8522249e-34
7.8522279e-34
7.8522379e-34
7.8522605e-34
2.7389907e-33
2.7389066e-33
2.7388597e-33
2.7388351e-33
2.7388233e-33
2.7388183e-33
2.7388168e-33
2.7388172e-33
2.7388193e-33
2.7388243e-33
2.7389066e-33
2.7388225e-33
2.7387756e-33
2.738751e-33
2.7387393e-33
2.7387343e-33
2.7387328e-33
2.7387334e-33
2.7387361e-33
2.7387428e-33
2.7388597e-33
2.7387756e-33
2.7387287e-33
2.7387042e-33
2.7386924e-33
2.7386875e-33
2.7386861e-33
2.7386868e-33
2.7386899e-33
2.7386971e-33
2.7388351e-33
2.738751e-33
2.7387042e-33
2.7386796e-33
2.7386679e-33
2.738663e-33
2.7386616e-33
2.7386625e-33
2.7386658e-33
2.7386732e-33
2.7388233e-33
2.7387393e-33
2.7386924e-33
2.7386679e-33
2.7386561e-33
2.7386512e-33
2.7386499e-33
2.7386509e-33
2.7386542e-33
2.7386617e-33
2.7388183e-33
2.7387343e-33
2.7386875e-33
2.738663e-33
2.7386512e-33
2.7386464e-33
2.7386451e-33
2.738646e-33
2.7386494e-33
2.7386569e-33
2.7388168e-33
2.7387328e-33
2.7386861e-33
2.7386616e-33
2.7386499e-33
2.7386451e-33
2.7386438e-33
2.7386448e-33
2.7386482e-33
2.7386557e-33
2.7388172e-33
2.7387334e-33
2.7386868e-33
2.7386625e-33
2.7386509e-33
2.738646e-33
2.7386448e-33
2.7386458e-33
2.7386492e-33
2.7386567e-33
2.7388193e-33
2.7387361e-33
2.7386899e-33
2.7386658e-33
2.7386542e-33
2.7386494e-33
2.7386482e-33
2.7386492e-33
2.7386526e-33
2.7386601e-33
2.7388243e-33
2.7387428e-33
2.7386971e-33
2.7386732e-33
2.7386617e-33
2.7386569e-33
2.7386557e-33
2.7386567e-33
2.7386601e-33
2.7386677e-33
9.7145472e-33
9.7142598e-33
9.7140992e-33
9.7140149e-33
9.7139743e-33
9.7139571e-33
9.7139517e-33
9.7139531e-33
9.7139605e-33
9.7139772e-33
9.7142598e-33
9.7139726e-33
9.713812e-33
9.7137277e-33
9.7136872e-33
9.7136701e-33
9.713665e-33
9.713667e-33
9.7136764e-33
9.713699e-33
9.7140992e-33
9.713812e-33
9.7136514e-33
9.7135672e-33
9.7135267e-33
9.7135097e-33
9.7135049e-33
9.7135076e-33
9.7135182e-33
9.7135428e-33
9.7140149e-33
9.7137277e-33
9.7135672e-33
9.7134829e-33
9.7134425e-33
9.7134256e-33
9.713421e-33
9.7134241e-33
9.7134353e-33
9.7134606e-33
9.7139743e-33
9.7136872e-33
9.7135267e-33
9.7134425e-33
9.7134022e-33
9.7133854e-33
9.7133809e-33
9.7133842e-33
9.7133957e-33
9.7134212e-33
9.7139571e-33
9.7136701e-33
9.7135097e-33
9.7134256e-33
9.7133854e-33
9.7133686e-33
9.7133641e-33
9.7133676e-33
9.7133792e-33
9.7134048e-33
9.7139517e-33
9.713665e-33
9.7135049e-33
9.713421e-33
9.7133809e-33
9.7133641e-33
9.7133598e-33
9.7133632e-33
9.7133749e-33
9.7134005e-33
9.7139531e-33
9.713667e-33
9.7135076e-33
9.7134241e-33
9.7133842e-33
9.7133676e-33
9.7133632e-33
9.7133667e-33
9.7133784e-33
9.7134041e-33
9.7139605e-33
9.7136764e-33
9.7135182e-33
9.7134353e-33
9.7133957e-33
9.7133792e-33
9.7133749e-33
9.7133784e-33
9.7133901e-33
9.7134158e-33
9.7139772e-33
9.713699e-33
9.7135428e-33
9.7134606e-33
9.7134212e-33
9.7134048e-33
9.7134005e-33
9.7134041e-33
9.7134158e-33
9.7134415e-33
3.5035882e-32
3.5034885e-32
3.5034326e-32
3.5034031e-32
3.503389e-32
3.503383e-32
3.5033811e-32
3.5033816e-32
3.5033842e-32
3.5033899e-32
3.5034885e-32
3.5033888e-32
3.5033329e-32
3.5033035e-32
3.5032894e-32
3.5032834e-32
3.5032816e-32
3.5032823e-32
3.5032856e-32
3.5032934e-32
3.5034326e-32
3.5033329e-32
3.503277e-32
3.5032476e-32
3.5032335e-32
3.5032276e-32
3.5032259e-32
3.5032268e-32
3.5032305e-32
3.503239e-32
3.5034031e-32
3.5033035e-32
3.5032476e-32
3.5032182e-32
3.5032041e-32
3.5031982e-32
3.5031966e-32
3.5031977e-32
3.5032017e-32
3.5032104e-32
3.503389e-32
3.5032894e-32
3.5032335e-32
3.5032041e-32
3.5031901e-32
3.5031842e-32
3.5031826e-32
3.5031838e-32
3.5031878e-32
3.5031967e-32
3.503383e-32
3.5032834e-32
3.5032276e-32
3.5031982e-32
3.5031842e-32
3.5031783e-32
3.5031768e-32
3.503178e-32
3.5031821e-32
3.5031909e-32
3.5033811e-32
3.5032816e-32
3.5032259e-32
3.5031966e-32
3.5031826e-32
3.5031768e-32
3.5031753e-32
3.5031765e-32
3.5031806e-32
3.5031895e-32
3.5033816e-32
3.5032823e-32
3.5032268e-32
3.5031977e-32
3.5031838e-32
3.503178e-32
3.5031765e-32
3.5031777e-32
3.5031818e-32
3.5031907e-32
3.5033842e-32
3.5032856e-32
3.5032305e-32
3.5032017e-32
3.5031878e-32
3.5031821e-32
3.5031806e-32
3.5031818e-32
3.5031859e-32
3.5031948e-32
3.5033899e-32
3.5032934e-32
3.503239e-32
3.5032104e-32
3.5031967e-32
3.5031909e-32
3.5031895e-32
3.5031907e-32
3.5031948e-32
3.5032037e-32
1.2847668e-31
1.2847317e-31
1.2847119e-31
1.2847015e-31
1.2846965e-31
1.2846943e-31
1.2846937e-31
1.2846939e-31
1.2846948e-31
1.2846967e-31
1.2847317e-31
1.2846966e-31
1.2846768e-31
1.2846664e-31
1.2846613e-31
1.2846592e-31
1.2846586e-31
1.2846589e-31
1.28466e-31
1.2846628e-31
1.2847119e-31
1.2846768e-31
1.284657e-31
1.2846466e-31
1.2846416e-31
1.2846395e-31
1.2846389e-31
1.2846392e-31
1.2846406e-31
1.2846435e-31
1.2847015e-31
1.2846664e-31
1.2846466e-31
1.2846362e-31
1.2846312e-31
1.2846291e-31
1.2846285e-31
1.2846289e-31
1.2846303e-31
1.2846334e-31
1.2846965e-31
1.2846613e-31
1.2846416e-31
1.2846312e-31
1.2846262e-31
1.2846241e-31
1.2846236e-31
1.284624e-31
1.2846254e-31
1.2846285e-31
1.2846943e-31
1.2846592e-31
1.2846395e-31
1.2846291e-31
1.2846241e-31
1.284622e-31
1.2846215e-31
1.2846219e-31
1.2846234e-31
1.2846265e-31
1.2846937e-31
1.2846586e-31
1.2846389e-31
1.2846285e-31
1.2846236e-31
1.2846215e-31
1.284621e-31
1.2846214e-31
1.2846229e-31
1.284626e-31
1.2846939e-31
1.2846589e-31
1.2846392e-31
1.2846289e-31
1.284624e-31
1.2846219e-31
1.2846214e-31
1.2846218e-31
1.2846233e-31
1.2846264e-31
1.2846948e-31
1.28466e-31
1.2846406e-31
1.2846303e-31
1.2846254e-31
1.2846234e-31
1.2846229e-31
1.2846233e-31
1.2846248e-31
1.2846279e-31
1.2846967e-31
1.2846628e-31
1.2846435e-31
1.2846334e-31
1.2846285e-31
1.2846265e-31
1.284626e-31