/*--------------------------------*- C++ -*----------------------------------*\
| =========                 |                                                 |
| \\      /  F ield         | OpenFOAM: The Open Source CFD Toolbox           |
|  \\    /   O peration     | Version:  dev                                   |
|   \\  /    A nd           | Web:      www.OpenFOAM.org                      |
|    \\/     M anipulation  |                                                 |
\*---------------------------------------------------------------------------*/
FoamFile
{
    version     2.0;
    format      ascii;
    class       volScalarField;
    location    "33";
    object      A_0;
}
// * * * * * * * * * * * * * * * * * * * * * * * * * * * * * * * * * * * * * //

dimensions      [0 0 0 0 1 0 0];

internalField   nonuniform List<scalar> 
10000
(
1.0006347e-41
1.0005803e-41
1.0005526e-41
1.0005385e-41
1.0005318e-41
1.000529e-41
1.0005281e-41
1.0005284e-41
1.0005299e-41
1.000534e-41
1.0005803e-41
1.000526e-41
1.0004982e-41
1.0004841e-41
1.0004775e-41
1.0004747e-41
1.0004738e-41
1.0004742e-41
1.0004759e-41
1.0004808e-41
1.0005526e-41
1.0004982e-41
1.0004704e-41
1.0004564e-41
1.0004497e-41
1.0004469e-41
1.0004461e-41
1.0004465e-41
1.0004484e-41
1.0004536e-41
1.0005385e-41
1.0004841e-41
1.0004564e-41
1.0004423e-41
1.0004357e-41
1.0004329e-41
1.0004321e-41
1.0004326e-41
1.0004346e-41
1.0004398e-41
1.0005318e-41
1.0004775e-41
1.0004497e-41
1.0004357e-41
1.0004291e-41
1.0004263e-41
1.0004255e-41
1.000426e-41
1.000428e-41
1.0004333e-41
1.000529e-41
1.0004747e-41
1.0004469e-41
1.0004329e-41
1.0004263e-41
1.0004236e-41
1.0004228e-41
1.0004233e-41
1.0004253e-41
1.0004306e-41
1.0005281e-41
1.0004738e-41
1.0004461e-41
1.0004321e-41
1.0004255e-41
1.0004228e-41
1.000422e-41
1.0004225e-41
1.0004246e-41
1.0004298e-41
1.0005284e-41
1.0004742e-41
1.0004465e-41
1.0004326e-41
1.000426e-41
1.0004233e-41
1.0004225e-41
1.000423e-41
1.0004251e-41
1.0004304e-41
1.0005299e-41
1.0004759e-41
1.0004484e-41
1.0004346e-41
1.000428e-41
1.0004253e-41
1.0004246e-41
1.0004251e-41
1.0004271e-41
1.0004324e-41
1.000534e-41
1.0004808e-41
1.0004536e-41
1.0004398e-41
1.0004333e-41
1.0004306e-41
1.0004298e-41
1.0004304e-41
1.0004324e-41
1.0004377e-41
4.0545961e-41
4.0543828e-41
4.0542719e-41
4.0542156e-41
4.054189e-41
4.0541778e-41
4.0541742e-41
4.0541751e-41
4.054181e-41
4.054198e-41
4.0543828e-41
4.0541696e-41
4.0540587e-41
4.0540024e-41
4.0539759e-41
4.0539647e-41
4.0539612e-41
4.0539625e-41
4.0539695e-41
4.0539895e-41
4.0542719e-41
4.0540587e-41
4.0539478e-41
4.0538916e-41
4.053865e-41
4.0538539e-41
4.0538506e-41
4.0538523e-41
4.0538598e-41
4.0538809e-41
4.0542156e-41
4.0540024e-41
4.0538916e-41
4.0538354e-41
4.0538088e-41
4.0537978e-41
4.0537946e-41
4.0537964e-41
4.0538044e-41
4.0538258e-41
4.054189e-41
4.0539759e-41
4.053865e-41
4.0538088e-41
4.0537824e-41
4.0537713e-41
4.0537682e-41
4.0537702e-41
4.0537782e-41
4.0537998e-41
4.0541778e-41
4.0539647e-41
4.0538539e-41
4.0537978e-41
4.0537713e-41
4.0537603e-41
4.0537572e-41
4.0537592e-41
4.0537674e-41
4.053789e-41
4.0541742e-41
4.0539612e-41
4.0538506e-41
4.0537946e-41
4.0537682e-41
4.0537572e-41
4.0537542e-41
4.0537562e-41
4.0537644e-41
4.053786e-41
4.0541751e-41
4.0539625e-41
4.0538523e-41
4.0537964e-41
4.0537702e-41
4.0537592e-41
4.0537562e-41
4.0537582e-41
4.0537664e-41
4.0537881e-41
4.054181e-41
4.0539695e-41
4.0538598e-41
4.0538044e-41
4.0537782e-41
4.0537674e-41
4.0537644e-41
4.0537664e-41
4.0537746e-41
4.0537963e-41
4.054198e-41
4.0539895e-41
4.0538809e-41
4.0538258e-41
4.0537998e-41
4.053789e-41
4.053786e-41
4.0537881e-41
4.0537963e-41
4.053818e-41
1.1522351e-40
1.1521763e-40
1.1521455e-40
1.1521298e-40
1.1521224e-40
1.1521193e-40
1.1521183e-40
1.1521185e-40
1.1521202e-40
1.1521249e-40
1.1521763e-40
1.1521175e-40
1.1520867e-40
1.152071e-40
1.1520636e-40
1.1520605e-40
1.1520596e-40
1.1520599e-40
1.1520618e-40
1.1520674e-40
1.1521455e-40
1.1520867e-40
1.1520559e-40
1.1520402e-40
1.1520328e-40
1.1520297e-40
1.1520288e-40
1.1520293e-40
1.1520314e-40
1.1520373e-40
1.1521298e-40
1.152071e-40
1.1520402e-40
1.1520246e-40
1.1520172e-40
1.1520141e-40
1.1520132e-40
1.1520137e-40
1.1520159e-40
1.1520219e-40
1.1521224e-40
1.1520636e-40
1.1520328e-40
1.1520172e-40
1.1520098e-40
1.1520067e-40
1.1520059e-40
1.1520064e-40
1.1520086e-40
1.1520147e-40
1.1521193e-40
1.1520605e-40
1.1520297e-40
1.1520141e-40
1.1520067e-40
1.1520037e-40
1.1520028e-40
1.1520034e-40
1.1520056e-40
1.1520117e-40
1.1521183e-40
1.1520596e-40
1.1520288e-40
1.1520132e-40
1.1520059e-40
1.1520028e-40
1.152002e-40
1.1520025e-40
1.1520048e-40
1.1520108e-40
1.1521185e-40
1.1520599e-40
1.1520293e-40
1.1520137e-40
1.1520064e-40
1.1520034e-40
1.1520025e-40
1.1520031e-40
1.1520054e-40
1.1520114e-40
1.1521202e-40
1.1520618e-40
1.1520314e-40
1.1520159e-40
1.1520086e-40
1.1520056e-40
1.1520048e-40
1.1520054e-40
1.1520076e-40
1.1520137e-40
1.1521249e-40
1.1520674e-40
1.1520373e-40
1.1520219e-40
1.1520147e-40
1.1520117e-40
1.1520108e-40
1.1520114e-40
1.1520137e-40
1.1520197e-40
3.1966415e-40
3.1964833e-40
3.1964e-40
3.1963575e-40
3.1963374e-40
3.1963289e-40
3.1963262e-40
3.1963269e-40
3.1963312e-40
3.1963438e-40
3.1964833e-40
3.1963252e-40
3.1962418e-40
3.1961994e-40
3.1961793e-40
3.1961708e-40
3.1961682e-40
3.1961692e-40
3.1961743e-40
3.1961893e-40
3.1964e-40
3.1962418e-40
3.1961585e-40
3.1961161e-40
3.196096e-40
3.1960876e-40
3.1960851e-40
3.1960864e-40
3.196092e-40
3.1961077e-40
3.1963575e-40
3.1961994e-40
3.1961161e-40
3.1960737e-40
3.1960536e-40
3.1960452e-40
3.1960428e-40
3.1960442e-40
3.1960501e-40
3.1960662e-40
3.1963374e-40
3.1961793e-40
3.196096e-40
3.1960536e-40
3.1960336e-40
3.1960252e-40
3.1960229e-40
3.1960244e-40
3.1960304e-40
3.1960465e-40
3.1963289e-40
3.1961708e-40
3.1960876e-40
3.1960452e-40
3.1960252e-40
3.1960169e-40
3.1960146e-40
3.1960161e-40
3.1960222e-40
3.1960383e-40
3.1963262e-40
3.1961682e-40
3.1960851e-40
3.1960428e-40
3.1960229e-40
3.1960146e-40
3.1960123e-40
3.1960138e-40
3.1960199e-40
3.1960361e-40
3.1963269e-40
3.1961692e-40
3.1960864e-40
3.1960442e-40
3.1960244e-40
3.1960161e-40
3.1960138e-40
3.1960154e-40
3.1960215e-40
3.1960376e-40
3.1963312e-40
3.1961743e-40
3.196092e-40
3.1960501e-40
3.1960304e-40
3.1960222e-40
3.1960199e-40
3.1960215e-40
3.1960276e-40
3.1960437e-40
3.1963438e-40
3.1961893e-40
3.1961077e-40
3.1960662e-40
3.1960465e-40
3.1960383e-40
3.1960361e-40
3.1960376e-40
3.1960437e-40
3.1960599e-40
8.9681924e-40
8.9677621e-40
8.9675345e-40
8.9674182e-40
8.9673631e-40
8.9673397e-40
8.9673323e-40
8.9673342e-40
8.9673459e-40
8.9673793e-40
8.9677621e-40
8.9673321e-40
8.9671045e-40
8.9669882e-40
8.9669331e-40
8.9669099e-40
8.9669028e-40
8.9669055e-40
8.9669194e-40
8.9669594e-40
8.9675345e-40
8.9671045e-40
8.9668769e-40
8.9667607e-40
8.9667056e-40
8.9666825e-40
8.9666758e-40
8.9666791e-40
8.9666945e-40
8.9667367e-40
8.9674182e-40
8.9669882e-40
8.9667607e-40
8.9666445e-40
8.9665895e-40
8.9665666e-40
8.96656e-40
8.9665638e-40
8.9665799e-40
8.9666228e-40
8.9673631e-40
8.9669331e-40
8.9667056e-40
8.9665895e-40
8.9665346e-40
8.9665117e-40
8.9665053e-40
8.9665094e-40
8.9665257e-40
8.966569e-40
8.9673397e-40
8.9669099e-40
8.9666825e-40
8.9665666e-40
8.9665117e-40
8.9664889e-40
8.9664825e-40
8.9664867e-40
8.9665032e-40
8.9665466e-40
8.9673323e-40
8.9669028e-40
8.9666758e-40
8.96656e-40
8.9665053e-40
8.9664825e-40
8.9664762e-40
8.9664805e-40
8.966497e-40
8.9665404e-40
8.9673342e-40
8.9669055e-40
8.9666791e-40
8.9665638e-40
8.9665094e-40
8.9664867e-40
8.9664805e-40
8.9664847e-40
8.9665013e-40
8.9665447e-40
8.9673459e-40
8.9669194e-40
8.9666945e-40
8.9665799e-40
8.9665257e-40
8.9665032e-40
8.966497e-40
8.9665013e-40
8.9665179e-40
8.9665613e-40
8.9673793e-40
8.9669594e-40
8.9667367e-40
8.9666228e-40
8.966569e-40
8.9665466e-40
8.9665404e-40
8.9665447e-40
8.9665613e-40
8.9666047e-40
2.5562668e-39
2.5561479e-39
2.5560848e-39
2.5560525e-39
2.5560371e-39
2.5560306e-39
2.5560286e-39
2.5560291e-39
2.5560323e-39
2.5560413e-39
2.5561479e-39
2.5560292e-39
2.555966e-39
2.5559337e-39
2.5559184e-39
2.5559119e-39
2.5559099e-39
2.5559107e-39
2.5559145e-39
2.5559254e-39
2.5560848e-39
2.555966e-39
2.5559029e-39
2.5558706e-39
2.5558553e-39
2.5558488e-39
2.555847e-39
2.5558479e-39
2.5558521e-39
2.5558636e-39
2.5560525e-39
2.5559337e-39
2.5558706e-39
2.5558383e-39
2.555823e-39
2.5558166e-39
2.5558148e-39
2.5558158e-39
2.5558203e-39
2.555832e-39
2.5560371e-39
2.5559184e-39
2.5558553e-39
2.555823e-39
2.5558077e-39
2.5558013e-39
2.5557995e-39
2.5558007e-39
2.5558052e-39
2.555817e-39
2.5560306e-39
2.5559119e-39
2.5558488e-39
2.5558166e-39
2.5558013e-39
2.555795e-39
2.5557932e-39
2.5557944e-39
2.5557989e-39
2.5558107e-39
2.5560286e-39
2.5559099e-39
2.555847e-39
2.5558148e-39
2.5557995e-39
2.5557932e-39
2.5557915e-39
2.5557926e-39
2.5557972e-39
2.555809e-39
2.5560291e-39
2.5559107e-39
2.5558479e-39
2.5558158e-39
2.5558007e-39
2.5557944e-39
2.5557926e-39
2.5557938e-39
2.5557984e-39
2.5558102e-39
2.5560323e-39
2.5559145e-39
2.5558521e-39
2.5558203e-39
2.5558052e-39
2.5557989e-39
2.5557972e-39
2.5557984e-39
2.555803e-39
2.5558148e-39
2.5560413e-39
2.5559254e-39
2.5558636e-39
2.555832e-39
2.555817e-39
2.5558107e-39
2.555809e-39
2.5558102e-39
2.5558148e-39
2.5558267e-39
7.4078017e-39
7.4074682e-39
7.4072901e-39
7.4071988e-39
7.4071554e-39
7.407137e-39
7.4071312e-39
7.4071327e-39
7.4071416e-39
7.4071663e-39
7.4074682e-39
7.4071349e-39
7.4069568e-39
7.4068656e-39
7.4068222e-39
7.4068039e-39
7.4067983e-39
7.4068004e-39
7.4068111e-39
7.4068411e-39
7.4072901e-39
7.4069568e-39
7.4067789e-39
7.4066876e-39
7.4066443e-39
7.4066261e-39
7.4066208e-39
7.4066234e-39
7.4066353e-39
7.4066671e-39
7.4071988e-39
7.4068656e-39
7.4066876e-39
7.4065964e-39
7.4065531e-39
7.406535e-39
7.4065298e-39
7.4065329e-39
7.4065453e-39
7.4065777e-39
7.4071554e-39
7.4068222e-39
7.4066443e-39
7.4065531e-39
7.4065099e-39
7.4064918e-39
7.4064868e-39
7.40649e-39
7.4065027e-39
7.4065354e-39
7.407137e-39
7.4068039e-39
7.4066261e-39
7.406535e-39
7.4064918e-39
7.4064738e-39
7.4064689e-39
7.4064722e-39
7.406485e-39
7.4065177e-39
7.4071312e-39
7.4067983e-39
7.4066208e-39
7.4065298e-39
7.4064868e-39
7.4064689e-39
7.4064639e-39
7.4064673e-39
7.4064801e-39
7.4065129e-39
7.4071327e-39
7.4068004e-39
7.4066234e-39
7.4065329e-39
7.40649e-39
7.4064722e-39
7.4064673e-39
7.4064706e-39
7.4064835e-39
7.4065163e-39
7.4071416e-39
7.4068111e-39
7.4066353e-39
7.4065453e-39
7.4065027e-39
7.406485e-39
7.4064801e-39
7.4064835e-39
7.4064964e-39
7.4065291e-39
7.4071663e-39
7.4068411e-39
7.4066671e-39
7.4065777e-39
7.4065354e-39
7.4065177e-39
7.4065129e-39
7.4065163e-39
7.4065291e-39
7.4065619e-39
2.1828181e-38
2.1827229e-38
2.1826719e-38
2.1826457e-38
2.1826332e-38
2.1826279e-38
2.1826263e-38
2.1826267e-38
2.1826292e-38
2.1826361e-38
2.1827229e-38
2.1826278e-38
2.1825768e-38
2.1825506e-38
2.1825382e-38
2.1825329e-38
2.1825313e-38
2.1825319e-38
2.1825349e-38
2.1825434e-38
2.1826719e-38
2.1825768e-38
2.1825258e-38
2.1824996e-38
2.1824872e-38
2.182482e-38
2.1824804e-38
2.1824812e-38
2.1824846e-38
2.1824935e-38
2.1826457e-38
2.1825506e-38
2.1824996e-38
2.1824734e-38
2.182461e-38
2.1824558e-38
2.1824543e-38
2.1824552e-38
2.1824587e-38
2.1824679e-38
2.1826332e-38
2.1825382e-38
2.1824872e-38
2.182461e-38
2.1824486e-38
2.1824434e-38
2.182442e-38
2.1824429e-38
2.1824465e-38
2.1824557e-38
2.1826279e-38
2.1825329e-38
2.182482e-38
2.1824558e-38
2.1824434e-38
2.1824382e-38
2.1824368e-38
2.1824378e-38
2.1824414e-38
2.1824506e-38
2.1826263e-38
2.1825313e-38
2.1824804e-38
2.1824543e-38
2.182442e-38
2.1824368e-38
2.1824354e-38
2.1824364e-38
2.18244e-38
2.1824493e-38
2.1826267e-38
2.1825319e-38
2.1824812e-38
2.1824552e-38
2.1824429e-38
2.1824378e-38
2.1824364e-38
2.1824373e-38
2.182441e-38
2.1824502e-38
2.1826292e-38
2.1825349e-38
2.1824846e-38
2.1824587e-38
2.1824465e-38
2.1824414e-38
2.18244e-38
2.182441e-38
2.1824447e-38
2.1824539e-38
2.1826361e-38
2.1825434e-38
2.1824935e-38
2.1824679e-38
2.1824557e-38
2.1824506e-38
2.1824493e-38
2.1824502e-38
2.1824539e-38
2.1824631e-38
6.540667e-38
6.5403911e-38
6.5402426e-38
6.5401661e-38
6.5401296e-38
6.5401142e-38
6.5401093e-38
6.5401105e-38
6.5401178e-38
6.5401373e-38
6.5403911e-38
6.5401154e-38
6.5399668e-38
6.5398904e-38
6.539854e-38
6.5398386e-38
6.5398339e-38
6.5398356e-38
6.5398445e-38
6.5398686e-38
6.5402426e-38
6.5399668e-38
6.5398184e-38
6.5397419e-38
6.5397055e-38
6.5396903e-38
6.5396858e-38
6.539688e-38
6.5396978e-38
6.5397235e-38
6.5401661e-38
6.5398904e-38
6.5397419e-38
6.5396655e-38
6.5396291e-38
6.5396139e-38
6.5396096e-38
6.5396122e-38
6.5396225e-38
6.5396486e-38
6.5401296e-38
6.539854e-38
6.5397055e-38
6.5396291e-38
6.5395929e-38
6.5395777e-38
6.5395735e-38
6.5395762e-38
6.5395867e-38
6.5396131e-38
6.5401142e-38
6.5398386e-38
6.5396903e-38
6.5396139e-38
6.5395777e-38
6.5395626e-38
6.5395584e-38
6.5395612e-38
6.5395718e-38
6.5395983e-38
6.5401093e-38
6.5398339e-38
6.5396858e-38
6.5396096e-38
6.5395735e-38
6.5395584e-38
6.5395543e-38
6.5395571e-38
6.5395678e-38
6.5395943e-38
6.5401105e-38
6.5398356e-38
6.539688e-38
6.5396122e-38
6.5395762e-38
6.5395612e-38
6.5395571e-38
6.53956e-38
6.5395707e-38
6.5395971e-38
6.5401178e-38
6.5398445e-38
6.5396978e-38
6.5396225e-38
6.5395867e-38
6.5395718e-38
6.5395678e-38
6.5395707e-38
6.5395813e-38
6.5396078e-38
6.5401373e-38
6.5398686e-38
6.5397235e-38
6.5396486e-38
6.5396131e-38
6.5395983e-38
6.5395943e-38
6.5395971e-38
6.5396078e-38
6.5396343e-38
1.9930892e-37
1.9930079e-37
1.9929639e-37
1.9929412e-37
1.9929304e-37
1.9929258e-37
1.9929244e-37
1.9929247e-37
1.9929269e-37
1.9929325e-37
1.9930079e-37
1.9929266e-37
1.9928827e-37
1.99286e-37
1.9928492e-37
1.9928446e-37
1.9928432e-37
1.9928437e-37
1.9928463e-37
1.9928533e-37
1.9929639e-37
1.9928827e-37
1.9928387e-37
1.992816e-37
1.9928052e-37
1.9928007e-37
1.9927994e-37
1.9928e-37
1.9928029e-37
1.9928104e-37
1.9929412e-37
1.99286e-37
1.992816e-37
1.9927934e-37
1.9927826e-37
1.9927781e-37
1.9927768e-37
1.9927775e-37
1.9927806e-37
1.9927882e-37
1.9929304e-37
1.9928492e-37
1.9928052e-37
1.9927826e-37
1.9927718e-37
1.9927673e-37
1.9927661e-37
1.9927669e-37
1.99277e-37
1.9927777e-37
1.9929258e-37
1.9928446e-37
1.9928007e-37
1.9927781e-37
1.9927673e-37
1.9927628e-37
1.9927616e-37
1.9927624e-37
1.9927656e-37
1.9927733e-37
1.9929244e-37
1.9928432e-37
1.9927994e-37
1.9927768e-37
1.9927661e-37
1.9927616e-37
1.9927604e-37
1.9927612e-37
1.9927644e-37
1.9927721e-37
1.9929247e-37
1.9928437e-37
1.9928e-37
1.9927775e-37
1.9927669e-37
1.9927624e-37
1.9927612e-37
1.9927621e-37
1.9927652e-37
1.9927729e-37
1.9929269e-37
1.9928463e-37
1.9928029e-37
1.9927806e-37
1.99277e-37
1.9927656e-37
1.9927644e-37
1.9927652e-37
1.9927684e-37
1.9927761e-37
1.9929325e-37
1.9928533e-37
1.9928104e-37
1.9927882e-37
1.9927777e-37
1.9927733e-37
1.9927721e-37
1.9927729e-37
1.9927761e-37
1.9927838e-37
6.1766198e-37
6.1763761e-37
6.1762439e-37
6.1761755e-37
6.1761428e-37
6.176129e-37
6.1761246e-37
6.1761257e-37
6.176132e-37
6.1761485e-37
6.1763761e-37
6.1761326e-37
6.1760004e-37
6.175932e-37
6.1758993e-37
6.1758856e-37
6.1758814e-37
6.1758829e-37
6.1758907e-37
6.1759114e-37
6.1762439e-37
6.1760004e-37
6.1758681e-37
6.1757998e-37
6.1757672e-37
6.1757535e-37
6.1757495e-37
6.1757515e-37
6.1757602e-37
6.1757823e-37
6.1761755e-37
6.175932e-37
6.1757998e-37
6.1757314e-37
6.1756989e-37
6.1756852e-37
6.1756814e-37
6.1756837e-37
6.1756929e-37
6.1757155e-37
6.1761428e-37
6.1758993e-37
6.1757672e-37
6.1756989e-37
6.1756664e-37
6.1756528e-37
6.1756491e-37
6.1756515e-37
6.1756608e-37
6.1756836e-37
6.176129e-37
6.1758856e-37
6.1757535e-37
6.1756852e-37
6.1756528e-37
6.1756393e-37
6.1756356e-37
6.1756381e-37
6.1756475e-37
6.1756704e-37
6.1761246e-37
6.1758814e-37
6.1757495e-37
6.1756814e-37
6.1756491e-37
6.1756356e-37
6.1756319e-37
6.1756345e-37
6.1756439e-37
6.1756668e-37
6.1761257e-37
6.1758829e-37
6.1757515e-37
6.1756837e-37
6.1756515e-37
6.1756381e-37
6.1756345e-37
6.175637e-37
6.1756465e-37
6.1756694e-37
6.176132e-37
6.1758907e-37
6.1757602e-37
6.1756929e-37
6.1756608e-37
6.1756475e-37
6.1756439e-37
6.1756465e-37
6.175656e-37
6.1756789e-37
6.1761485e-37
6.1759114e-37
6.1757823e-37
6.1757155e-37
6.1756836e-37
6.1756704e-37
6.1756668e-37
6.1756694e-37
6.1756789e-37
6.1757018e-37
1.9467451e-36
1.9466709e-36
1.9466305e-36
1.9466095e-36
1.9465995e-36
1.9465952e-36
1.9465939e-36
1.9465942e-36
1.9465962e-36
1.9466011e-36
1.9466709e-36
1.9465967e-36
1.9465563e-36
1.9465353e-36
1.9465253e-36
1.9465211e-36
1.9465198e-36
1.9465203e-36
1.9465227e-36
1.9465289e-36
1.9466305e-36
1.9465563e-36
1.9465159e-36
1.9464949e-36
1.9464849e-36
1.9464807e-36
1.9464795e-36
1.9464801e-36
1.9464828e-36
1.9464894e-36
1.9466095e-36
1.9465353e-36
1.9464949e-36
1.946474e-36
1.946464e-36
1.9464598e-36
1.9464586e-36
1.9464594e-36
1.9464621e-36
1.946469e-36
1.9465995e-36
1.9465253e-36
1.9464849e-36
1.946464e-36
1.946454e-36
1.9464499e-36
1.9464487e-36
1.9464495e-36
1.9464523e-36
1.9464592e-36
1.9465952e-36
1.9465211e-36
1.9464807e-36
1.9464598e-36
1.9464499e-36
1.9464457e-36
1.9464446e-36
1.9464454e-36
1.9464482e-36
1.9464551e-36
1.9465939e-36
1.9465198e-36
1.9464795e-36
1.9464586e-36
1.9464487e-36
1.9464446e-36
1.9464435e-36
1.9464442e-36
1.9464471e-36
1.946454e-36
1.9465942e-36
1.9465203e-36
1.9464801e-36
1.9464594e-36
1.9464495e-36
1.9464454e-36
1.9464442e-36
1.946445e-36
1.9464479e-36
1.9464549e-36
1.9465962e-36
1.9465227e-36
1.9464828e-36
1.9464621e-36
1.9464523e-36
1.9464482e-36
1.9464471e-36
1.9464479e-36
1.9464508e-36
1.9464578e-36
1.9466011e-36
1.9465289e-36
1.9464894e-36
1.946469e-36
1.9464592e-36
1.9464551e-36
1.946454e-36
1.9464549e-36
1.9464578e-36
1.9464647e-36
6.2403845e-36
6.2401547e-36
6.240029e-36
6.2399637e-36
6.2399325e-36
6.2399192e-36
6.239915e-36
6.2399161e-36
6.239922e-36
6.2399369e-36
6.2401547e-36
6.239925e-36
6.2397993e-36
6.239734e-36
6.2397028e-36
6.2396896e-36
6.2396856e-36
6.2396872e-36
6.2396945e-36
6.2397136e-36
6.240029e-36
6.2397993e-36
6.2396736e-36
6.2396083e-36
6.2395772e-36
6.2395641e-36
6.2395603e-36
6.2395623e-36
6.2395705e-36
6.2395909e-36
6.2399637e-36
6.239734e-36
6.2396083e-36
6.2395431e-36
6.239512e-36
6.239499e-36
6.2394953e-36
6.2394976e-36
6.2395062e-36
6.2395272e-36
6.2399325e-36
6.2397028e-36
6.2395772e-36
6.239512e-36
6.2394809e-36
6.2394679e-36
6.2394644e-36
6.2394668e-36
6.2394756e-36
6.2394968e-36
6.2399192e-36
6.2396896e-36
6.2395641e-36
6.239499e-36
6.2394679e-36
6.239455e-36
6.2394515e-36
6.2394539e-36
6.2394629e-36
6.2394841e-36
6.239915e-36
6.2396856e-36
6.2395603e-36
6.2394953e-36
6.2394644e-36
6.2394515e-36
6.239448e-36
6.2394505e-36
6.2394595e-36
6.2394807e-36
6.2399161e-36
6.2396872e-36
6.2395623e-36
6.2394976e-36
6.2394668e-36
6.2394539e-36
6.2394505e-36
6.239453e-36
6.239462e-36
6.2394832e-36
6.239922e-36
6.2396945e-36
6.2395705e-36
6.2395062e-36
6.2394756e-36
6.2394629e-36
6.2394595e-36
6.239462e-36
6.239471e-36
6.2394922e-36
6.2399369e-36
6.2397136e-36
6.2395909e-36
6.2395272e-36
6.2394968e-36
6.2394841e-36
6.2394807e-36
6.2394832e-36
6.2394922e-36
6.2395135e-36
2.0345228e-35
2.0344504e-35
2.0344107e-35
2.03439e-35
2.0343801e-35
2.0343759e-35
2.0343746e-35
2.034375e-35
2.0343768e-35
2.0343814e-35
2.0344504e-35
2.0343781e-35
2.0343384e-35
2.0343177e-35
2.0343079e-35
2.0343037e-35
2.0343024e-35
2.0343029e-35
2.0343052e-35
2.0343112e-35
2.0344107e-35
2.0343384e-35
2.0342987e-35
2.034278e-35
2.0342682e-35
2.034264e-35
2.0342628e-35
2.0342634e-35
2.034266e-35
2.0342724e-35
2.03439e-35
2.0343177e-35
2.034278e-35
2.0342574e-35
2.0342475e-35
2.0342434e-35
2.0342423e-35
2.034243e-35
2.0342457e-35
2.0342522e-35
2.0343801e-35
2.0343079e-35
2.0342682e-35
2.0342475e-35
2.0342377e-35
2.0342336e-35
2.0342324e-35
2.0342332e-35
2.034236e-35
2.0342426e-35
2.0343759e-35
2.0343037e-35
2.034264e-35
2.0342434e-35
2.0342336e-35
2.0342295e-35
2.0342284e-35
2.0342291e-35
2.034232e-35
2.0342386e-35
2.0343746e-35
2.0343024e-35
2.0342628e-35
2.0342423e-35
2.0342324e-35
2.0342284e-35
2.0342273e-35
2.0342281e-35
2.0342309e-35
2.0342375e-35
2.034375e-35
2.0343029e-35
2.0342634e-35
2.034243e-35
2.0342332e-35
2.0342291e-35
2.0342281e-35
2.0342289e-35
2.0342317e-35
2.0342383e-35
2.0343768e-35
2.0343052e-35
2.034266e-35
2.0342457e-35
2.034236e-35
2.034232e-35
2.0342309e-35
2.0342317e-35
2.0342346e-35
2.0342412e-35
2.0343814e-35
2.0343112e-35
2.0342724e-35
2.0342522e-35
2.0342426e-35
2.0342386e-35
2.0342375e-35
2.0342383e-35
2.0342412e-35
2.0342478e-35
6.7462497e-35
6.7460183e-35
6.7458907e-35
6.7458242e-35
6.7457923e-35
6.7457788e-35
6.7457745e-35
6.7457756e-35
6.7457815e-35
6.745796e-35
6.7460183e-35
6.7457869e-35
6.7456593e-35
6.7455928e-35
6.745561e-35
6.7455475e-35
6.7455435e-35
6.745545e-35
6.7455524e-35
6.7455713e-35
6.7458907e-35
6.7456593e-35
6.7455318e-35
6.7454653e-35
6.7454335e-35
6.7454201e-35
6.7454163e-35
6.7454183e-35
6.7454267e-35
6.7454469e-35
6.7458242e-35
6.7455928e-35
6.7454653e-35
6.7453989e-35
6.7453671e-35
6.7453538e-35
6.7453501e-35
6.7453525e-35
6.7453613e-35
6.745382e-35
6.7457923e-35
6.745561e-35
6.7454335e-35
6.7453671e-35
6.7453354e-35
6.7453222e-35
6.7453186e-35
6.745321e-35
6.7453301e-35
6.745351e-35
6.7457788e-35
6.7455475e-35
6.7454201e-35
6.7453538e-35
6.7453222e-35
6.745309e-35
6.7453054e-35
6.745308e-35
6.7453171e-35
6.7453381e-35
6.7457745e-35
6.7455435e-35
6.7454163e-35
6.7453501e-35
6.7453186e-35
6.7453054e-35
6.7453019e-35
6.7453045e-35
6.7453136e-35
6.7453347e-35
6.7457756e-35
6.745545e-35
6.7454183e-35
6.7453525e-35
6.745321e-35
6.745308e-35
6.7453045e-35
6.7453071e-35
6.7453162e-35
6.7453373e-35
6.7457815e-35
6.7455524e-35
6.7454267e-35
6.7453613e-35
6.7453301e-35
6.7453171e-35
6.7453136e-35
6.7453162e-35
6.7453254e-35
6.7453465e-35
6.745796e-35
6.7455713e-35
6.7454469e-35
6.745382e-35
6.745351e-35
6.7453381e-35
6.7453347e-35
6.7453373e-35
6.7453465e-35
6.7453675e-35
2.2751243e-34
2.275049e-34
2.2750073e-34
2.2749856e-34
2.2749751e-34
2.2749707e-34
2.2749693e-34
2.2749697e-34
2.2749716e-34
2.2749762e-34
2.275049e-34
2.2749737e-34
2.2749321e-34
2.2749103e-34
2.2748999e-34
2.2748955e-34
2.2748942e-34
2.2748947e-34
2.2748971e-34
2.2749032e-34
2.2750073e-34
2.2749321e-34
2.2748904e-34
2.2748687e-34
2.2748583e-34
2.2748539e-34
2.2748527e-34
2.2748533e-34
2.2748561e-34
2.2748626e-34
2.2749856e-34
2.2749103e-34
2.2748687e-34
2.274847e-34
2.2748366e-34
2.2748322e-34
2.274831e-34
2.2748318e-34
2.2748347e-34
2.2748414e-34
2.2749751e-34
2.2748999e-34
2.2748583e-34
2.2748366e-34
2.2748262e-34
2.2748219e-34
2.2748207e-34
2.2748215e-34
2.2748245e-34
2.2748312e-34
2.2749707e-34
2.2748955e-34
2.2748539e-34
2.2748322e-34
2.2748219e-34
2.2748175e-34
2.2748164e-34
2.2748172e-34
2.2748202e-34
2.274827e-34
2.2749693e-34
2.2748942e-34
2.2748527e-34
2.274831e-34
2.2748207e-34
2.2748164e-34
2.2748152e-34
2.2748161e-34
2.2748191e-34
2.2748259e-34
2.2749697e-34
2.2748947e-34
2.2748533e-34
2.2748318e-34
2.2748215e-34
2.2748172e-34
2.2748161e-34
2.2748169e-34
2.2748199e-34
2.2748268e-34
2.2749716e-34
2.2748971e-34
2.2748561e-34
2.2748347e-34
2.2748245e-34
2.2748202e-34
2.2748191e-34
2.2748199e-34
2.2748229e-34
2.2748298e-34
2.2749762e-34
2.2749032e-34
2.2748626e-34
2.2748414e-34
2.2748312e-34
2.274827e-34
2.2748259e-34
2.2748268e-34
2.2748298e-34
2.2748366e-34
7.8033143e-34
7.8030654e-34
7.8029272e-34
7.8028549e-34
7.8028202e-34
7.8028055e-34
7.8028008e-34
7.802802e-34
7.8028084e-34
7.8028234e-34
7.8030654e-34
7.8028166e-34
7.8026784e-34
7.8026061e-34
7.8025715e-34
7.8025568e-34
7.8025524e-34
7.8025542e-34
7.8025622e-34
7.802582e-34
7.8029272e-34
7.8026784e-34
7.8025403e-34
7.802468e-34
7.8024334e-34
7.8024188e-34
7.8024147e-34
7.802417e-34
7.802426e-34
7.8024475e-34
7.8028549e-34
7.8026061e-34
7.802468e-34
7.8023958e-34
7.8023612e-34
7.8023467e-34
7.8023428e-34
7.8023454e-34
7.8023549e-34
7.802377e-34
7.8028202e-34
7.8025715e-34
7.8024334e-34
7.8023612e-34
7.8023267e-34
7.8023123e-34
7.8023084e-34
7.8023112e-34
7.802321e-34
7.8023432e-34
7.8028055e-34
7.8025568e-34
7.8024188e-34
7.8023467e-34
7.8023123e-34
7.8022979e-34
7.8022941e-34
7.8022969e-34
7.8023068e-34
7.8023292e-34
7.8028008e-34
7.8025524e-34
7.8024147e-34
7.8023428e-34
7.8023084e-34
7.8022941e-34
7.8022903e-34
7.8022932e-34
7.8023031e-34
7.8023255e-34
7.802802e-34
7.8025542e-34
7.802417e-34
7.8023454e-34
7.8023112e-34
7.8022969e-34
7.8022932e-34
7.8022961e-34
7.8023061e-34
7.8023285e-34
7.8028084e-34
7.8025622e-34
7.802426e-34
7.8023549e-34
7.802321e-34
7.8023068e-34
7.8023031e-34
7.8023061e-34
7.802316e-34
7.8023384e-34
7.8028234e-34
7.802582e-34
7.8024475e-34
7.802377e-34
7.8023432e-34
7.8023292e-34
7.8023255e-34
7.8023285e-34
7.8023384e-34
7.8023609e-34
2.7218658e-33
2.7217822e-33
2.7217356e-33
2.7217112e-33
2.7216994e-33
2.7216944e-33
2.7216929e-33
2.7216933e-33
2.7216954e-33
2.7217004e-33
2.7217822e-33
2.7216986e-33
2.721652e-33
2.7216276e-33
2.7216158e-33
2.7216109e-33
2.7216094e-33
2.72161e-33
2.7216127e-33
2.7216193e-33
2.7217356e-33
2.721652e-33
2.7216054e-33
2.721581e-33
2.7215693e-33
2.7215644e-33
2.721563e-33
2.7215637e-33
2.7215668e-33
2.721574e-33
2.7217112e-33
2.7216276e-33
2.721581e-33
2.7215566e-33
2.7215449e-33
2.72154e-33
2.7215387e-33
2.7215396e-33
2.7215428e-33
2.7215502e-33
2.7216994e-33
2.7216158e-33
2.7215693e-33
2.7215449e-33
2.7215332e-33
2.7215284e-33
2.7215271e-33
2.721528e-33
2.7215313e-33
2.7215388e-33
2.7216944e-33
2.7216109e-33
2.7215644e-33
2.72154e-33
2.7215284e-33
2.7215235e-33
2.7215222e-33
2.7215232e-33
2.7215265e-33
2.721534e-33
2.7216929e-33
2.7216094e-33
2.721563e-33
2.7215387e-33
2.7215271e-33
2.7215222e-33
2.7215209e-33
2.7215219e-33
2.7215253e-33
2.7215328e-33
2.7216933e-33
2.72161e-33
2.7215637e-33
2.7215396e-33
2.721528e-33
2.7215232e-33
2.7215219e-33
2.7215229e-33
2.7215263e-33
2.7215338e-33
2.7216954e-33
2.7216127e-33
2.7215668e-33
2.7215428e-33
2.7215313e-33
2.7215265e-33
2.7215253e-33
2.7215263e-33
2.7215297e-33
2.7215372e-33
2.7217004e-33
2.7216193e-33
2.721574e-33
2.7215502e-33
2.7215388e-33
2.721534e-33
2.7215328e-33
2.7215338e-33
2.7215372e-33
2.7215447e-33
9.6548148e-33
9.6545292e-33
9.6543695e-33
9.6542857e-33
9.6542454e-33
9.6542283e-33
9.6542229e-33
9.6542243e-33
9.6542316e-33
9.6542483e-33
9.6545292e-33
9.6542437e-33
9.654084e-33
9.6540002e-33
9.65396e-33
9.653943e-33
9.6539379e-33
9.6539399e-33
9.6539492e-33
9.6539717e-33
9.6543695e-33
9.654084e-33
9.6539244e-33
9.6538406e-33
9.6538004e-33
9.6537835e-33
9.6537788e-33
9.6537815e-33
9.653792e-33
9.6538164e-33
9.6542857e-33
9.6540002e-33
9.6538406e-33
9.6537569e-33
9.6537168e-33
9.6537e-33
9.6536954e-33
9.6536985e-33
9.6537096e-33
9.6537347e-33
9.6542454e-33
9.65396e-33
9.6538004e-33
9.6537168e-33
9.6536767e-33
9.6536599e-33
9.6536555e-33
9.6536588e-33
9.6536702e-33
9.6536956e-33
9.6542283e-33
9.653943e-33
9.6537835e-33
9.6537e-33
9.6536599e-33
9.6536433e-33
9.6536389e-33
9.6536422e-33
9.6536538e-33
9.6536792e-33
9.6542229e-33
9.6539379e-33
9.6537788e-33
9.6536954e-33
9.6536555e-33
9.6536389e-33
9.6536345e-33
9.6536379e-33
9.6536495e-33
9.653675e-33
9.6542243e-33
9.6539399e-33
9.6537815e-33
9.6536985e-33
9.6536588e-33
9.6536422e-33
9.6536379e-33
9.6536414e-33
9.653653e-33
9.6536785e-33
9.6542316e-33
9.6539492e-33
9.653792e-33
9.6537096e-33
9.6536702e-33
9.6536538e-33
9.6536495e-33
9.653653e-33
9.6536647e-33
9.6536902e-33
9.6542483e-33
9.6539717e-33
9.6538164e-33
9.6537347e-33
9.6536956e-33
9.6536792e-33
9.653675e-33
9.6536785e-33
9.6536902e-33
9.6537157e-33
3.4824117e-32
3.4823126e-32
3.482257e-32
3.4822278e-32
3.4822137e-32
3.4822077e-32
3.4822059e-32
3.4822064e-32
3.4822089e-32
3.4822146e-32
3.4823126e-32
3.4822135e-32
3.4821579e-32
3.4821287e-32
3.4821147e-32
3.4821087e-32
3.4821069e-32
3.4821077e-32
3.4821109e-32
3.4821187e-32
3.482257e-32
3.4821579e-32
3.4821024e-32
3.4820731e-32
3.4820591e-32
3.4820532e-32
3.4820515e-32
3.4820525e-32
3.4820562e-32
3.4820646e-32
3.4822278e-32
3.4821287e-32
3.4820731e-32
3.4820439e-32
3.4820299e-32
3.4820241e-32
3.4820225e-32
3.4820236e-32
3.4820275e-32
3.4820362e-32
3.4822137e-32
3.4821147e-32
3.4820591e-32
3.4820299e-32
3.4820159e-32
3.4820101e-32
3.4820085e-32
3.4820097e-32
3.4820137e-32
3.4820225e-32
3.4822077e-32
3.4821087e-32
3.4820532e-32
3.4820241e-32
3.4820101e-32
3.4820043e-32
3.4820027e-32
3.4820039e-32
3.482008e-32
3.4820168e-32
3.4822059e-32
3.4821069e-32
3.4820515e-32
3.4820225e-32
3.4820085e-32
3.4820027e-32
3.4820012e-32
3.4820024e-32
3.4820065e-32
3.4820153e-32
3.4822064e-32
3.4821077e-32
3.4820525e-32
3.4820236e-32
3.4820097e-32
3.4820039e-32
3.4820024e-32
3.4820037e-32
3.4820077e-32
3.4820166e-32
3.4822089e-32
3.4821109e-32
3.4820562e-32
3.4820275e-32
3.4820137e-32
3.482008e-32
3.4820065e-32
3.4820077e-32
3.4820118e-32
3.4820207e-32
3.4822146e-32
3.4821187e-32
3.4820646e-32
3.4820362e-32
3.4820225e-32
3.4820168e-32
3.4820153e-32
3.4820166e-32
3.4820207e-32
3.4820295e-32
1.277137e-31
1.2771021e-31
1.2770824e-31
1.277072e-31
1.277067e-31
1.2770649e-31
1.2770643e-31
1.2770644e-31
1.2770653e-31
1.2770673e-31
1.2771021e-31
1.2770671e-31
1.2770475e-31
1.2770371e-31
1.2770321e-31
1.27703e-31
1.2770294e-31
1.2770296e-31
1.2770308e-31
1.2770335e-31
1.2770824e-31
1.2770475e-31
1.2770278e-31
1.2770174e-31
1.2770125e-31
1.2770104e-31
1.2770098e-31
1.2770101e-31
1.2770114e-31
1.2770144e-31
1.277072e-31
1.2770371e-31
1.2770174e-31
1.2770071e-31
1.2770021e-31
1.277e-31
1.2769995e-31
1.2769999e-31
1.2770013e-31
1.2770043e-31
1.277067e-31
1.2770321e-31
1.2770125e-31
1.2770021e-31
1.2769972e-31
1.2769951e-31
1.2769945e-31
1.276995e-31
1.2769964e-31
1.2769995e-31
1.2770649e-31
1.27703e-31
1.2770104e-31
1.277e-31
1.2769951e-31
1.276993e-31
1.2769925e-31
1.2769929e-31
1.2769944e-31
1.2769975e-31
1.2770643e-31
1.2770294e-31
1.2770098e-31
1.2769995e-31
1.2769945e-31
1.2769925e-31
1.276992e-31
1.2769924e-31
1.2769938e-31
1.276997e-31
1.2770644e-31
1.2770296e-31
1.2770101e-31
1.2769999e-31
1.276995e-31
1.2769929e-31
1.2769924e-31
1.2769928e-31
1.2769943e-31
1.2769974e-31
1.2770653e-31
1.2770308e-31
1.2770114e-31
1.2770013e-31
1.2769964e-31
1.2769944e-31
1.2769938e-31
1.2769943e-31
1.2769957e-31
1.2769988e-31
1.2770673e-31
1.2770335e-31
1.2770144e-31
1.2770043e-31
1.2769995e-31
1.2769975e-31
1.276997e-31
1.2769974e-31
1.2769988e-31
1.277002e-31