/*--------------------------------*- C++ -*----------------------------------*\
| =========                 |                                                 |
| \\      /  F ield         | OpenFOAM: The Open Source CFD Toolbox           |
|  \\    /   O peration     | Version:  dev                                   |
|   \\  /    A nd           | Web:      www.OpenFOAM.org                      |
|    \\/     M anipulation  |                                                 |
\*---------------------------------------------------------------------------*/
FoamFile
{
    version     2.0;
    format      ascii;
    class       volScalarField;
    location    "49.995";
    object      A_0;
}
// * * * * * * * * * * * * * * * * * * * * * * * * * * * * * * * * * * * * * //

dimensions      [0 0 0 0 1 0 0];

internalField   nonuniform List<scalar> 
10000
(
5.9839508e-33
5.9713197e-33
5.9663524e-33
5.9645991e-33
5.9640639e-33
5.9639314e-33
5.9639503e-33
5.9641384e-33
5.9647529e-33
5.966378e-33
5.9713197e-33
5.9587568e-33
5.9538106e-33
5.952064e-33
5.951531e-33
5.9514001e-33
5.9514242e-33
5.9516309e-33
5.9523094e-33
5.9541441e-33
5.9663524e-33
5.9538106e-33
5.9488739e-33
5.9471309e-33
5.9465992e-33
5.9464698e-33
5.9464982e-33
5.9467185e-33
5.9474321e-33
5.9493297e-33
5.9645991e-33
5.952064e-33
5.9471309e-33
5.9453893e-33
5.9448582e-33
5.9447296e-33
5.9447602e-33
5.9449866e-33
5.9457137e-33
5.9476293e-33
5.9640639e-33
5.951531e-33
5.9465992e-33
5.9448582e-33
5.9443275e-33
5.9441992e-33
5.9442307e-33
5.9444592e-33
5.9451905e-33
5.9471109e-33
5.9639314e-33
5.9514001e-33
5.9464698e-33
5.9447296e-33
5.9441992e-33
5.9440711e-33
5.9441029e-33
5.9443321e-33
5.9450645e-33
5.9469861e-33
5.9639503e-33
5.9514242e-33
5.9464982e-33
5.9447602e-33
5.9442307e-33
5.9441029e-33
5.9441348e-33
5.9443642e-33
5.945097e-33
5.9470189e-33
5.9641384e-33
5.9516309e-33
5.9467185e-33
5.9449866e-33
5.9444592e-33
5.9443321e-33
5.9443642e-33
5.9445938e-33
5.9453269e-33
5.9472492e-33
5.9647529e-33
5.9523094e-33
5.9474321e-33
5.9457137e-33
5.9451905e-33
5.9450645e-33
5.945097e-33
5.9453269e-33
5.9460606e-33
5.9479845e-33
5.966378e-33
5.9541441e-33
5.9493297e-33
5.9476293e-33
5.9471109e-33
5.9469861e-33
5.9470189e-33
5.9472492e-33
5.9479845e-33
5.9499142e-33
2.168901e-32
2.1644931e-32
2.1627175e-32
2.1620895e-32
2.1618977e-32
2.1618502e-32
2.1618569e-32
2.1619238e-32
2.1621433e-32
2.1627482e-32
2.1644931e-32
2.1601085e-32
2.1583403e-32
2.1577147e-32
2.1575236e-32
2.1574767e-32
2.1574852e-32
2.157559e-32
2.1578015e-32
2.1584827e-32
2.1627175e-32
2.1583403e-32
2.1565756e-32
2.1559512e-32
2.1557606e-32
2.1557142e-32
2.1557243e-32
2.1558029e-32
2.1560582e-32
2.1567621e-32
2.1620895e-32
2.1577147e-32
2.1559512e-32
2.1553273e-32
2.155137e-32
2.1550908e-32
2.1551017e-32
2.1551826e-32
2.1554427e-32
2.1561531e-32
2.1618977e-32
2.1575236e-32
2.1557606e-32
2.155137e-32
2.1549467e-32
2.1549007e-32
2.1549119e-32
2.1549936e-32
2.1552552e-32
2.1559673e-32
2.1618502e-32
2.1574767e-32
2.1557142e-32
2.1550908e-32
2.1549007e-32
2.1548548e-32
2.1548661e-32
2.154948e-32
2.15521e-32
2.1559225e-32
2.1618569e-32
2.1574852e-32
2.1557243e-32
2.1551017e-32
2.1549119e-32
2.1548661e-32
2.1548775e-32
2.1549594e-32
2.1552216e-32
2.1559342e-32
2.1619238e-32
2.157559e-32
2.1558029e-32
2.1551826e-32
2.1549936e-32
2.154948e-32
2.1549594e-32
2.1550414e-32
2.1553037e-32
2.1560165e-32
2.1621433e-32
2.1578015e-32
2.1560582e-32
2.1554427e-32
2.1552552e-32
2.15521e-32
2.1552216e-32
2.1553037e-32
2.1555663e-32
2.1562796e-32
2.1627482e-32
2.1584827e-32
2.1567621e-32
2.1561531e-32
2.1559673e-32
2.1559225e-32
2.1559342e-32
2.1560165e-32
2.1562796e-32
2.1569952e-32
5.1397891e-32
5.1296775e-32
5.1255641e-32
5.1241061e-32
5.1236603e-32
5.1235496e-32
5.1235648e-32
5.1237188e-32
5.1242239e-32
5.1256585e-32
5.1296775e-32
5.1196187e-32
5.1155221e-32
5.1140695e-32
5.1136254e-32
5.1135162e-32
5.1135357e-32
5.1137056e-32
5.1142653e-32
5.1158802e-32
5.1255641e-32
5.1155221e-32
5.1114334e-32
5.1099836e-32
5.1095407e-32
5.1094326e-32
5.1094558e-32
5.1096373e-32
5.110227e-32
5.1118954e-32
5.1241061e-32
5.1140695e-32
5.1099836e-32
5.1085351e-32
5.1080927e-32
5.1079853e-32
5.1080104e-32
5.1081971e-32
5.1087982e-32
5.110482e-32
5.1236603e-32
5.1136254e-32
5.1095407e-32
5.1080927e-32
5.1076505e-32
5.1075434e-32
5.1075692e-32
5.1077578e-32
5.1083625e-32
5.1100503e-32
5.1235496e-32
5.1135162e-32
5.1094326e-32
5.1079853e-32
5.1075434e-32
5.1074365e-32
5.1074625e-32
5.1076517e-32
5.1082573e-32
5.1099461e-32
5.1235648e-32
5.1135357e-32
5.1094558e-32
5.1080104e-32
5.1075692e-32
5.1074625e-32
5.1074887e-32
5.107678e-32
5.108284e-32
5.1099731e-32
5.1237188e-32
5.1137056e-32
5.1096373e-32
5.1081971e-32
5.1077578e-32
5.1076517e-32
5.107678e-32
5.1078675e-32
5.1084736e-32
5.1101631e-32
5.1242239e-32
5.1142653e-32
5.110227e-32
5.1087982e-32
5.1083625e-32
5.1082573e-32
5.108284e-32
5.1084736e-32
5.1090804e-32
5.1107711e-32
5.1256585e-32
5.1158802e-32
5.1118954e-32
5.110482e-32
5.1100503e-32
5.1099461e-32
5.1099731e-32
5.1101631e-32
5.1107711e-32
5.1124674e-32
1.1536906e-31
1.1514927e-31
1.1505939e-31
1.1502748e-31
1.150177e-31
1.1501527e-31
1.1501559e-31
1.1501893e-31
1.1502983e-31
1.1506096e-31
1.1514927e-31
1.1493061e-31
1.148411e-31
1.148093e-31
1.1479956e-31
1.1479716e-31
1.1479758e-31
1.1480127e-31
1.1481339e-31
1.1484855e-31
1.1505939e-31
1.148411e-31
1.1475176e-31
1.1472001e-31
1.147103e-31
1.1470793e-31
1.1470843e-31
1.1471238e-31
1.1472517e-31
1.1476152e-31
1.1502748e-31
1.148093e-31
1.1472001e-31
1.146883e-31
1.146786e-31
1.1467624e-31
1.1467678e-31
1.1468085e-31
1.1469389e-31
1.1473059e-31
1.150177e-31
1.1479956e-31
1.147103e-31
1.146786e-31
1.1466891e-31
1.1466656e-31
1.1466711e-31
1.1467122e-31
1.1468434e-31
1.1472113e-31
1.1501527e-31
1.1479716e-31
1.1470793e-31
1.1467624e-31
1.1466656e-31
1.1466421e-31
1.1466477e-31
1.1466889e-31
1.1468204e-31
1.1471884e-31
1.1501559e-31
1.1479758e-31
1.1470843e-31
1.1467678e-31
1.1466711e-31
1.1466477e-31
1.1466534e-31
1.1466946e-31
1.1468261e-31
1.1471943e-31
1.1501893e-31
1.1480127e-31
1.1471238e-31
1.1468085e-31
1.1467122e-31
1.1466889e-31
1.1466946e-31
1.1467358e-31
1.1468674e-31
1.1472356e-31
1.1502983e-31
1.1481339e-31
1.1472517e-31
1.1469389e-31
1.1468434e-31
1.1468204e-31
1.1468261e-31
1.1468674e-31
1.1469991e-31
1.1473676e-31
1.1506096e-31
1.1484855e-31
1.1476152e-31
1.1473059e-31
1.1472113e-31
1.1471884e-31
1.1471943e-31
1.1472356e-31
1.1473676e-31
1.1477373e-31
2.5894517e-31
2.5846757e-31
2.5827156e-31
2.5820182e-31
2.5818044e-31
2.5817511e-31
2.5817579e-31
2.5818298e-31
2.5820642e-31
2.5827303e-31
2.5846757e-31
2.5799241e-31
2.5779718e-31
2.5772768e-31
2.5770639e-31
2.5770113e-31
2.5770202e-31
2.5771e-31
2.5773616e-31
2.5781177e-31
2.5827156e-31
2.5779718e-31
2.5760231e-31
2.5753295e-31
2.5751171e-31
2.5750651e-31
2.5750759e-31
2.5751614e-31
2.5754379e-31
2.5762207e-31
2.5820182e-31
2.5772768e-31
2.5753295e-31
2.5746365e-31
2.5744243e-31
2.5743726e-31
2.5743843e-31
2.5744725e-31
2.5747547e-31
2.5755451e-31
2.5818044e-31
2.5770639e-31
2.5751171e-31
2.5744243e-31
2.5742122e-31
2.5741607e-31
2.5741728e-31
2.5742618e-31
2.5745458e-31
2.5753383e-31
2.5817511e-31
2.5770113e-31
2.5750651e-31
2.5743726e-31
2.5741607e-31
2.5741093e-31
2.5741215e-31
2.5742108e-31
2.5744953e-31
2.5752882e-31
2.5817579e-31
2.5770202e-31
2.5750759e-31
2.5743843e-31
2.5741728e-31
2.5741215e-31
2.5741338e-31
2.5742232e-31
2.5745078e-31
2.5753009e-31
2.5818298e-31
2.5771e-31
2.5751614e-31
2.5744725e-31
2.5742618e-31
2.5742108e-31
2.5742232e-31
2.5743127e-31
2.5745973e-31
2.5753906e-31
2.5820642e-31
2.5773616e-31
2.5754379e-31
2.5747547e-31
2.5745458e-31
2.5744953e-31
2.5745078e-31
2.5745973e-31
2.5748823e-31
2.5756762e-31
2.5827303e-31
2.5781177e-31
2.5762207e-31
2.5755451e-31
2.5753383e-31
2.5752882e-31
2.5753009e-31
2.5753906e-31
2.5756762e-31
2.5764726e-31
5.8746643e-31
5.8641785e-31
5.8598614e-31
5.8583225e-31
5.8578503e-31
5.8577324e-31
5.8577469e-31
5.8579035e-31
5.8584118e-31
5.8598463e-31
5.8641785e-31
5.8537455e-31
5.8494453e-31
5.8479118e-31
5.8474413e-31
5.847325e-31
5.8473443e-31
5.8475187e-31
5.8480883e-31
5.849726e-31
5.8598614e-31
5.8494453e-31
5.8451531e-31
5.8436225e-31
5.8431532e-31
5.8430382e-31
5.8430616e-31
5.843249e-31
5.8438521e-31
5.84555e-31
5.8583225e-31
5.8479118e-31
5.8436225e-31
5.8420932e-31
5.8416244e-31
5.8415101e-31
5.8415357e-31
5.8417288e-31
5.8423448e-31
5.8440599e-31
5.8578503e-31
5.8474413e-31
5.8431532e-31
5.8416244e-31
5.8411559e-31
5.841042e-31
5.8410683e-31
5.8412635e-31
5.8418835e-31
5.8436031e-31
5.8577324e-31
5.847325e-31
5.8430382e-31
5.8415101e-31
5.841042e-31
5.8409283e-31
5.8409549e-31
5.8411507e-31
5.8417717e-31
5.8434925e-31
5.8577469e-31
5.8473443e-31
5.8430616e-31
5.8415357e-31
5.8410683e-31
5.8409549e-31
5.8409816e-31
5.8411776e-31
5.841799e-31
5.8435201e-31
5.8579035e-31
5.8475187e-31
5.843249e-31
5.8417288e-31
5.8412635e-31
5.8411507e-31
5.8411776e-31
5.8413738e-31
5.8419954e-31
5.8437169e-31
5.8584118e-31
5.8480883e-31
5.8438521e-31
5.8423448e-31
5.8418835e-31
5.8417717e-31
5.841799e-31
5.8419954e-31
5.8426176e-31
5.8443403e-31
5.8598463e-31
5.849726e-31
5.84555e-31
5.8440599e-31
5.8436031e-31
5.8434925e-31
5.8435201e-31
5.8437169e-31
5.8443403e-31
5.8460684e-31
1.3501819e-30
1.3478506e-30
1.3468879e-30
1.3465441e-30
1.3464385e-30
1.3464121e-30
1.3464152e-30
1.3464497e-30
1.3465613e-30
1.3468738e-30
1.3478506e-30
1.3455309e-30
1.3445719e-30
1.3442293e-30
1.3441241e-30
1.344098e-30
1.3441023e-30
1.3441408e-30
1.3442664e-30
1.3446254e-30
1.3468879e-30
1.3445719e-30
1.3436147e-30
1.3432727e-30
1.3431677e-30
1.343142e-30
1.3431472e-30
1.3431887e-30
1.3433219e-30
1.3436946e-30
1.3465441e-30
1.3442293e-30
1.3432727e-30
1.3429311e-30
1.3428262e-30
1.3428006e-30
1.3428063e-30
1.3428491e-30
1.3429853e-30
1.3433619e-30
1.3464385e-30
1.3441241e-30
1.3431677e-30
1.3428262e-30
1.3427214e-30
1.3426959e-30
1.3427017e-30
1.3427451e-30
1.3428821e-30
1.3432598e-30
1.3464121e-30
1.344098e-30
1.343142e-30
1.3428006e-30
1.3426959e-30
1.3426704e-30
1.3426763e-30
1.3427198e-30
1.3428571e-30
1.343235e-30
1.3464152e-30
1.3441023e-30
1.3431472e-30
1.3428063e-30
1.3427017e-30
1.3426763e-30
1.3426822e-30
1.3427258e-30
1.3428631e-30
1.3432411e-30
1.3464497e-30
1.3441408e-30
1.3431887e-30
1.3428491e-30
1.3427451e-30
1.3427198e-30
1.3427258e-30
1.3427693e-30
1.3429067e-30
1.3432848e-30
1.3465613e-30
1.3442664e-30
1.3433219e-30
1.3429853e-30
1.3428821e-30
1.3428571e-30
1.3428631e-30
1.3429067e-30
1.3430443e-30
1.3434226e-30
1.3468738e-30
1.3446254e-30
1.3436946e-30
1.3433619e-30
1.3432598e-30
1.343235e-30
1.3432411e-30
1.3432848e-30
1.3434226e-30
1.3438022e-30
3.1452622e-30
3.1400109e-30
3.137836e-30
3.1370581e-30
3.1368188e-30
3.1367589e-30
3.1367657e-30
3.1368428e-30
3.1370911e-30
3.1377807e-30
3.1400109e-30
3.1347856e-30
3.132619e-30
3.1318436e-30
3.1316052e-30
3.1315461e-30
3.1315555e-30
3.131642e-30
3.1319226e-30
3.1327197e-30
3.137836e-30
3.132619e-30
3.1304563e-30
3.1296824e-30
3.1294445e-30
3.1293861e-30
3.1293977e-30
3.129491e-30
3.1297892e-30
3.1306181e-30
3.1370581e-30
3.1318436e-30
3.1296824e-30
3.1289091e-30
3.1286716e-30
3.1286135e-30
3.1286261e-30
3.1287225e-30
3.1290275e-30
3.1298655e-30
3.1368188e-30
3.1316052e-30
3.1294445e-30
3.1286716e-30
3.1284341e-30
3.1283763e-30
3.1283893e-30
3.1284868e-30
3.1287939e-30
3.1296343e-30
3.1367589e-30
3.1315461e-30
3.1293861e-30
3.1286135e-30
3.1283763e-30
3.1283185e-30
3.1283317e-30
3.1284295e-30
3.1287371e-30
3.1295781e-30
3.1367657e-30
3.1315555e-30
3.1293977e-30
3.1286261e-30
3.1283893e-30
3.1283317e-30
3.128345e-30
3.1284429e-30
3.1287507e-30
3.1295918e-30
3.1368428e-30
3.131642e-30
3.129491e-30
3.1287225e-30
3.1284868e-30
3.1284295e-30
3.1284429e-30
3.1285408e-30
3.1288488e-30
3.1296901e-30
3.1370911e-30
3.1319226e-30
3.1297892e-30
3.1290275e-30
3.1287939e-30
3.1287371e-30
3.1287507e-30
3.1288488e-30
3.129157e-30
3.1299989e-30
3.1377807e-30
3.1327197e-30
3.1306181e-30
3.1298655e-30
3.1296343e-30
3.1295781e-30
3.1295918e-30
3.1296901e-30
3.1299989e-30
3.1308434e-30
7.4275446e-30
7.415559e-30
7.4105806e-30
7.4087969e-30
7.4082475e-30
7.4081097e-30
7.4081248e-30
7.4082996e-30
7.4088591e-30
7.4104013e-30
7.415559e-30
7.403632e-30
7.3986723e-30
7.3968944e-30
7.396347e-30
7.3962111e-30
7.3962322e-30
7.3964288e-30
7.3970642e-30
7.3988583e-30
7.4105806e-30
7.3986723e-30
7.3937214e-30
7.3919468e-30
7.3914008e-30
7.3912665e-30
7.3912926e-30
7.3915052e-30
7.3921819e-30
7.3940506e-30
7.4087969e-30
7.3968944e-30
7.3919468e-30
7.3901736e-30
7.3896283e-30
7.3894948e-30
7.3895235e-30
7.3897433e-30
7.3904358e-30
7.3923258e-30
7.4082475e-30
7.396347e-30
7.3914008e-30
7.3896283e-30
7.3890832e-30
7.3889502e-30
7.3889799e-30
7.3892021e-30
7.3898995e-30
7.3917952e-30
7.4081097e-30
7.3962111e-30
7.3912665e-30
7.3894948e-30
7.3889502e-30
7.3888174e-30
7.3888474e-30
7.3890705e-30
7.3897692e-30
7.3916662e-30
7.4081248e-30
7.3962322e-30
7.3912926e-30
7.3895235e-30
7.3889799e-30
7.3888474e-30
7.3888776e-30
7.3891009e-30
7.3898e-30
7.3916974e-30
7.4082996e-30
7.3964288e-30
7.3915052e-30
7.3897433e-30
7.3892021e-30
7.3890705e-30
7.3891009e-30
7.3893244e-30
7.3900237e-30
7.3919215e-30
7.4088591e-30
7.3970642e-30
7.3921819e-30
7.3904358e-30
7.3898995e-30
7.3897692e-30
7.3898e-30
7.3900237e-30
7.3907237e-30
7.3926228e-30
7.4104013e-30
7.3988583e-30
7.3940506e-30
7.3923258e-30
7.3917952e-30
7.3916662e-30
7.3916974e-30
7.3919215e-30
7.3926228e-30
7.3945277e-30
1.7782539e-29
1.7754818e-29
1.7743271e-29
1.7739126e-29
1.7737848e-29
1.7737527e-29
1.7737561e-29
1.7737962e-29
1.7739241e-29
1.7742736e-29
1.7754818e-29
1.772723e-29
1.7715726e-29
1.7711595e-29
1.7710322e-29
1.7710005e-29
1.7710053e-29
1.7710506e-29
1.7711965e-29
1.7716058e-29
1.7743271e-29
1.7715726e-29
1.7704242e-29
1.7700118e-29
1.7698848e-29
1.7698535e-29
1.7698595e-29
1.7699086e-29
1.7700643e-29
1.7704913e-29
1.7739126e-29
1.7711595e-29
1.7700118e-29
1.7695998e-29
1.769473e-29
1.7694419e-29
1.7694485e-29
1.7694993e-29
1.7696587e-29
1.7700908e-29
1.7737848e-29
1.7710322e-29
1.7698848e-29
1.769473e-29
1.7693462e-29
1.7693152e-29
1.769322e-29
1.7693734e-29
1.769534e-29
1.7699674e-29
1.7737527e-29
1.7710005e-29
1.7698535e-29
1.7694419e-29
1.7693152e-29
1.7692843e-29
1.7692912e-29
1.7693428e-29
1.7695036e-29
1.7699374e-29
1.7737561e-29
1.7710053e-29
1.7698595e-29
1.7694485e-29
1.769322e-29
1.7692912e-29
1.7692982e-29
1.7693498e-29
1.7695107e-29
1.7699446e-29
1.7737962e-29
1.7710506e-29
1.7699086e-29
1.7694993e-29
1.7693734e-29
1.7693428e-29
1.7693498e-29
1.7694014e-29
1.7695625e-29
1.7699964e-29
1.7739241e-29
1.7711965e-29
1.7700643e-29
1.7696587e-29
1.769534e-29
1.7695036e-29
1.7695107e-29
1.7695625e-29
1.7697236e-29
1.7701579e-29
1.7742736e-29
1.7716058e-29
1.7704913e-29
1.7700908e-29
1.7699674e-29
1.7699374e-29
1.7699446e-29
1.7699964e-29
1.7701579e-29
1.7705935e-29
4.3164791e-29
4.3099815e-29
4.3072673e-29
4.3062916e-29
4.3059904e-29
4.3059147e-29
4.3059224e-29
4.3060157e-29
4.3063118e-29
4.3071146e-29
4.3099815e-29
4.3035149e-29
4.3008106e-29
4.299838e-29
4.2995379e-29
4.2994632e-29
4.2994743e-29
4.2995801e-29
4.2999195e-29
4.3008665e-29
4.3072673e-29
4.3008106e-29
4.2981111e-29
4.2971402e-29
4.2968409e-29
4.2967671e-29
4.296781e-29
4.296896e-29
4.2972589e-29
4.2982485e-29
4.3062916e-29
4.299838e-29
4.2971402e-29
4.2961702e-29
4.2958712e-29
4.2957978e-29
4.2958133e-29
4.2959323e-29
4.2963042e-29
4.297306e-29
4.3059904e-29
4.2995379e-29
4.2968409e-29
4.2958712e-29
4.2955723e-29
4.2954992e-29
4.2955152e-29
4.2956356e-29
4.2960104e-29
4.2970154e-29
4.3059147e-29
4.2994632e-29
4.2967671e-29
4.2957978e-29
4.2954992e-29
4.2954263e-29
4.2954425e-29
4.2955633e-29
4.2959388e-29
4.2969446e-29
4.3059224e-29
4.2994743e-29
4.296781e-29
4.2958133e-29
4.2955152e-29
4.2954425e-29
4.2954588e-29
4.2955797e-29
4.2959555e-29
4.2969614e-29
4.3060157e-29
4.2995801e-29
4.296896e-29
4.2959323e-29
4.2956356e-29
4.2955633e-29
4.2955797e-29
4.2957008e-29
4.2960767e-29
4.2970829e-29
4.3063118e-29
4.2999195e-29
4.2972589e-29
4.2963042e-29
4.2960104e-29
4.2959388e-29
4.2959555e-29
4.2960767e-29
4.2964529e-29
4.2974597e-29
4.3071146e-29
4.3008665e-29
4.2982485e-29
4.297306e-29
4.2970154e-29
4.2969446e-29
4.2969614e-29
4.2970829e-29
4.2974597e-29
4.2984696e-29
1.0623687e-28
1.0608252e-28
1.0601787e-28
1.0599459e-28
1.059874e-28
1.0598559e-28
1.0598577e-28
1.0598797e-28
1.0599492e-28
1.0601361e-28
1.0608252e-28
1.0592891e-28
1.0586449e-28
1.0584128e-28
1.0583411e-28
1.0583233e-28
1.0583259e-28
1.0583509e-28
1.058431e-28
1.0586531e-28
1.0601787e-28
1.0586449e-28
1.0580018e-28
1.0577702e-28
1.0576987e-28
1.057681e-28
1.0576843e-28
1.0577116e-28
1.0577974e-28
1.0580299e-28
1.0599459e-28
1.0584128e-28
1.0577702e-28
1.0575387e-28
1.0574673e-28
1.0574498e-28
1.0574534e-28
1.0574817e-28
1.0575697e-28
1.0578052e-28
1.059874e-28
1.0583411e-28
1.0576987e-28
1.0574673e-28
1.0573959e-28
1.0573784e-28
1.0573822e-28
1.0574109e-28
1.0574995e-28
1.0577358e-28
1.0598559e-28
1.0583233e-28
1.057681e-28
1.0574498e-28
1.0573784e-28
1.057361e-28
1.0573648e-28
1.0573936e-28
1.0574824e-28
1.0577189e-28
1.0598577e-28
1.0583259e-28
1.0576843e-28
1.0574534e-28
1.0573822e-28
1.0573648e-28
1.0573687e-28
1.0573975e-28
1.0574864e-28
1.0577229e-28
1.0598797e-28
1.0583509e-28
1.0577116e-28
1.0574817e-28
1.0574109e-28
1.0573936e-28
1.0573975e-28
1.0574262e-28
1.0575152e-28
1.0577517e-28
1.0599492e-28
1.058431e-28
1.0577974e-28
1.0575697e-28
1.0574995e-28
1.0574824e-28
1.0574864e-28
1.0575152e-28
1.0576042e-28
1.0578409e-28
1.0601361e-28
1.0586531e-28
1.0580299e-28
1.0578052e-28
1.0577358e-28
1.0577189e-28
1.0577229e-28
1.0577517e-28
1.0578409e-28
1.0580783e-28
2.6512381e-28
2.6475223e-28
2.6459617e-28
2.6453988e-28
2.6452247e-28
2.6451808e-28
2.645185e-28
2.6452376e-28
2.6454031e-28
2.6458442e-28
2.6475223e-28
2.6438239e-28
2.6422688e-28
2.6417077e-28
2.6415342e-28
2.6414909e-28
2.6414971e-28
2.6415573e-28
2.6417488e-28
2.642277e-28
2.6459617e-28
2.6422688e-28
2.6407164e-28
2.6401563e-28
2.6399832e-28
2.6399405e-28
2.6399484e-28
2.640014e-28
2.6402197e-28
2.6407736e-28
2.6453988e-28
2.6417077e-28
2.6401563e-28
2.6395967e-28
2.6394238e-28
2.6393813e-28
2.6393901e-28
2.6394582e-28
2.6396693e-28
2.6402305e-28
2.6452247e-28
2.6415342e-28
2.6399832e-28
2.6394238e-28
2.639251e-28
2.6392087e-28
2.6392178e-28
2.6392867e-28
2.6394995e-28
2.6400627e-28
2.6451808e-28
2.6414909e-28
2.6399405e-28
2.6393813e-28
2.6392087e-28
2.6391664e-28
2.6391757e-28
2.6392449e-28
2.6394581e-28
2.6400217e-28
2.645185e-28
2.6414971e-28
2.6399484e-28
2.6393901e-28
2.6392178e-28
2.6391757e-28
2.639185e-28
2.6392543e-28
2.6394676e-28
2.6400314e-28
2.6452376e-28
2.6415573e-28
2.640014e-28
2.6394582e-28
2.6392867e-28
2.6392449e-28
2.6392543e-28
2.6393236e-28
2.639537e-28
2.6401009e-28
2.6454031e-28
2.6417488e-28
2.6402197e-28
2.6396693e-28
2.6394995e-28
2.6394581e-28
2.6394676e-28
2.639537e-28
2.6397507e-28
2.6403149e-28
2.6458442e-28
2.642277e-28
2.6407736e-28
2.6402305e-28
2.6400627e-28
2.6400217e-28
2.6400314e-28
2.6401009e-28
2.6403149e-28
2.6408807e-28
6.7090917e-28
6.7000257e-28
6.6962078e-28
6.6948288e-28
6.6944017e-28
6.6942939e-28
6.6943037e-28
6.6944313e-28
6.6948305e-28
6.695886e-28
6.7000257e-28
6.6910017e-28
6.6871971e-28
6.6858222e-28
6.6853967e-28
6.6852903e-28
6.6853053e-28
6.6854518e-28
6.6859162e-28
6.6871898e-28
6.6962078e-28
6.6871971e-28
6.683399e-28
6.6820266e-28
6.681602e-28
6.681497e-28
6.6815163e-28
6.6816764e-28
6.6821764e-28
6.6835143e-28
6.6948288e-28
6.6858222e-28
6.6820266e-28
6.6806552e-28
6.6802312e-28
6.6801269e-28
6.6801484e-28
6.6803146e-28
6.6808281e-28
6.6821844e-28
6.6944017e-28
6.6853967e-28
6.681602e-28
6.6802312e-28
6.6798074e-28
6.6797035e-28
6.6797258e-28
6.6798941e-28
6.6804119e-28
6.681773e-28
6.6942939e-28
6.6852903e-28
6.681497e-28
6.6801269e-28
6.6797035e-28
6.6795997e-28
6.6796223e-28
6.6797914e-28
6.6803102e-28
6.6816725e-28
6.6943037e-28
6.6853053e-28
6.6815163e-28
6.6801484e-28
6.6797258e-28
6.6796223e-28
6.6796451e-28
6.6798143e-28
6.6803335e-28
6.6816961e-28
6.6944313e-28
6.6854518e-28
6.6816764e-28
6.6803146e-28
6.6798941e-28
6.6797914e-28
6.6798143e-28
6.6799837e-28
6.6805031e-28
6.681866e-28
6.6948305e-28
6.6859162e-28
6.6821764e-28
6.6808281e-28
6.6804119e-28
6.6803102e-28
6.6803335e-28
6.6805031e-28
6.6810229e-28
6.6823867e-28
6.695886e-28
6.6871898e-28
6.6835143e-28
6.6821844e-28
6.681773e-28
6.6816725e-28
6.6816961e-28
6.681866e-28
6.6823867e-28
6.6837542e-28
1.7215885e-27
1.7193466e-27
1.7184e-27
1.7180576e-27
1.7179515e-27
1.7179246e-27
1.717927e-27
1.7179584e-27
1.718056e-27
1.718312e-27
1.7193466e-27
1.717115e-27
1.7161717e-27
1.7158303e-27
1.7157245e-27
1.7156981e-27
1.7157017e-27
1.7157379e-27
1.7158521e-27
1.7161635e-27
1.7184e-27
1.7161717e-27
1.71523e-27
1.7148892e-27
1.7147837e-27
1.7147575e-27
1.7147623e-27
1.7148019e-27
1.7149252e-27
1.7152529e-27
1.7180576e-27
1.7158303e-27
1.7148892e-27
1.7145487e-27
1.7144433e-27
1.7144173e-27
1.7144226e-27
1.7144638e-27
1.7145905e-27
1.7149229e-27
1.7179515e-27
1.7157245e-27
1.7147837e-27
1.7144433e-27
1.7143379e-27
1.7143121e-27
1.7143176e-27
1.7143593e-27
1.714487e-27
1.7148207e-27
1.7179246e-27
1.7156981e-27
1.7147575e-27
1.7144173e-27
1.7143121e-27
1.7142863e-27
1.7142919e-27
1.7143337e-27
1.7144618e-27
1.7147957e-27
1.717927e-27
1.7157017e-27
1.7147623e-27
1.7144226e-27
1.7143176e-27
1.7142919e-27
1.7142975e-27
1.7143394e-27
1.7144675e-27
1.7148015e-27
1.7179584e-27
1.7157379e-27
1.7148019e-27
1.7144638e-27
1.7143593e-27
1.7143337e-27
1.7143394e-27
1.7143814e-27
1.7145095e-27
1.7148436e-27
1.718056e-27
1.7158521e-27
1.7149252e-27
1.7145905e-27
1.714487e-27
1.7144618e-27
1.7144675e-27
1.7145095e-27
1.7146378e-27
1.7149721e-27
1.718312e-27
1.7161635e-27
1.7152529e-27
1.7149229e-27
1.7148207e-27
1.7147957e-27
1.7148015e-27
1.7148436e-27
1.7149721e-27
1.7153073e-27
4.4797084e-27
4.4740899e-27
4.4717116e-27
4.47085e-27
4.4705826e-27
4.4705149e-27
4.4705207e-27
4.4705989e-27
4.4708411e-27
4.4714705e-27
4.4740899e-27
4.468497e-27
4.4661268e-27
4.4652677e-27
4.4650012e-27
4.4649345e-27
4.4649436e-27
4.4650341e-27
4.4653189e-27
4.466091e-27
4.4717116e-27
4.4661268e-27
4.4637605e-27
4.4629029e-27
4.4626371e-27
4.4625712e-27
4.4625831e-27
4.4626825e-27
4.4629905e-27
4.4638046e-27
4.47085e-27
4.4652677e-27
4.4629029e-27
4.4620459e-27
4.4617804e-27
4.461715e-27
4.4617284e-27
4.4618317e-27
4.4621485e-27
4.4629746e-27
4.4705826e-27
4.4650012e-27
4.4626371e-27
4.4617804e-27
4.4615151e-27
4.4614499e-27
4.4614638e-27
4.4615685e-27
4.4618881e-27
4.4627174e-27
4.4705149e-27
4.4649345e-27
4.4625712e-27
4.461715e-27
4.4614499e-27
4.4613849e-27
4.4613989e-27
4.4615041e-27
4.4618244e-27
4.4626545e-27
4.4705207e-27
4.4649436e-27
4.4625831e-27
4.4617284e-27
4.4614638e-27
4.4613989e-27
4.4614131e-27
4.4615184e-27
4.4618389e-27
4.4626692e-27
4.4705989e-27
4.4650341e-27
4.4626825e-27
4.4618317e-27
4.4615685e-27
4.4615041e-27
4.4615184e-27
4.4616238e-27
4.4619444e-27
4.4627749e-27
4.4708411e-27
4.4653189e-27
4.4629905e-27
4.4621485e-27
4.4618881e-27
4.4618244e-27
4.4618389e-27
4.4619444e-27
4.4622653e-27
4.4630963e-27
4.4714705e-27
4.466091e-27
4.4638046e-27
4.4629746e-27
4.4627174e-27
4.4626545e-27
4.4626692e-27
4.4627749e-27
4.4630963e-27
4.4639294e-27
1.1820176e-26
1.1805906e-26
1.1799851e-26
1.1797653e-26
1.1796971e-26
1.1796798e-26
1.1796812e-26
1.179701e-26
1.1797619e-26
1.1799188e-26
1.1805906e-26
1.17917e-26
1.1785665e-26
1.1783474e-26
1.1782794e-26
1.1782623e-26
1.1782646e-26
1.1782876e-26
1.1783596e-26
1.1785537e-26
1.1799851e-26
1.1785665e-26
1.1779639e-26
1.1777452e-26
1.1776774e-26
1.1776605e-26
1.1776636e-26
1.1776888e-26
1.1777669e-26
1.177972e-26
1.1797653e-26
1.1783474e-26
1.1777452e-26
1.1775267e-26
1.1774589e-26
1.1774422e-26
1.1774456e-26
1.1774719e-26
1.1775523e-26
1.1777605e-26
1.1796971e-26
1.1782794e-26
1.1776774e-26
1.1774589e-26
1.1773912e-26
1.1773745e-26
1.1773781e-26
1.1774047e-26
1.1774858e-26
1.1776948e-26
1.1796798e-26
1.1782623e-26
1.1776605e-26
1.1774422e-26
1.1773745e-26
1.1773579e-26
1.1773615e-26
1.1773883e-26
1.1774695e-26
1.1776788e-26
1.1796812e-26
1.1782646e-26
1.1776636e-26
1.1774456e-26
1.1773781e-26
1.1773615e-26
1.1773651e-26
1.1773919e-26
1.1774732e-26
1.1776825e-26
1.179701e-26
1.1782876e-26
1.1776888e-26
1.1774719e-26
1.1774047e-26
1.1773883e-26
1.1773919e-26
1.1774188e-26
1.1775001e-26
1.1777095e-26
1.1797619e-26
1.1783596e-26
1.1777669e-26
1.1775523e-26
1.1774858e-26
1.1774695e-26
1.1774732e-26
1.1775001e-26
1.1775815e-26
1.177791e-26
1.1799188e-26
1.1785537e-26
1.177972e-26
1.1777605e-26
1.1776948e-26
1.1776788e-26
1.1776825e-26
1.1777095e-26
1.177791e-26
1.178001e-26
3.1626095e-26
3.1589364e-26
3.1573738e-26
3.156806e-26
3.1566295e-26
3.1565847e-26
3.1565883e-26
3.1566389e-26
3.1567942e-26
3.1571907e-26
3.1589364e-26
3.1552796e-26
3.1537222e-26
3.1531561e-26
3.1529801e-26
3.152936e-26
3.1529419e-26
3.1530009e-26
3.1531856e-26
3.1536805e-26
3.1573738e-26
3.1537222e-26
3.1521673e-26
3.1516021e-26
3.1514266e-26
3.1513831e-26
3.1513909e-26
3.1514561e-26
3.1516567e-26
3.1521805e-26
3.156806e-26
3.1531561e-26
3.1516021e-26
3.1510374e-26
3.1508621e-26
3.1508188e-26
3.1508276e-26
3.1508956e-26
3.1511022e-26
3.1516344e-26
3.1566295e-26
3.1529801e-26
3.1514266e-26
3.1508621e-26
3.1506869e-26
3.1506438e-26
3.150653e-26
3.1507218e-26
3.1509304e-26
3.1514647e-26
3.1565847e-26
3.152936e-26
3.1513831e-26
3.1508188e-26
3.1506438e-26
3.1506008e-26
3.1506101e-26
3.1506793e-26
3.1508883e-26
3.1514232e-26
3.1565883e-26
3.1529419e-26
3.1513909e-26
3.1508276e-26
3.150653e-26
3.1506101e-26
3.1506195e-26
3.1506887e-26
3.1508979e-26
3.1514329e-26
3.1566389e-26
3.1530009e-26
3.1514561e-26
3.1508956e-26
3.1507218e-26
3.1506793e-26
3.1506887e-26
3.150758e-26
3.1509673e-26
3.1515024e-26
3.1567942e-26
3.1531856e-26
3.1516567e-26
3.1511022e-26
3.1509304e-26
3.1508883e-26
3.1508979e-26
3.1509673e-26
3.1511767e-26
3.1517122e-26
3.1571907e-26
3.1536805e-26
3.1521805e-26
3.1516344e-26
3.1514647e-26
3.1514232e-26
3.1514329e-26
3.1515024e-26
3.1517122e-26
3.152249e-26
8.5802988e-26
8.5707177e-26
8.5666321e-26
8.5651455e-26
8.5646829e-26
8.5645653e-26
8.5645745e-26
8.5647059e-26
8.5651073e-26
8.5661232e-26
8.5707177e-26
8.561179e-26
8.5571067e-26
8.5556242e-26
8.5551631e-26
8.5550473e-26
8.5550626e-26
8.5552167e-26
8.5556967e-26
8.5569762e-26
8.5666321e-26
8.5571067e-26
8.5530409e-26
8.5515609e-26
8.5511009e-26
8.5509867e-26
8.5510071e-26
8.5511776e-26
8.5517002e-26
8.5530573e-26
8.5651455e-26
8.5556242e-26
8.5515609e-26
8.5500821e-26
8.5496226e-26
8.5495092e-26
8.5495323e-26
8.5497101e-26
8.550249e-26
8.5516282e-26
8.5646829e-26
8.5551631e-26
8.5511009e-26
8.5496226e-26
8.5491634e-26
8.5490504e-26
8.5490745e-26
8.5492548e-26
8.5497988e-26
8.5511839e-26
8.5645653e-26
8.5550473e-26
8.5509867e-26
8.5495092e-26
8.5490504e-26
8.5489377e-26
8.5489621e-26
8.5491433e-26
8.5496886e-26
8.5510751e-26
8.5645745e-26
8.5550626e-26
8.5510071e-26
8.5495323e-26
8.5490745e-26
8.5489621e-26
8.5489867e-26
8.5491681e-26
8.5497138e-26
8.5511007e-26
8.5647059e-26
8.5552167e-26
8.5511776e-26
8.5497101e-26
8.5492548e-26
8.5491433e-26
8.5491681e-26
8.5493496e-26
8.5498955e-26
8.5512827e-26
8.5651073e-26
8.5556967e-26
8.5517002e-26
8.550249e-26
8.5497988e-26
8.5496886e-26
8.5497138e-26
8.5498955e-26
8.5504418e-26
8.5518299e-26
8.5661232e-26
8.5569762e-26
8.5530573e-26
8.5516282e-26
8.5511839e-26
8.5510751e-26
8.5511007e-26
8.5512827e-26
8.5518299e-26
8.5532213e-26
2.360349e-25
2.3578167e-25
2.3567342e-25
2.3563398e-25
2.356217e-25
2.3561857e-25
2.3561881e-25
2.3562227e-25
2.3563279e-25
2.3565917e-25
2.3578167e-25
2.3552954e-25
2.3542164e-25
2.3538231e-25
2.3537006e-25
2.3536699e-25
2.3536739e-25
2.3537146e-25
2.3538412e-25
2.3541766e-25
2.3567342e-25
2.3542164e-25
2.3531392e-25
2.3527465e-25
2.3526243e-25
2.352594e-25
2.3525994e-25
2.3526446e-25
2.3527827e-25
2.3531392e-25
2.3563398e-25
2.3538231e-25
2.3527465e-25
2.3523541e-25
2.3522321e-25
2.352202e-25
2.3522081e-25
2.3522553e-25
2.3523978e-25
2.3527603e-25
2.356217e-25
2.3537006e-25
2.3526243e-25
2.3522321e-25
2.3521102e-25
2.3520802e-25
2.3520866e-25
2.3521345e-25
2.3522783e-25
2.3526424e-25
2.3561857e-25
2.3536699e-25
2.352594e-25
2.352202e-25
2.3520802e-25
2.3520502e-25
2.3520567e-25
2.3521048e-25
2.352249e-25
2.3526135e-25
2.3561881e-25
2.3536739e-25
2.3525994e-25
2.3522081e-25
2.3520866e-25
2.3520567e-25
2.3520633e-25
2.3521114e-25
2.3522558e-25
2.3526203e-25
2.3562227e-25
2.3537146e-25
2.3526446e-25
2.3522553e-25
2.3521345e-25
2.3521048e-25
2.3521114e-25
2.3521596e-25
2.352304e-25
2.3526687e-25
2.3563279e-25
2.3538412e-25
2.3527827e-25
2.3523978e-25
2.3522783e-25
2.352249e-25
2.3522558e-25
2.352304e-25
2.3524485e-25
2.3528134e-25
2.3565917e-25
2.3541766e-25
2.3531392e-25
2.3527603e-25
2.3526424e-25
2.3526135e-25
2.3526203e-25
2.3526687e-25
2.3528134e-25
2.3531791e-25
6.5832807e-25
6.5764988e-25
6.5735932e-25
6.5725331e-25
6.5722026e-25
6.5721185e-25
6.5721247e-25
6.5722171e-25
6.5724965e-25
6.5731912e-25
6.5764988e-25
6.5697463e-25
6.56685e-25
6.5657927e-25
6.5654632e-25
6.5653804e-25
6.5653912e-25
6.5655005e-25
6.5658385e-25
6.5667302e-25
6.5735932e-25
6.56685e-25
6.5639582e-25
6.5629027e-25
6.562574e-25
6.5624923e-25
6.562507e-25
6.5626284e-25
6.5629983e-25
6.5639478e-25
6.5725331e-25
6.5657927e-25
6.5629027e-25
6.561848e-25
6.5615197e-25
6.5614387e-25
6.5614552e-25
6.5615822e-25
6.5619642e-25
6.5629302e-25
6.5722026e-25
6.5654632e-25
6.562574e-25
6.5615197e-25
6.5611916e-25
6.5611109e-25
6.5611282e-25
6.561257e-25
6.5616428e-25
6.5626132e-25
6.5721185e-25
6.5653804e-25
6.5624923e-25
6.5614387e-25
6.5611109e-25
6.5610303e-25
6.5610479e-25
6.5611773e-25
6.5615641e-25
6.5625356e-25
6.5721247e-25
6.5653912e-25
6.562507e-25
6.5614552e-25
6.5611282e-25
6.5610479e-25
6.5610656e-25
6.5611952e-25
6.5615822e-25
6.562554e-25
6.5722171e-25
6.5655005e-25
6.5626284e-25
6.5615822e-25
6.561257e-25
6.5611773e-25
6.5611952e-25
6.5613249e-25
6.5617121e-25
6.5626841e-25
6.5724965e-25
6.5658385e-25
6.5629983e-25
6.5619642e-25
6.5616428e-25
6.5615641e-25
6.5615822e-25
6.5617121e-25
6.5620996e-25
6.5630721e-25
6.5731912e-25
6.5667302e-25
6.5639478e-25
6.5629302e-25
6.5626132e-25