/*--------------------------------*- C++ -*----------------------------------*\
| =========                 |                                                 |
| \\      /  F ield         | OpenFOAM: The Open Source CFD Toolbox           |
|  \\    /   O peration     | Version:  dev                                   |
|   \\  /    A nd           | Web:      www.OpenFOAM.org                      |
|    \\/     M anipulation  |                                                 |
\*---------------------------------------------------------------------------*/
FoamFile
{
    version     2.0;
    format      ascii;
    class       volScalarField;
    location    "47.995";
    object      A;
}
// * * * * * * * * * * * * * * * * * * * * * * * * * * * * * * * * * * * * * //

dimensions      [0 0 0 0 1 0 0];

internalField   nonuniform List<scalar> 
10000
(
9.5754039e-34
9.5544677e-34
9.5467314e-34
9.5442132e-34
9.5435093e-34
9.5433485e-34
9.5433783e-34
9.5436453e-34
9.5445765e-34
9.547172e-34
9.5544677e-34
9.5336483e-34
9.5259466e-34
9.5234386e-34
9.5227377e-34
9.5225791e-34
9.522616e-34
9.522911e-34
9.5239447e-34
9.5268886e-34
9.5467314e-34
9.5259466e-34
9.5182598e-34
9.5157569e-34
9.5150578e-34
9.5149009e-34
9.5149434e-34
9.5152576e-34
9.5163446e-34
9.5193891e-34
9.5442132e-34
9.5234386e-34
9.5157569e-34
9.5132559e-34
9.5125575e-34
9.5124015e-34
9.5124467e-34
9.5127688e-34
9.5138748e-34
9.5169465e-34
9.5435093e-34
9.5227377e-34
9.5150578e-34
9.5125575e-34
9.5118595e-34
9.5117039e-34
9.5117499e-34
9.5120747e-34
9.5131861e-34
9.5162644e-34
9.5433485e-34
9.5225791e-34
9.5149009e-34
9.5124015e-34
9.5117039e-34
9.5115484e-34
9.5115948e-34
9.5119203e-34
9.5130331e-34
9.5161129e-34
9.5433783e-34
9.522616e-34
9.5149434e-34
9.5124467e-34
9.5117499e-34
9.5115948e-34
9.5116414e-34
9.5119671e-34
9.5130803e-34
9.5161605e-34
9.5436453e-34
9.522911e-34
9.5152576e-34
9.5127688e-34
9.5120747e-34
9.5119203e-34
9.5119671e-34
9.5122931e-34
9.5134066e-34
9.5164874e-34
9.5445765e-34
9.5239447e-34
9.5163446e-34
9.5138748e-34
9.5131861e-34
9.5130331e-34
9.5130803e-34
9.5134066e-34
9.5145212e-34
9.5176045e-34
9.547172e-34
9.5268886e-34
9.5193891e-34
9.5169465e-34
9.5162644e-34
9.5161129e-34
9.5161605e-34
9.5164874e-34
9.5176045e-34
9.5206973e-34
3.5019726e-33
3.494603e-33
3.4918139e-33
3.4909042e-33
3.4906497e-33
3.4905915e-33
3.4906022e-33
3.490698e-33
3.4910333e-33
3.4920087e-33
3.494603e-33
3.4872737e-33
3.4844968e-33
3.4835907e-33
3.4833373e-33
3.4832799e-33
3.4832931e-33
3.4833992e-33
3.4837719e-33
3.4848751e-33
3.4918139e-33
3.4844968e-33
3.4817253e-33
3.480821e-33
3.4805682e-33
3.4805114e-33
3.4805267e-33
3.4806398e-33
3.481032e-33
3.4821719e-33
3.4909042e-33
3.4835907e-33
3.480821e-33
3.4799174e-33
3.4796649e-33
3.4796084e-33
3.4796246e-33
3.4797406e-33
3.4801397e-33
3.4812895e-33
3.4906497e-33
3.4833373e-33
3.4805682e-33
3.4796649e-33
3.4794125e-33
3.4793562e-33
3.4793727e-33
3.4794897e-33
3.4798908e-33
3.481043e-33
3.4905915e-33
3.4832799e-33
3.4805114e-33
3.4796084e-33
3.4793562e-33
3.4792999e-33
3.4793166e-33
3.4794338e-33
3.4798354e-33
3.4809882e-33
3.4906022e-33
3.4832931e-33
3.4805267e-33
3.4796246e-33
3.4793727e-33
3.4793166e-33
3.4793334e-33
3.4794507e-33
3.4798524e-33
3.4810053e-33
3.490698e-33
3.4833992e-33
3.4806398e-33
3.4797406e-33
3.4794897e-33
3.4794338e-33
3.4794507e-33
3.479568e-33
3.4799699e-33
3.481123e-33
3.4910333e-33
3.4837719e-33
3.481032e-33
3.4801397e-33
3.4798908e-33
3.4798354e-33
3.4798524e-33
3.4799699e-33
3.4803721e-33
3.4815261e-33
3.4920087e-33
3.4848751e-33
3.4821719e-33
3.4812895e-33
3.481043e-33
3.4809882e-33
3.4810053e-33
3.481123e-33
3.4815261e-33
3.4826839e-33
8.427308e-33
8.4101428e-33
8.4035845e-33
8.4014409e-33
8.4008407e-33
8.4007032e-33
8.4007276e-33
8.4009512e-33
8.4017341e-33
8.4040817e-33
8.4101428e-33
8.3930702e-33
8.3865402e-33
8.3844049e-33
8.3838071e-33
8.3836716e-33
8.3837022e-33
8.3839503e-33
8.3848229e-33
8.3874773e-33
8.4035845e-33
8.3865402e-33
8.3800226e-33
8.3778916e-33
8.3772953e-33
8.3771612e-33
8.3771968e-33
8.3774616e-33
8.3783808e-33
8.3811231e-33
8.4014409e-33
8.3844049e-33
8.3778916e-33
8.3757622e-33
8.3751666e-33
8.3750332e-33
8.3750711e-33
8.3753429e-33
8.3762786e-33
8.3790446e-33
8.4008407e-33
8.3838071e-33
8.3772953e-33
8.3751666e-33
8.3745712e-33
8.3744382e-33
8.3744769e-33
8.3747509e-33
8.3756914e-33
8.3784631e-33
8.4007032e-33
8.3836716e-33
8.3771612e-33
8.3750332e-33
8.3744382e-33
8.3743054e-33
8.3743443e-33
8.374619e-33
8.3755606e-33
8.3783337e-33
8.4007276e-33
8.3837022e-33
8.3771968e-33
8.3750711e-33
8.3744769e-33
8.3743443e-33
8.3743834e-33
8.3746583e-33
8.3756003e-33
8.3783737e-33
8.4009512e-33
8.3839503e-33
8.3774616e-33
8.3753429e-33
8.3747509e-33
8.374619e-33
8.3746583e-33
8.3749334e-33
8.3758757e-33
8.3786496e-33
8.4017341e-33
8.3848229e-33
8.3783808e-33
8.3762786e-33
8.3756914e-33
8.3755606e-33
8.3756003e-33
8.3758757e-33
8.3768188e-33
8.3795949e-33
8.4040817e-33
8.3874773e-33
8.3811231e-33
8.3790446e-33
8.3784631e-33
8.3783337e-33
8.3783737e-33
8.3786496e-33
8.3795949e-33
8.38238e-33
1.9269812e-32
1.9231805e-32
1.9217213e-32
1.9212435e-32
1.9211095e-32
1.9210788e-32
1.9210841e-32
1.9211333e-32
1.9213053e-32
1.9218235e-32
1.9231805e-32
1.9194002e-32
1.9179472e-32
1.9174711e-32
1.9173377e-32
1.9173074e-32
1.9173141e-32
1.9173689e-32
1.9175613e-32
1.9181493e-32
1.9217213e-32
1.9179472e-32
1.9164969e-32
1.9160218e-32
1.9158887e-32
1.9158587e-32
1.9158665e-32
1.9159251e-32
1.9161281e-32
1.9167362e-32
1.9212435e-32
1.9174711e-32
1.9160218e-32
1.9155471e-32
1.9154141e-32
1.9153843e-32
1.9153927e-32
1.9154528e-32
1.9156596e-32
1.916273e-32
1.9211095e-32
1.9173377e-32
1.9158887e-32
1.9154141e-32
1.9152812e-32
1.9152515e-32
1.91526e-32
1.9153207e-32
1.9155285e-32
1.9161433e-32
1.9210788e-32
1.9173074e-32
1.9158587e-32
1.9153843e-32
1.9152515e-32
1.9152218e-32
1.9152304e-32
1.9152912e-32
1.9154993e-32
1.9161144e-32
1.9210841e-32
1.9173141e-32
1.9158665e-32
1.9153927e-32
1.91526e-32
1.9152304e-32
1.915239e-32
1.9152999e-32
1.9155081e-32
1.9161232e-32
1.9211333e-32
1.9173689e-32
1.9159251e-32
1.9154528e-32
1.9153207e-32
1.9152912e-32
1.9152999e-32
1.9153608e-32
1.915569e-32
1.9161843e-32
1.9213053e-32
1.9175613e-32
1.9161281e-32
1.9156596e-32
1.9155285e-32
1.9154993e-32
1.9155081e-32
1.915569e-32
1.9157775e-32
1.9163932e-32
1.9218235e-32
1.9181493e-32
1.9167362e-32
1.916273e-32
1.9161433e-32
1.9161144e-32
1.9161232e-32
1.9161843e-32
1.9163932e-32
1.9170109e-32
4.411774e-32
4.4033501e-32
4.400105e-32
4.3990403e-32
4.3987415e-32
4.3986728e-32
4.3986843e-32
4.3987924e-32
4.3991691e-32
4.4002993e-32
4.4033501e-32
4.3949707e-32
4.3917391e-32
4.3906785e-32
4.3903809e-32
4.3903131e-32
4.3903278e-32
4.3904486e-32
4.3908717e-32
4.3921611e-32
4.400105e-32
4.3917391e-32
4.3885135e-32
4.387455e-32
4.3871581e-32
4.3870911e-32
4.3871083e-32
4.3872378e-32
4.3876849e-32
4.3890199e-32
4.3990403e-32
4.3906785e-32
4.387455e-32
4.3863973e-32
4.3861007e-32
4.3860341e-32
4.3860525e-32
4.3861855e-32
4.3866412e-32
4.3879884e-32
4.3987415e-32
4.3903809e-32
4.3871581e-32
4.3861007e-32
4.3858043e-32
4.3857379e-32
4.3857566e-32
4.3858909e-32
4.386349e-32
4.3876992e-32
4.3986728e-32
4.3903131e-32
4.3870911e-32
4.3860341e-32
4.3857379e-32
4.3856715e-32
4.3856904e-32
4.385825e-32
4.3862838e-32
4.3876346e-32
4.3986843e-32
4.3903278e-32
4.3871083e-32
4.3860525e-32
4.3857566e-32
4.3856904e-32
4.3857094e-32
4.3858441e-32
4.386303e-32
4.3876541e-32
4.3987924e-32
4.3904486e-32
4.3872378e-32
4.3861855e-32
4.3858909e-32
4.385825e-32
4.3858441e-32
4.3859788e-32
4.3864379e-32
4.3877892e-32
4.3991691e-32
4.3908717e-32
4.3876849e-32
4.3866412e-32
4.386349e-32
4.3862838e-32
4.386303e-32
4.3864379e-32
4.3868974e-32
4.3882497e-32
4.4002993e-32
4.3921611e-32
4.3890199e-32
4.3879884e-32
4.3876992e-32
4.3876346e-32
4.3876541e-32
4.3877892e-32
4.3882497e-32
4.3896064e-32
1.0215593e-31
1.0196717e-31
1.0189423e-31
1.0187027e-31
1.0186353e-31
1.0186198e-31
1.0186223e-31
1.0186463e-31
1.0187296e-31
1.0189779e-31
1.0196717e-31
1.0177939e-31
1.0170675e-31
1.0168288e-31
1.0167617e-31
1.0167464e-31
1.0167496e-31
1.0167765e-31
1.0168705e-31
1.0171554e-31
1.0189423e-31
1.0170675e-31
1.0163426e-31
1.0161043e-31
1.0160373e-31
1.0160222e-31
1.016026e-31
1.0160549e-31
1.0161544e-31
1.0164498e-31
1.0187027e-31
1.0168288e-31
1.0161043e-31
1.0158661e-31
1.0157993e-31
1.0157842e-31
1.0157883e-31
1.015818e-31
1.0159195e-31
1.0162177e-31
1.0186353e-31
1.0167617e-31
1.0160373e-31
1.0157993e-31
1.0157325e-31
1.0157175e-31
1.0157216e-31
1.0157516e-31
1.0158537e-31
1.0161526e-31
1.0186198e-31
1.0167464e-31
1.0160222e-31
1.0157842e-31
1.0157175e-31
1.0157025e-31
1.0157067e-31
1.0157368e-31
1.0158389e-31
1.016138e-31
1.0186223e-31
1.0167496e-31
1.016026e-31
1.0157883e-31
1.0157216e-31
1.0157067e-31
1.0157109e-31
1.015741e-31
1.0158432e-31
1.0161423e-31
1.0186463e-31
1.0167765e-31
1.0160549e-31
1.015818e-31
1.0157516e-31
1.0157368e-31
1.015741e-31
1.0157711e-31
1.0158734e-31
1.0161726e-31
1.0187296e-31
1.0168705e-31
1.0161544e-31
1.0159195e-31
1.0158537e-31
1.0158389e-31
1.0158432e-31
1.0158734e-31
1.0159757e-31
1.0162751e-31
1.0189779e-31
1.0171554e-31
1.0164498e-31
1.0162177e-31
1.0161526e-31
1.016138e-31
1.0161423e-31
1.0161726e-31
1.0162751e-31
1.0165754e-31
2.3972194e-31
2.3929346e-31
2.3912744e-31
2.3907279e-31
2.3905742e-31
2.3905387e-31
2.3905442e-31
2.3905982e-31
2.3907847e-31
2.3913366e-31
2.3929346e-31
2.3886719e-31
2.3870184e-31
2.3864739e-31
2.3863208e-31
2.3862858e-31
2.386293e-31
2.3863538e-31
2.3865652e-31
2.3872027e-31
2.3912744e-31
2.3870184e-31
2.385368e-31
2.3848245e-31
2.3846718e-31
2.3846372e-31
2.3846458e-31
2.3847111e-31
2.3849354e-31
2.3855973e-31
2.3907279e-31
2.3864739e-31
2.3848245e-31
2.3842815e-31
2.3841289e-31
2.3840945e-31
2.3841037e-31
2.384171e-31
2.3843999e-31
2.3850683e-31
2.3905742e-31
2.3863208e-31
2.3846718e-31
2.3841289e-31
2.3839764e-31
2.3839421e-31
2.3839515e-31
2.3840194e-31
2.3842496e-31
2.3849197e-31
2.3905387e-31
2.3862858e-31
2.3846372e-31
2.3840945e-31
2.3839421e-31
2.3839078e-31
2.3839173e-31
2.3839855e-31
2.3842159e-31
2.3848864e-31
2.3905442e-31
2.386293e-31
2.3846458e-31
2.3841037e-31
2.3839515e-31
2.3839173e-31
2.3839269e-31
2.3839951e-31
2.3842256e-31
2.3848962e-31
2.3905982e-31
2.3863538e-31
2.3847111e-31
2.384171e-31
2.3840194e-31
2.3839855e-31
2.3839951e-31
2.3840633e-31
2.3842939e-31
2.3849646e-31
2.3907847e-31
2.3865652e-31
2.3849354e-31
2.3843999e-31
2.3842496e-31
2.3842159e-31
2.3842256e-31
2.3842939e-31
2.3845248e-31
2.3851959e-31
2.3913366e-31
2.3872027e-31
2.3855973e-31
2.3850683e-31
2.3849197e-31
2.3848864e-31
2.3848962e-31
2.3849646e-31
2.3851959e-31
2.3858691e-31
5.7034973e-31
5.6936401e-31
5.6898103e-31
5.6885477e-31
5.688192e-31
5.6881098e-31
5.6881222e-31
5.6882453e-31
5.6886686e-31
5.6899117e-31
5.6936401e-31
5.6838333e-31
5.6800188e-31
5.6787607e-31
5.6784064e-31
5.6783254e-31
5.6783417e-31
5.6784808e-31
5.6789629e-31
5.6804084e-31
5.6898103e-31
5.6800188e-31
5.6762112e-31
5.6749555e-31
5.6746021e-31
5.674522e-31
5.6745415e-31
5.6746915e-31
5.675204e-31
5.6767071e-31
5.6885477e-31
5.6787607e-31
5.6749555e-31
5.6737007e-31
5.6733477e-31
5.673268e-31
5.6732891e-31
5.6734436e-31
5.6739668e-31
5.6754855e-31
5.688192e-31
5.6784064e-31
5.6746021e-31
5.6733477e-31
5.6729948e-31
5.6729154e-31
5.672937e-31
5.6730929e-31
5.6736192e-31
5.6751417e-31
5.6881098e-31
5.6783254e-31
5.674522e-31
5.673268e-31
5.6729154e-31
5.6728361e-31
5.6728578e-31
5.6730142e-31
5.6735413e-31
5.6750646e-31
5.6881222e-31
5.6783417e-31
5.6745415e-31
5.6732891e-31
5.672937e-31
5.6728578e-31
5.6728797e-31
5.6730362e-31
5.6735635e-31
5.6750871e-31
5.6882453e-31
5.6784808e-31
5.6746915e-31
5.6734436e-31
5.6730929e-31
5.6730142e-31
5.6730362e-31
5.6731928e-31
5.6737203e-31
5.6752441e-31
5.6886686e-31
5.6789629e-31
5.675204e-31
5.6739668e-31
5.6736192e-31
5.6735413e-31
5.6735635e-31
5.6737203e-31
5.6742482e-31
5.6757732e-31
5.6899117e-31
5.6804084e-31
5.6767071e-31
5.6754855e-31
5.6751417e-31
5.6750646e-31
5.6750871e-31
5.6752441e-31
5.6757732e-31
5.6773028e-31
1.3760245e-30
1.373726e-30
1.3728306e-30
1.3725349e-30
1.3724516e-30
1.3724323e-30
1.3724351e-30
1.3724635e-30
1.3725609e-30
1.3728447e-30
1.373726e-30
1.3714392e-30
1.3705473e-30
1.3702527e-30
1.3701696e-30
1.3701506e-30
1.3701544e-30
1.3701866e-30
1.3702981e-30
1.3706304e-30
1.3728306e-30
1.3705473e-30
1.3696571e-30
1.369363e-30
1.3692801e-30
1.3692613e-30
1.3692658e-30
1.3693007e-30
1.3694194e-30
1.3697656e-30
1.3725349e-30
1.3702527e-30
1.369363e-30
1.3690691e-30
1.3689863e-30
1.3689676e-30
1.3689725e-30
1.3690085e-30
1.3691298e-30
1.3694796e-30
1.3724516e-30
1.3701696e-30
1.3692801e-30
1.3689863e-30
1.3689036e-30
1.368885e-30
1.36889e-30
1.3689263e-30
1.3690483e-30
1.3693991e-30
1.3724323e-30
1.3701506e-30
1.3692613e-30
1.3689676e-30
1.368885e-30
1.3688663e-30
1.3688714e-30
1.3689078e-30
1.36903e-30
1.369381e-30
1.3724351e-30
1.3701544e-30
1.3692658e-30
1.3689725e-30
1.36889e-30
1.3688714e-30
1.3688765e-30
1.3689129e-30
1.3690352e-30
1.3693862e-30
1.3724635e-30
1.3701866e-30
1.3693007e-30
1.3690085e-30
1.3689263e-30
1.3689078e-30
1.3689129e-30
1.3689493e-30
1.3690717e-30
1.3694227e-30
1.3725609e-30
1.3702981e-30
1.3694194e-30
1.3691298e-30
1.3690483e-30
1.36903e-30
1.3690352e-30
1.3690717e-30
1.3691941e-30
1.3695454e-30
1.3728447e-30
1.3706304e-30
1.3697656e-30
1.3694796e-30
1.3693991e-30
1.369381e-30
1.3693862e-30
1.3694227e-30
1.3695454e-30
1.3698978e-30
3.3666451e-30
3.3612126e-30
3.3590906e-30
3.3583888e-30
3.3581907e-30
3.3581447e-30
3.3581512e-30
3.3582178e-30
3.358445e-30
3.359102e-30
3.3612126e-30
3.3558073e-30
3.3536936e-30
3.3529942e-30
3.3527968e-30
3.3527515e-30
3.3527603e-30
3.3528362e-30
3.3530975e-30
3.3538723e-30
3.3590906e-30
3.3536936e-30
3.3515836e-30
3.3508855e-30
3.3506886e-30
3.3506438e-30
3.3506545e-30
3.3507367e-30
3.3510156e-30
3.3518239e-30
3.3583888e-30
3.3529942e-30
3.3508855e-30
3.3501879e-30
3.3499912e-30
3.3499467e-30
3.3499582e-30
3.3500431e-30
3.3503282e-30
3.3511455e-30
3.3581907e-30
3.3527968e-30
3.3506886e-30
3.3499912e-30
3.3497946e-30
3.3497503e-30
3.3497621e-30
3.3498478e-30
3.3501347e-30
3.3509542e-30
3.3581447e-30
3.3527515e-30
3.3506438e-30
3.3499467e-30
3.3497503e-30
3.349706e-30
3.3497179e-30
3.3498038e-30
3.3500912e-30
3.3509112e-30
3.3581512e-30
3.3527603e-30
3.3506545e-30
3.3499582e-30
3.3497621e-30
3.3497179e-30
3.3497298e-30
3.3498158e-30
3.3501034e-30
3.3509235e-30
3.3582178e-30
3.3528362e-30
3.3507367e-30
3.3500431e-30
3.3498478e-30
3.3498038e-30
3.3498158e-30
3.3499019e-30
3.3501895e-30
3.3510098e-30
3.358445e-30
3.3530975e-30
3.3510156e-30
3.3503282e-30
3.3501347e-30
3.3500912e-30
3.3501034e-30
3.3501895e-30
3.3504774e-30
3.3512982e-30
3.359102e-30
3.3538723e-30
3.3518239e-30
3.3511455e-30
3.3509542e-30
3.3509112e-30
3.3509235e-30
3.3510098e-30
3.3512982e-30
3.3521215e-30
8.353752e-30
8.3407362e-30
8.3356387e-30
8.3339502e-30
8.3334731e-30
8.3333622e-30
8.3333773e-30
8.3335356e-30
8.3340728e-30
8.3356147e-30
8.3407362e-30
8.3277848e-30
8.3227069e-30
8.3210242e-30
8.3205488e-30
8.3204395e-30
8.3204603e-30
8.3206414e-30
8.3212626e-30
8.3230942e-30
8.3356387e-30
8.3227069e-30
8.3176379e-30
8.3159582e-30
8.315484e-30
8.315376e-30
8.3154013e-30
8.3155979e-30
8.3162624e-30
8.3181765e-30
8.3339502e-30
8.3210242e-30
8.3159582e-30
8.3142798e-30
8.3138061e-30
8.3136988e-30
8.3137262e-30
8.3139292e-30
8.3146091e-30
8.3165454e-30
8.3334731e-30
8.3205488e-30
8.315484e-30
8.3138061e-30
8.3133326e-30
8.3132256e-30
8.3132537e-30
8.3134588e-30
8.3141431e-30
8.3160848e-30
8.3333622e-30
8.3204395e-30
8.315376e-30
8.3136988e-30
8.3132256e-30
8.3131188e-30
8.3131472e-30
8.3133528e-30
8.3140382e-30
8.3159811e-30
8.3333773e-30
8.3204603e-30
8.3154013e-30
8.3137262e-30
8.3132537e-30
8.3131472e-30
8.3131757e-30
8.3133816e-30
8.3140672e-30
8.3160105e-30
8.3335356e-30
8.3206414e-30
8.3155979e-30
8.3139292e-30
8.3134588e-30
8.3133528e-30
8.3133816e-30
8.3135876e-30
8.3142735e-30
8.3162171e-30
8.3340728e-30
8.3212626e-30
8.3162624e-30
8.3146091e-30
8.3141431e-30
8.3140382e-30
8.3140672e-30
8.3142735e-30
8.3149599e-30
8.3169049e-30
8.3356147e-30
8.3230942e-30
8.3181765e-30
8.3165454e-30
8.3160848e-30
8.3159811e-30
8.3160105e-30
8.3162171e-30
8.3169049e-30
8.3188555e-30
2.1023305e-29
2.0991692e-29
2.0979279e-29
2.0975161e-29
2.0973996e-29
2.0973725e-29
2.0973761e-29
2.0974142e-29
2.097543e-29
2.0979099e-29
2.0991692e-29
2.0960233e-29
2.0947867e-29
2.0943763e-29
2.0942603e-29
2.0942335e-29
2.0942385e-29
2.0942823e-29
2.0944321e-29
2.0948713e-29
2.0979279e-29
2.0947867e-29
2.0935523e-29
2.0931426e-29
2.0930268e-29
2.0930004e-29
2.0930066e-29
2.0930542e-29
2.0932148e-29
2.0936745e-29
2.0975161e-29
2.0943763e-29
2.0931426e-29
2.0927333e-29
2.0926176e-29
2.0925914e-29
2.092598e-29
2.0926473e-29
2.0928117e-29
2.093277e-29
2.0973996e-29
2.0942603e-29
2.0930268e-29
2.0926176e-29
2.092502e-29
2.0924758e-29
2.0924827e-29
2.0925325e-29
2.0926979e-29
2.0931646e-29
2.0973725e-29
2.0942335e-29
2.0930004e-29
2.0925914e-29
2.0924758e-29
2.0924497e-29
2.0924566e-29
2.0925066e-29
2.0926723e-29
2.0931392e-29
2.0973761e-29
2.0942385e-29
2.0930066e-29
2.092598e-29
2.0924827e-29
2.0924566e-29
2.0924636e-29
2.0925135e-29
2.0926794e-29
2.0931464e-29
2.0974142e-29
2.0942823e-29
2.0930542e-29
2.0926473e-29
2.0925325e-29
2.0925066e-29
2.0925135e-29
2.0925635e-29
2.0927294e-29
2.0931965e-29
2.097543e-29
2.0944321e-29
2.0932148e-29
2.0928117e-29
2.0926979e-29
2.0926723e-29
2.0926794e-29
2.0927294e-29
2.0928954e-29
2.0933629e-29
2.0979099e-29
2.0948713e-29
2.0936745e-29
2.093277e-29
2.0931646e-29
2.0931392e-29
2.0931464e-29
2.0931965e-29
2.0933629e-29
2.0938316e-29
5.3662801e-29
5.3584961e-29
5.355432e-29
5.354414e-29
5.3541257e-29
5.3540585e-29
5.3540671e-29
5.3541602e-29
5.3544735e-29
5.3553586e-29
5.3584961e-29
5.3507497e-29
5.3476971e-29
5.3466824e-29
5.3463952e-29
5.346329e-29
5.3463411e-29
5.3464486e-29
5.3468149e-29
5.3478828e-29
5.355432e-29
5.3476971e-29
5.3446496e-29
5.3436368e-29
5.3433503e-29
5.3432849e-29
5.3432999e-29
5.3434171e-29
5.3438106e-29
5.3449306e-29
5.354414e-29
5.3466824e-29
5.3436368e-29
5.3426248e-29
5.3423385e-29
5.3422736e-29
5.3422899e-29
5.3424111e-29
5.3428143e-29
5.3439483e-29
5.3541257e-29
5.3463952e-29
5.3433503e-29
5.3423385e-29
5.3420524e-29
5.3419876e-29
5.3420044e-29
5.342127e-29
5.3425329e-29
5.3436703e-29
5.3540585e-29
5.346329e-29
5.3432849e-29
5.3422736e-29
5.3419876e-29
5.3419229e-29
5.3419399e-29
5.3420628e-29
5.3424694e-29
5.3436076e-29
5.3540671e-29
5.3463411e-29
5.3432999e-29
5.3422899e-29
5.3420044e-29
5.3419399e-29
5.3419569e-29
5.34208e-29
5.3424868e-29
5.3436251e-29
5.3541602e-29
5.3464486e-29
5.3434171e-29
5.3424111e-29
5.342127e-29
5.3420628e-29
5.34208e-29
5.3422031e-29
5.34261e-29
5.3437486e-29
5.3544735e-29
5.3468149e-29
5.3438106e-29
5.3428143e-29
5.3425329e-29
5.3424694e-29
5.3424868e-29
5.34261e-29
5.3430173e-29
5.3441566e-29
5.3553586e-29
5.3478828e-29
5.3449306e-29
5.3439483e-29
5.3436703e-29
5.3436076e-29
5.3436251e-29
5.3437486e-29
5.3441566e-29
5.3452992e-29
1.3893508e-28
1.3874078e-28
1.386641e-28
1.3863859e-28
1.3863136e-28
1.3862967e-28
1.3862988e-28
1.3863219e-28
1.3863992e-28
1.3866157e-28
1.3874078e-28
1.3854741e-28
1.3847101e-28
1.3844558e-28
1.3843838e-28
1.3843671e-28
1.3843702e-28
1.3843969e-28
1.3844877e-28
1.3847512e-28
1.386641e-28
1.3847101e-28
1.3839475e-28
1.3836937e-28
1.3836218e-28
1.3836053e-28
1.3836091e-28
1.3836383e-28
1.3837361e-28
1.3840129e-28
1.3863859e-28
1.3844558e-28
1.3836937e-28
1.38344e-28
1.3833682e-28
1.3833519e-28
1.383356e-28
1.3833862e-28
1.3834865e-28
1.3837669e-28
1.3863136e-28
1.3843838e-28
1.3836218e-28
1.3833682e-28
1.3832964e-28
1.3832802e-28
1.3832843e-28
1.383315e-28
1.3834159e-28
1.3836972e-28
1.3862967e-28
1.3843671e-28
1.3836053e-28
1.3833519e-28
1.3832802e-28
1.3832639e-28
1.3832681e-28
1.3832988e-28
1.3834e-28
1.3836814e-28
1.3862988e-28
1.3843702e-28
1.3836091e-28
1.383356e-28
1.3832843e-28
1.3832681e-28
1.3832724e-28
1.3833031e-28
1.3834043e-28
1.3836858e-28
1.3863219e-28
1.3843969e-28
1.3836383e-28
1.3833862e-28
1.383315e-28
1.3832988e-28
1.3833031e-28
1.3833339e-28
1.3834351e-28
1.3837166e-28
1.3863992e-28
1.3844877e-28
1.3837361e-28
1.3834865e-28
1.3834159e-28
1.3834e-28
1.3834043e-28
1.3834351e-28
1.3835364e-28
1.3838181e-28
1.3866157e-28
1.3847512e-28
1.3840129e-28
1.3837669e-28
1.3836972e-28
1.3836814e-28
1.3836858e-28
1.3837166e-28
1.3838181e-28
1.3841006e-28
3.6485925e-28
3.6436754e-28
3.6417303e-28
3.6410823e-28
3.6408984e-28
3.6408554e-28
3.6408605e-28
3.6409185e-28
3.6411117e-28
3.6416489e-28
3.6436754e-28
3.6387817e-28
3.6368437e-28
3.6361977e-28
3.6360144e-28
3.6359721e-28
3.6359796e-28
3.6360471e-28
3.6362756e-28
3.6369346e-28
3.6417303e-28
3.6368437e-28
3.6349089e-28
3.6342641e-28
3.6340812e-28
3.6340394e-28
3.6340488e-28
3.6341228e-28
3.6343694e-28
3.6350631e-28
3.6410823e-28
3.6361977e-28
3.6342641e-28
3.6336197e-28
3.633437e-28
3.6333955e-28
3.6334058e-28
3.6334825e-28
3.6337355e-28
3.6344385e-28
3.6408984e-28
3.6360144e-28
3.6340812e-28
3.633437e-28
3.6332545e-28
3.6332131e-28
3.6332237e-28
3.6333012e-28
3.6335561e-28
3.6342614e-28
3.6408554e-28
3.6359721e-28
3.6340394e-28
3.6333955e-28
3.6332131e-28
3.6331718e-28
3.6331825e-28
3.6332602e-28
3.6335155e-28
3.6342214e-28
3.6408605e-28
3.6359796e-28
3.6340488e-28
3.6334058e-28
3.6332237e-28
3.6331825e-28
3.6331932e-28
3.6332711e-28
3.6335265e-28
3.6342325e-28
3.6409185e-28
3.6360471e-28
3.6341228e-28
3.6334825e-28
3.6333012e-28
3.6332602e-28
3.6332711e-28
3.633349e-28
3.6336045e-28
3.6343106e-28
3.6411117e-28
3.6362756e-28
3.6343694e-28
3.6337355e-28
3.6335561e-28
3.6335155e-28
3.6335265e-28
3.6336045e-28
3.6338602e-28
3.6345667e-28
3.6416489e-28
3.6369346e-28
3.6350631e-28
3.6344385e-28
3.6342614e-28
3.6342214e-28
3.6342325e-28
3.6343106e-28
3.6345667e-28
3.6352752e-28
9.7189036e-28
9.7062891e-28
9.7012872e-28
9.6996184e-28
9.6991443e-28
9.6990333e-28
9.6990462e-28
9.6991939e-28
9.6996841e-28
9.7010354e-28
9.7062891e-28
9.6937339e-28
9.6887499e-28
9.6870863e-28
9.6866139e-28
9.6865046e-28
9.6865238e-28
9.6866966e-28
9.6872795e-28
9.6889521e-28
9.7012872e-28
9.6887499e-28
9.6837743e-28
9.6821136e-28
9.6816423e-28
9.6815344e-28
9.6815585e-28
9.6817484e-28
9.682379e-28
9.6841428e-28
9.6996184e-28
9.6870863e-28
9.6821136e-28
9.6804541e-28
9.6799833e-28
9.6798761e-28
9.6799025e-28
9.6800994e-28
9.6807469e-28
9.6825353e-28
9.6991443e-28
9.6866139e-28
9.6816423e-28
9.6799833e-28
9.6795127e-28
9.6794059e-28
9.6794331e-28
9.6796323e-28
9.6802846e-28
9.682079e-28
9.6990333e-28
9.6865046e-28
9.6815344e-28
9.6798761e-28
9.6794059e-28
9.6792992e-28
9.6793268e-28
9.6795266e-28
9.6801801e-28
9.6819759e-28
9.6990462e-28
9.6865238e-28
9.6815585e-28
9.6799025e-28
9.6794331e-28
9.6793268e-28
9.6793544e-28
9.6795545e-28
9.6802083e-28
9.6820044e-28
9.6991939e-28
9.6866966e-28
9.6817484e-28
9.6800994e-28
9.6796323e-28
9.6795266e-28
9.6795545e-28
9.6797546e-28
9.6804087e-28
9.6822051e-28
9.6996841e-28
9.6872795e-28
9.682379e-28
9.6807469e-28
9.6802846e-28
9.6801801e-28
9.6802083e-28
9.6804087e-28
9.6810632e-28
9.6828608e-28
9.7010354e-28
9.6889521e-28
9.6841428e-28
9.6825353e-28
9.682079e-28
9.6819759e-28
9.6820044e-28
9.6822051e-28
9.6828608e-28
9.6846631e-28
2.6259478e-27
2.6226671e-27
2.6213632e-27
2.6209276e-27
2.6208037e-27
2.6207747e-27
2.620778e-27
2.6208161e-27
2.6209422e-27
2.6212869e-27
2.6226671e-27
2.6194017e-27
2.6181024e-27
2.6176681e-27
2.6175447e-27
2.6175161e-27
2.6175211e-27
2.6175659e-27
2.6177168e-27
2.6181473e-27
2.6213632e-27
2.6181024e-27
2.6168053e-27
2.6163718e-27
2.6162486e-27
2.6162204e-27
2.6162267e-27
2.6162761e-27
2.6164397e-27
2.6168946e-27
2.6209276e-27
2.6176681e-27
2.6163718e-27
2.6159385e-27
2.6158155e-27
2.6157875e-27
2.6157944e-27
2.6158457e-27
2.6160138e-27
2.6164753e-27
2.6208037e-27
2.6175447e-27
2.6162486e-27
2.6158155e-27
2.6156926e-27
2.6156646e-27
2.6156717e-27
2.6157236e-27
2.615893e-27
2.6163561e-27
2.6207747e-27
2.6175161e-27
2.6162204e-27
2.6157875e-27
2.6156646e-27
2.6156368e-27
2.6156439e-27
2.615696e-27
2.6158657e-27
2.6163291e-27
2.620778e-27
2.6175211e-27
2.6162267e-27
2.6157944e-27
2.6156717e-27
2.6156439e-27
2.6156511e-27
2.6157033e-27
2.615873e-27
2.6163366e-27
2.6208161e-27
2.6175659e-27
2.6162761e-27
2.6158457e-27
2.6157236e-27
2.615696e-27
2.6157033e-27
2.6157554e-27
2.6159253e-27
2.6163889e-27
2.6209422e-27
2.6177168e-27
2.6164397e-27
2.6160138e-27
2.615893e-27
2.6158657e-27
2.615873e-27
2.6159253e-27
2.6160952e-27
2.6165591e-27
2.6212869e-27
2.6181473e-27
2.6168946e-27
2.6164753e-27
2.6163561e-27
2.6163291e-27
2.6163366e-27
2.6163889e-27
2.6165591e-27
2.6170242e-27
7.1965555e-27
7.1879064e-27
7.1844611e-27
7.1833084e-27
7.1829803e-27
7.1829033e-27
7.1829118e-27
7.1830118e-27
7.1833407e-27
7.1842325e-27
7.1879064e-27
7.1792972e-27
7.1758639e-27
7.1747147e-27
7.1743878e-27
7.174312e-27
7.174325e-27
7.1744431e-27
7.1748391e-27
7.1759633e-27
7.1844611e-27
7.1758639e-27
7.1724361e-27
7.171289e-27
7.1709628e-27
7.170888e-27
7.1709045e-27
7.171035e-27
7.1714653e-27
7.1726556e-27
7.1833084e-27
7.1747147e-27
7.171289e-27
7.1701426e-27
7.1698168e-27
7.1697425e-27
7.1697607e-27
7.1698962e-27
7.1703388e-27
7.1715468e-27
7.1829803e-27
7.1743878e-27
7.1709628e-27
7.1698168e-27
7.1694911e-27
7.1694171e-27
7.1694359e-27
7.169573e-27
7.1700191e-27
7.1712314e-27
7.1829033e-27
7.174312e-27
7.170888e-27
7.1697425e-27
7.1694171e-27
7.1693432e-27
7.1693622e-27
7.1694998e-27
7.1699467e-27
7.17116e-27
7.1829118e-27
7.174325e-27
7.1709045e-27
7.1697607e-27
7.1694359e-27
7.1693622e-27
7.1693813e-27
7.169519e-27
7.1699662e-27
7.1711797e-27
7.1830118e-27
7.1744431e-27
7.171035e-27
7.1698962e-27
7.169573e-27
7.1694998e-27
7.169519e-27
7.1696569e-27
7.1701042e-27
7.1713179e-27
7.1833407e-27
7.1748391e-27
7.1714653e-27
7.1703388e-27
7.1700191e-27
7.1699467e-27
7.1699662e-27
7.1701042e-27
7.1705518e-27
7.1717663e-27
7.1842325e-27
7.1759633e-27
7.1726556e-27
7.1715468e-27
7.1712314e-27
7.17116e-27
7.1711797e-27
7.1713179e-27
7.1717663e-27
7.1729839e-27
2.0004151e-26
1.9981037e-26
1.9971809e-26
1.9968718e-26
1.9967837e-26
1.996763e-26
1.9967652e-26
1.9967918e-26
1.9968788e-26
1.9971128e-26
1.9981037e-26
1.9958029e-26
1.9948833e-26
1.9945751e-26
1.9944873e-26
1.994467e-26
1.9944704e-26
1.994502e-26
1.9946074e-26
1.9949051e-26
1.9971809e-26
1.9948833e-26
1.9939652e-26
1.9936575e-26
1.9935699e-26
1.9935498e-26
1.9935543e-26
1.9935892e-26
1.993704e-26
1.9940199e-26
1.9968718e-26
1.9945751e-26
1.9936575e-26
1.99335e-26
1.9932625e-26
1.9932426e-26
1.9932475e-26
1.9932838e-26
1.993402e-26
1.9937227e-26
1.9967837e-26
1.9944873e-26
1.9935699e-26
1.9932625e-26
1.9931751e-26
1.9931552e-26
1.9931603e-26
1.9931971e-26
1.9933162e-26
1.9936381e-26
1.996763e-26
1.994467e-26
1.9935498e-26
1.9932426e-26
1.9931552e-26
1.9931354e-26
1.9931405e-26
1.9931774e-26
1.9932968e-26
1.993619e-26
1.9967652e-26
1.9944704e-26
1.9935543e-26
1.9932475e-26
1.9931603e-26
1.9931405e-26
1.9931456e-26
1.9931826e-26
1.993302e-26
1.9936243e-26
1.9967918e-26
1.994502e-26
1.9935892e-26
1.9932838e-26
1.9931971e-26
1.9931774e-26
1.9931826e-26
1.9932195e-26
1.993339e-26
1.9936613e-26
1.9968788e-26
1.9946074e-26
1.993704e-26
1.993402e-26
1.9933162e-26
1.9932968e-26
1.993302e-26
1.993339e-26
1.9934586e-26
1.9937811e-26
1.9971128e-26
1.9949051e-26
1.9940199e-26
1.9937227e-26
1.9936381e-26
1.993619e-26
1.9936243e-26
1.9936613e-26
1.9937811e-26
1.9941044e-26
5.639665e-26
5.6334043e-26
5.6308993e-26
5.630059e-26
5.6298194e-26
5.629763e-26
5.6297689e-26
5.6298405e-26
5.630074e-26
5.6306964e-26
5.6334043e-26
5.6271719e-26
5.6246754e-26
5.6238376e-26
5.6235988e-26
5.6235434e-26
5.6235527e-26
5.6236381e-26
5.6239227e-26
5.6247227e-26
5.6308993e-26
5.6246754e-26
5.6221828e-26
5.6213465e-26
5.6211082e-26
5.6210535e-26
5.6210656e-26
5.6211604e-26
5.6214712e-26
5.6223215e-26
5.630059e-26
5.6238376e-26
5.6213465e-26
5.6205107e-26
5.6202727e-26
5.6202184e-26
5.6202317e-26
5.6203304e-26
5.6206505e-26
5.6215144e-26
5.6298194e-26
5.6235988e-26
5.6211082e-26
5.6202727e-26
5.6200349e-26
5.6199807e-26
5.6199945e-26
5.6200944e-26
5.6204172e-26
5.6212844e-26
5.629763e-26
5.6235434e-26
5.6210535e-26
5.6202184e-26
5.6199807e-26
5.6199267e-26
5.6199406e-26
5.6200409e-26
5.6203643e-26
5.6212323e-26
5.6297689e-26
5.6235527e-26
5.6210656e-26
5.6202317e-26
5.6199945e-26
5.6199406e-26
5.6199546e-26
5.620055e-26
5.6203786e-26
5.6212467e-26
5.6298405e-26
5.6236381e-26
5.6211604e-26
5.6203304e-26
5.6200944e-26
5.6200409e-26
5.620055e-26
5.6201555e-26
5.6204792e-26
5.6213474e-26
5.630074e-26
5.6239227e-26
5.6214712e-26
5.6206505e-26
5.6204172e-26
5.6203643e-26
5.6203786e-26
5.6204792e-26
5.6208032e-26
5.6216719e-26
5.6306964e-26
5.6247227e-26
5.6223215e-26
5.6215144e-26
5.6212844e-26
5.6212323e-26
5.6212467e-26
5.6213474e-26
5.6216719e-26
5.6225428e-26
1.6124961e-25
1.6107774e-25
1.6100882e-25
1.6098568e-25
1.6097907e-25
1.6097751e-25
1.6097767e-25
1.6097963e-25
1.6098598e-25
1.6100277e-25
1.6107774e-25
1.6090664e-25
1.6083795e-25
1.6081487e-25
1.6080829e-25
1.6080676e-25
1.6080701e-25
1.6080936e-25
1.6081715e-25
1.6083895e-25
1.6100882e-25
1.6083795e-25
1.6076937e-25
1.6074633e-25
1.6073976e-25
1.6073825e-25
1.6073859e-25
1.607412e-25
1.6074973e-25
1.6077295e-25
1.6098568e-25
1.6081487e-25
1.6074633e-25
1.6072331e-25
1.6071675e-25
1.6071525e-25
1.6071562e-25
1.6071834e-25
1.6072713e-25
1.6075073e-25
1.6097907e-25
1.6080829e-25
1.6073976e-25
1.6071675e-25
1.6071019e-25
1.607087e-25
1.6070908e-25
1.6071183e-25
1.607207e-25
1.6074439e-25
1.6097751e-25
1.6080676e-25
1.6073825e-25
1.6071525e-25
1.607087e-25
1.6070721e-25
1.6070759e-25
1.6071036e-25
1.6071924e-25
1.6074295e-25
1.6097767e-25
1.6080701e-25
1.6073859e-25
1.6071562e-25
1.6070908e-25
1.6070759e-25
1.6070798e-25
1.6071075e-25
1.6071964e-25
1.6074335e-25
1.6097963e-25
1.6080936e-25
1.607412e-25
1.6071834e-25
1.6071183e-25
1.6071036e-25
1.6071075e-25
1.6071352e-25
1.6072241e-25
1.6074613e-25
1.6098598e-25
1.6081715e-25
1.6074973e-25
1.6072713e-25
1.607207e-25
1.6071924e-25
1.6071964e-25
1.6072241e-25
1.6073131e-25
1.6075505e-25
1.6100277e-25
1.6083895e-25
1.6077295e-25
1.6075073e-25
1.6074439e-25