/*--------------------------------*- C++ -*----------------------------------*\
| =========                 |                                                 |
| \\      /  F ield         | OpenFOAM: The Open Source CFD Toolbox           |
|  \\    /   O peration     | Version:  dev                                   |
|   \\  /    A nd           | Web:      www.OpenFOAM.org                      |
|    \\/     M anipulation  |                                                 |
\*---------------------------------------------------------------------------*/
FoamFile
{
    version     2.0;
    format      ascii;
    class       volScalarField;
    location    "47.995";
    object      A_0;
}
// * * * * * * * * * * * * * * * * * * * * * * * * * * * * * * * * * * * * * //

dimensions      [0 0 0 0 1 0 0];

internalField   nonuniform List<scalar> 
10000
(
9.1240359e-34
9.1040702e-34
9.0967058e-34
9.0943141e-34
9.0936472e-34
9.0934952e-34
9.0935235e-34
9.093777e-34
9.0946628e-34
9.0971357e-34
9.1040702e-34
9.084216e-34
9.0768845e-34
9.0745025e-34
9.0738385e-34
9.0736885e-34
9.0737236e-34
9.0740037e-34
9.0749872e-34
9.0777924e-34
9.0967058e-34
9.0768845e-34
9.0695672e-34
9.0671901e-34
9.0665277e-34
9.0663793e-34
9.0664197e-34
9.0667181e-34
9.0677523e-34
9.0706533e-34
9.0943141e-34
9.0745025e-34
9.0671901e-34
9.0648147e-34
9.0641531e-34
9.0640056e-34
9.0640484e-34
9.0643543e-34
9.0654066e-34
9.0683333e-34
9.0936472e-34
9.0738385e-34
9.0665277e-34
9.0641531e-34
9.0634917e-34
9.0633446e-34
9.0633883e-34
9.0636967e-34
9.064754e-34
9.0676871e-34
9.0934952e-34
9.0736885e-34
9.0663793e-34
9.0640056e-34
9.0633446e-34
9.0631976e-34
9.0632417e-34
9.0635507e-34
9.0646093e-34
9.0675438e-34
9.0935235e-34
9.0737236e-34
9.0664197e-34
9.0640484e-34
9.0633883e-34
9.0632417e-34
9.0632859e-34
9.0635952e-34
9.0646542e-34
9.0675891e-34
9.093777e-34
9.0740037e-34
9.0667181e-34
9.0643543e-34
9.0636967e-34
9.0635507e-34
9.0635952e-34
9.0639046e-34
9.064964e-34
9.0678995e-34
9.0946628e-34
9.0749872e-34
9.0677523e-34
9.0654066e-34
9.064754e-34
9.0646093e-34
9.0646542e-34
9.064964e-34
9.0660243e-34
9.0689622e-34
9.0971357e-34
9.0777924e-34
9.0706533e-34
9.0683333e-34
9.0676871e-34
9.0675438e-34
9.0675891e-34
9.0678995e-34
9.0689622e-34
9.0719091e-34
3.3376959e-33
3.3306663e-33
3.3280106e-33
3.3271464e-33
3.3269052e-33
3.3268502e-33
3.3268603e-33
3.3269514e-33
3.3272704e-33
3.3281999e-33
3.3306663e-33
3.3236751e-33
3.3210311e-33
3.3201703e-33
3.3199302e-33
3.3198759e-33
3.3198884e-33
3.3199892e-33
3.3203439e-33
3.3213954e-33
3.3280106e-33
3.3210311e-33
3.3183922e-33
3.3175331e-33
3.3172936e-33
3.3172399e-33
3.3172544e-33
3.3173618e-33
3.317735e-33
3.3188215e-33
3.3271464e-33
3.3201703e-33
3.3175331e-33
3.3166747e-33
3.3164355e-33
3.3163821e-33
3.3163975e-33
3.3165077e-33
3.3168874e-33
3.3179833e-33
3.3269052e-33
3.3199302e-33
3.3172936e-33
3.3164355e-33
3.3161963e-33
3.316143e-33
3.3161588e-33
3.3162698e-33
3.3166515e-33
3.3177496e-33
3.3268502e-33
3.3198759e-33
3.3172399e-33
3.3163821e-33
3.316143e-33
3.3160899e-33
3.3161057e-33
3.316217e-33
3.3165991e-33
3.3176978e-33
3.3268603e-33
3.3198884e-33
3.3172544e-33
3.3163975e-33
3.3161588e-33
3.3161057e-33
3.3161216e-33
3.316233e-33
3.3166152e-33
3.317714e-33
3.3269514e-33
3.3199892e-33
3.3173618e-33
3.3165077e-33
3.3162698e-33
3.316217e-33
3.316233e-33
3.3163445e-33
3.3167268e-33
3.3178259e-33
3.3272704e-33
3.3203439e-33
3.317735e-33
3.3168874e-33
3.3166515e-33
3.3165991e-33
3.3166152e-33
3.3167268e-33
3.3171096e-33
3.3182095e-33
3.3281999e-33
3.3213954e-33
3.3188215e-33
3.3179833e-33
3.3177496e-33
3.3176978e-33
3.317714e-33
3.3178259e-33
3.3182095e-33
3.3193128e-33
8.035263e-33
8.0188832e-33
8.0126362e-33
8.010599e-33
8.01003e-33
8.0098999e-33
8.0099232e-33
8.0101356e-33
8.0108808e-33
8.0131189e-33
8.0188832e-33
8.0025917e-33
7.9963717e-33
7.9943425e-33
7.9937758e-33
7.9936475e-33
7.9936766e-33
7.9939124e-33
7.9947431e-33
7.997274e-33
8.0126362e-33
7.9963717e-33
7.9901636e-33
7.9881384e-33
7.9875731e-33
7.9874462e-33
7.98748e-33
7.9877317e-33
7.9886067e-33
7.9912214e-33
8.010599e-33
7.9943425e-33
7.9881384e-33
7.9861147e-33
7.9855501e-33
7.9854239e-33
7.9854598e-33
7.9857181e-33
7.9866089e-33
7.9892461e-33
8.01003e-33
7.9937758e-33
7.9875731e-33
7.9855501e-33
7.9849857e-33
7.9848598e-33
7.9848965e-33
7.9851569e-33
7.9860522e-33
7.9886949e-33
8.0098999e-33
7.9936475e-33
7.9874462e-33
7.9854239e-33
7.9848598e-33
7.9847341e-33
7.9847711e-33
7.9850321e-33
7.9859285e-33
7.9885724e-33
8.0099232e-33
7.9936766e-33
7.98748e-33
7.9854598e-33
7.9848965e-33
7.9847711e-33
7.9848082e-33
7.9850694e-33
7.9859661e-33
7.9886104e-33
8.0101356e-33
7.9939124e-33
7.9877317e-33
7.9857181e-33
7.9851569e-33
7.9850321e-33
7.9850694e-33
7.9853308e-33
7.9862278e-33
7.9888725e-33
8.0108808e-33
7.9947431e-33
7.9886067e-33
7.9866089e-33
7.9860522e-33
7.9859285e-33
7.9859661e-33
7.9862278e-33
7.9871256e-33
7.9897724e-33
8.0131189e-33
7.997274e-33
7.9912214e-33
7.9892461e-33
7.9886949e-33
7.9885724e-33
7.9886104e-33
7.9888725e-33
7.9897724e-33
7.9924278e-33
1.8382376e-32
1.8346091e-32
1.8332185e-32
1.8327642e-32
1.8326371e-32
1.832608e-32
1.832613e-32
1.8326598e-32
1.8328236e-32
1.8333179e-32
1.8346091e-32
1.8309999e-32
1.8296153e-32
1.8291626e-32
1.8290361e-32
1.8290074e-32
1.8290138e-32
1.8290659e-32
1.8292491e-32
1.8298101e-32
1.8332185e-32
1.8296153e-32
1.8282332e-32
1.8277815e-32
1.8276552e-32
1.8276269e-32
1.8276343e-32
1.82769e-32
1.8278833e-32
1.8284634e-32
1.8327642e-32
1.8291626e-32
1.8277815e-32
1.8273301e-32
1.827204e-32
1.8271758e-32
1.8271837e-32
1.8272409e-32
1.8274378e-32
1.828023e-32
1.8326371e-32
1.8290361e-32
1.8276552e-32
1.827204e-32
1.827078e-32
1.8270498e-32
1.8270579e-32
1.8271156e-32
1.8273135e-32
1.8278999e-32
1.832608e-32
1.8290074e-32
1.8276269e-32
1.8271758e-32
1.8270498e-32
1.8270217e-32
1.8270299e-32
1.8270877e-32
1.8272859e-32
1.8278726e-32
1.832613e-32
1.8290138e-32
1.8276343e-32
1.8271837e-32
1.8270579e-32
1.8270299e-32
1.8270381e-32
1.8270959e-32
1.8272942e-32
1.8278809e-32
1.8326598e-32
1.8290659e-32
1.82769e-32
1.8272409e-32
1.8271156e-32
1.8270877e-32
1.8270959e-32
1.8271538e-32
1.8273521e-32
1.827939e-32
1.8328236e-32
1.8292491e-32
1.8278833e-32
1.8274378e-32
1.8273135e-32
1.8272859e-32
1.8272942e-32
1.8273521e-32
1.8275506e-32
1.828138e-32
1.8333179e-32
1.8298101e-32
1.8284634e-32
1.828023e-32
1.8278999e-32
1.8278726e-32
1.8278809e-32
1.827939e-32
1.828138e-32
1.8287272e-32
4.2108044e-32
4.2027578e-32
4.1996636e-32
4.1986509e-32
4.1983673e-32
4.1983022e-32
4.1983131e-32
4.198416e-32
4.1987749e-32
4.1998534e-32
4.2027578e-32
4.1947537e-32
4.1916724e-32
4.1906635e-32
4.1903811e-32
4.1903169e-32
4.1903309e-32
4.1904458e-32
4.190849e-32
4.1920796e-32
4.1996636e-32
4.1916724e-32
4.188597e-32
4.18759e-32
4.1873083e-32
4.1872448e-32
4.1872612e-32
4.1873843e-32
4.1878104e-32
4.1890845e-32
4.1986509e-32
4.1906635e-32
4.18759e-32
4.1865838e-32
4.1863024e-32
4.1862393e-32
4.1862567e-32
4.1863833e-32
4.1868175e-32
4.1881033e-32
4.1983673e-32
4.1903811e-32
4.1873083e-32
4.1863024e-32
4.1860211e-32
4.1859582e-32
4.185976e-32
4.1861037e-32
4.1865402e-32
4.1878288e-32
4.1983022e-32
4.1903169e-32
4.1872448e-32
4.1862393e-32
4.1859582e-32
4.1858953e-32
4.1859133e-32
4.1860413e-32
4.1864784e-32
4.1877676e-32
4.1983131e-32
4.1903309e-32
4.1872612e-32
4.1862567e-32
4.185976e-32
4.1859133e-32
4.1859314e-32
4.1860594e-32
4.1864967e-32
4.1877861e-32
4.198416e-32
4.1904458e-32
4.1873843e-32
4.1863833e-32
4.1861037e-32
4.1860413e-32
4.1860594e-32
4.1861876e-32
4.186625e-32
4.1879147e-32
4.1987749e-32
4.190849e-32
4.1878104e-32
4.1868175e-32
4.1865402e-32
4.1864784e-32
4.1864967e-32
4.186625e-32
4.1870629e-32
4.1883535e-32
4.1998534e-32
4.1920796e-32
4.1890845e-32
4.1881033e-32
4.1878288e-32
4.1877676e-32
4.1877861e-32
4.1879147e-32
4.1883535e-32
4.1896482e-32
9.7555014e-32
9.7374609e-32
9.7305032e-32
9.7282221e-32
9.7275826e-32
9.7274356e-32
9.7274595e-32
9.7276879e-32
9.7284819e-32
9.7308521e-32
9.7374609e-32
9.7195145e-32
9.7125855e-32
9.7103128e-32
9.7096759e-32
9.709531e-32
9.7095618e-32
9.709818e-32
9.7107139e-32
9.7134348e-32
9.7305032e-32
9.7125855e-32
9.7056694e-32
9.7034011e-32
9.7027657e-32
9.7026224e-32
9.7026587e-32
9.7029338e-32
9.7038825e-32
9.7067033e-32
9.7282221e-32
9.7103128e-32
9.7034011e-32
9.7011345e-32
9.7004998e-32
9.7003574e-32
9.7003962e-32
9.7006791e-32
9.7016465e-32
9.7044942e-32
9.7275826e-32
9.7096759e-32
9.7027657e-32
9.7004998e-32
9.6998654e-32
9.6997233e-32
9.6997631e-32
9.7000485e-32
9.7010212e-32
9.7038755e-32
9.7274356e-32
9.709531e-32
9.7026224e-32
9.7003574e-32
9.6997233e-32
9.6995815e-32
9.6996215e-32
9.6999077e-32
9.7008817e-32
9.7037375e-32
9.7274595e-32
9.7095618e-32
9.7026587e-32
9.7003962e-32
9.6997631e-32
9.6996215e-32
9.6996618e-32
9.6999482e-32
9.7009226e-32
9.7037787e-32
9.7276879e-32
9.709818e-32
9.7029338e-32
9.7006791e-32
9.7000485e-32
9.6999077e-32
9.6999482e-32
9.7002347e-32
9.7012094e-32
9.7040661e-32
9.7284819e-32
9.7107139e-32
9.7038825e-32
9.7016465e-32
9.7010212e-32
9.7008817e-32
9.7009226e-32
9.7012094e-32
9.702185e-32
9.7050438e-32
9.7308521e-32
9.7134348e-32
9.7067033e-32
9.7044942e-32
9.7038755e-32
9.7037375e-32
9.7037787e-32
9.7040661e-32
9.7050438e-32
9.7079117e-32
2.2905098e-31
2.2864125e-31
2.2848278e-31
2.2843074e-31
2.2841613e-31
2.2841277e-31
2.284133e-31
2.2841843e-31
2.2843622e-31
2.2848894e-31
2.2864125e-31
2.2823362e-31
2.280758e-31
2.2802395e-31
2.280094e-31
2.2800609e-31
2.2800677e-31
2.2801256e-31
2.2803273e-31
2.2809363e-31
2.2848278e-31
2.280758e-31
2.2791827e-31
2.2786652e-31
2.27852e-31
2.2784872e-31
2.2784954e-31
2.2785577e-31
2.2787716e-31
2.279404e-31
2.2843074e-31
2.2802395e-31
2.2786652e-31
2.278148e-31
2.278003e-31
2.2779705e-31
2.2779792e-31
2.2780433e-31
2.2782616e-31
2.2789003e-31
2.2841613e-31
2.280094e-31
2.27852e-31
2.278003e-31
2.2778581e-31
2.2778256e-31
2.2778346e-31
2.2778993e-31
2.2781188e-31
2.278759e-31
2.2841277e-31
2.2800609e-31
2.2784872e-31
2.2779705e-31
2.2778256e-31
2.2777932e-31
2.2778022e-31
2.2778671e-31
2.2780869e-31
2.2787274e-31
2.284133e-31
2.2800677e-31
2.2784954e-31
2.2779792e-31
2.2778346e-31
2.2778022e-31
2.2778113e-31
2.2778762e-31
2.2780962e-31
2.2787368e-31
2.2841843e-31
2.2801256e-31
2.2785577e-31
2.2780433e-31
2.2778993e-31
2.2778671e-31
2.2778762e-31
2.2779412e-31
2.2781612e-31
2.2788019e-31
2.2843622e-31
2.2803273e-31
2.2787716e-31
2.2782616e-31
2.2781188e-31
2.2780869e-31
2.2780962e-31
2.2781612e-31
2.2783814e-31
2.2790225e-31
2.2848894e-31
2.2809363e-31
2.279404e-31
2.2789003e-31
2.278759e-31
2.2787274e-31
2.2787368e-31
2.2788019e-31
2.2790225e-31
2.2796657e-31
5.4526479e-31
5.4432167e-31
5.4395591e-31
5.438356e-31
5.438018e-31
5.43794e-31
5.4379518e-31
5.438069e-31
5.438473e-31
5.4396612e-31
5.4432167e-31
5.4338337e-31
5.4301908e-31
5.428992e-31
5.4286553e-31
5.4285784e-31
5.428594e-31
5.4287265e-31
5.4291866e-31
5.4305684e-31
5.4395591e-31
5.4301908e-31
5.4265545e-31
5.425358e-31
5.4250221e-31
5.4249461e-31
5.4249647e-31
5.4251076e-31
5.4255967e-31
5.4270336e-31
5.438356e-31
5.428992e-31
5.425358e-31
5.4241624e-31
5.4238268e-31
5.4237513e-31
5.4237713e-31
5.4239185e-31
5.4244179e-31
5.4258696e-31
5.438018e-31
5.4286553e-31
5.4250221e-31
5.4238268e-31
5.4234914e-31
5.4234161e-31
5.4234366e-31
5.4235852e-31
5.4240875e-31
5.4255429e-31
5.43794e-31
5.4285784e-31
5.4249461e-31
5.4237513e-31
5.4234161e-31
5.4233409e-31
5.4233616e-31
5.4235105e-31
5.4240136e-31
5.4254697e-31
5.4379518e-31
5.428594e-31
5.4249647e-31
5.4237713e-31
5.4234366e-31
5.4233616e-31
5.4233824e-31
5.4235315e-31
5.4240347e-31
5.4254911e-31
5.438069e-31
5.4287265e-31
5.4251076e-31
5.4239185e-31
5.4235852e-31
5.4235105e-31
5.4235315e-31
5.4236806e-31
5.424184e-31
5.4256407e-31
5.438473e-31
5.4291866e-31
5.4255967e-31
5.4244179e-31
5.4240875e-31
5.4240136e-31
5.4240347e-31
5.424184e-31
5.4246879e-31
5.4261456e-31
5.4396612e-31
5.4305684e-31
5.4270336e-31
5.4258696e-31
5.4255429e-31
5.4254697e-31
5.4254911e-31
5.4256407e-31
5.4261456e-31
5.4276078e-31
1.3162475e-30
1.3140471e-30
1.3131915e-30
1.3129096e-30
1.3128303e-30
1.312812e-30
1.3128147e-30
1.3128418e-30
1.3129348e-30
1.3132062e-30
1.3140471e-30
1.3118579e-30
1.3110057e-30
1.3107248e-30
1.3106458e-30
1.3106277e-30
1.3106313e-30
1.3106621e-30
1.3107685e-30
1.3110864e-30
1.3131915e-30
1.3110057e-30
1.310155e-30
1.3098746e-30
1.3097958e-30
1.3097779e-30
1.3097823e-30
1.3098155e-30
1.3099289e-30
1.3102599e-30
1.3129096e-30
1.3107248e-30
1.3098746e-30
1.3095944e-30
1.3095157e-30
1.309498e-30
1.3095026e-30
1.3095369e-30
1.3096527e-30
1.3099873e-30
1.3128303e-30
1.3106458e-30
1.3097958e-30
1.3095157e-30
1.309437e-30
1.3094193e-30
1.3094241e-30
1.3094587e-30
1.3095752e-30
1.3099107e-30
1.312812e-30
1.3106277e-30
1.3097779e-30
1.309498e-30
1.3094193e-30
1.3094017e-30
1.3094065e-30
1.3094412e-30
1.3095579e-30
1.3098936e-30
1.3128147e-30
1.3106313e-30
1.3097823e-30
1.3095026e-30
1.3094241e-30
1.3094065e-30
1.3094113e-30
1.309446e-30
1.3095628e-30
1.3098985e-30
1.3128418e-30
1.3106621e-30
1.3098155e-30
1.3095369e-30
1.3094587e-30
1.3094412e-30
1.309446e-30
1.3094808e-30
1.3095976e-30
1.3099334e-30
1.3129348e-30
1.3107685e-30
1.3099289e-30
1.3096527e-30
1.3095752e-30
1.3095579e-30
1.3095628e-30
1.3095976e-30
1.3097145e-30
1.3100505e-30
1.3132062e-30
1.3110864e-30
1.3102599e-30
1.3099873e-30
1.3099107e-30
1.3098936e-30
1.3098985e-30
1.3099334e-30
1.3100505e-30
1.3103875e-30
3.222235e-30
3.2170314e-30
3.2150026e-30
3.2143331e-30
3.2141446e-30
3.214101e-30
3.2141071e-30
3.2141706e-30
3.2143877e-30
3.2150163e-30
3.2170314e-30
3.2118539e-30
3.2098329e-30
3.2091658e-30
3.208978e-30
3.208935e-30
3.2089434e-30
3.2090158e-30
3.2092654e-30
3.2100069e-30
3.2150026e-30
3.2098329e-30
3.2078156e-30
3.2071497e-30
3.2069623e-30
3.2069198e-30
3.2069299e-30
3.2070083e-30
3.2072749e-30
3.2080484e-30
3.2143331e-30
3.2091658e-30
3.2071497e-30
3.2064843e-30
3.2062971e-30
3.2062549e-30
3.2062658e-30
3.2063467e-30
3.2066192e-30
3.2074013e-30
3.2141446e-30
3.208978e-30
3.2069623e-30
3.2062971e-30
3.20611e-30
3.2060679e-30
3.2060792e-30
3.2061609e-30
3.206435e-30
3.2072193e-30
3.214101e-30
3.208935e-30
3.2069198e-30
3.2062549e-30
3.2060679e-30
3.2060258e-30
3.2060372e-30
3.2061191e-30
3.2063937e-30
3.2071784e-30
3.2141071e-30
3.2089434e-30
3.2069299e-30
3.2062658e-30
3.2060792e-30
3.2060372e-30
3.2060486e-30
3.2061306e-30
3.2064053e-30
3.2071901e-30
3.2141706e-30
3.2090158e-30
3.2070083e-30
3.2063467e-30
3.2061609e-30
3.2061191e-30
3.2061306e-30
3.2062126e-30
3.2064874e-30
3.2072724e-30
3.2143877e-30
3.2092654e-30
3.2072749e-30
3.2066192e-30
3.206435e-30
3.2063937e-30
3.2064053e-30
3.2064874e-30
3.2067625e-30
3.207548e-30
3.2150163e-30
3.2100069e-30
3.2080484e-30
3.2074013e-30
3.2072193e-30
3.2071784e-30
3.2071901e-30
3.2072724e-30
3.207548e-30
3.2083358e-30
8.0000599e-30
7.9875853e-30
7.9827087e-30
7.9810972e-30
7.9806429e-30
7.9805375e-30
7.9805519e-30
7.9807029e-30
7.9812164e-30
7.9826926e-30
7.9875853e-30
7.9751724e-30
7.9703146e-30
7.9687085e-30
7.9682559e-30
7.9681521e-30
7.968172e-30
7.9683447e-30
7.9689387e-30
7.9706925e-30
7.9827087e-30
7.9703146e-30
7.9654653e-30
7.9638622e-30
7.9634107e-30
7.9633081e-30
7.9633323e-30
7.9635198e-30
7.9641551e-30
7.965988e-30
7.9810972e-30
7.9687085e-30
7.9638622e-30
7.9622603e-30
7.9618092e-30
7.9617073e-30
7.9617334e-30
7.9619271e-30
7.9625771e-30
7.9644312e-30
7.9806429e-30
7.9682559e-30
7.9634107e-30
7.9618092e-30
7.9613584e-30
7.9612567e-30
7.9612836e-30
7.9614793e-30
7.9621334e-30
7.9639927e-30
7.9805375e-30
7.9681521e-30
7.9633081e-30
7.9617073e-30
7.9612567e-30
7.9611552e-30
7.9611824e-30
7.9613786e-30
7.9620337e-30
7.9638942e-30
7.9805519e-30
7.968172e-30
7.9633323e-30
7.9617334e-30
7.9612836e-30
7.9611824e-30
7.9612096e-30
7.961406e-30
7.9620615e-30
7.9639222e-30
7.9807029e-30
7.9683447e-30
7.9635198e-30
7.9619271e-30
7.9614793e-30
7.9613786e-30
7.961406e-30
7.9616025e-30
7.9622582e-30
7.9641192e-30
7.9812164e-30
7.9689387e-30
7.9641551e-30
7.9625771e-30
7.9621334e-30
7.9620337e-30
7.9620615e-30
7.9622582e-30
7.9629144e-30
7.9647767e-30
7.9826926e-30
7.9706925e-30
7.965988e-30
7.9644312e-30
7.9639927e-30
7.9638942e-30
7.9639222e-30
7.9641192e-30
7.9647767e-30
7.9666445e-30
2.0145021e-29
2.0114704e-29
2.0102822e-29
2.009889e-29
2.009778e-29
2.0097522e-29
2.0097556e-29
2.009792e-29
2.0099152e-29
2.0102667e-29
2.0114704e-29
2.0084536e-29
2.0072699e-29
2.006878e-29
2.0067674e-29
2.006742e-29
2.0067468e-29
2.0067886e-29
2.0069319e-29
2.0073527e-29
2.0102822e-29
2.0072699e-29
2.0060883e-29
2.0056971e-29
2.0055868e-29
2.0055617e-29
2.0055675e-29
2.005613e-29
2.0057666e-29
2.0062071e-29
2.009889e-29
2.006878e-29
2.0056971e-29
2.0053062e-29
2.005196e-29
2.005171e-29
2.0051774e-29
2.0052244e-29
2.0053817e-29
2.0058274e-29
2.009778e-29
2.0067674e-29
2.0055868e-29
2.005196e-29
2.0050858e-29
2.005061e-29
2.0050675e-29
2.005115e-29
2.0052733e-29
2.0057204e-29
2.0097522e-29
2.006742e-29
2.0055617e-29
2.005171e-29
2.005061e-29
2.0050361e-29
2.0050427e-29
2.0050904e-29
2.0052489e-29
2.0056963e-29
2.0097556e-29
2.0067468e-29
2.0055675e-29
2.0051774e-29
2.0050675e-29
2.0050427e-29
2.0050493e-29
2.005097e-29
2.0052557e-29
2.0057031e-29
2.009792e-29
2.0067886e-29
2.005613e-29
2.0052244e-29
2.005115e-29
2.0050904e-29
2.005097e-29
2.0051448e-29
2.0053034e-29
2.005751e-29
2.0099152e-29
2.0069319e-29
2.0057666e-29
2.0053817e-29
2.0052733e-29
2.0052489e-29
2.0052557e-29
2.0053034e-29
2.0054622e-29
2.0059101e-29
2.0102667e-29
2.0073527e-29
2.0062071e-29
2.0058274e-29
2.0057204e-29
2.0056963e-29
2.0057031e-29
2.005751e-29
2.0059101e-29
2.0063592e-29
5.1451544e-29
5.1376851e-29
5.1347504e-29
5.1337777e-29
5.1335029e-29
5.133439e-29
5.1334472e-29
5.1335361e-29
5.1338359e-29
5.1346843e-29
5.1376851e-29
5.1302521e-29
5.1273284e-29
5.1263589e-29
5.1260851e-29
5.1260221e-29
5.1260337e-29
5.1261364e-29
5.1264869e-29
5.1275108e-29
5.1347504e-29
5.1273284e-29
5.1244097e-29
5.1234419e-29
5.1231687e-29
5.1231065e-29
5.1231209e-29
5.1232328e-29
5.1236095e-29
5.1246832e-29
5.1337777e-29
5.1263589e-29
5.1234419e-29
5.1224748e-29
5.122202e-29
5.1221402e-29
5.1221557e-29
5.1222716e-29
5.1226574e-29
5.1237445e-29
5.1335029e-29
5.1260851e-29
5.1231687e-29
5.122202e-29
5.1219292e-29
5.1218676e-29
5.1218836e-29
5.1220007e-29
5.1223892e-29
5.1234796e-29
5.133439e-29
5.1260221e-29
5.1231065e-29
5.1221402e-29
5.1218676e-29
5.1218061e-29
5.1218223e-29
5.1219397e-29
5.1223288e-29
5.1234199e-29
5.1334472e-29
5.1260337e-29
5.1231209e-29
5.1221557e-29
5.1218836e-29
5.1218223e-29
5.1218385e-29
5.1219561e-29
5.1223454e-29
5.1234367e-29
5.1335361e-29
5.1261364e-29
5.1232328e-29
5.1222716e-29
5.1220007e-29
5.1219397e-29
5.1219561e-29
5.1220737e-29
5.1224631e-29
5.1235546e-29
5.1338359e-29
5.1264869e-29
5.1236095e-29
5.1226574e-29
5.1223892e-29
5.1223288e-29
5.1223454e-29
5.1224631e-29
5.1228529e-29
5.1239451e-29
5.1346843e-29
5.1275108e-29
5.1246832e-29
5.1237445e-29
5.1234796e-29
5.1234199e-29
5.1234367e-29
5.1235546e-29
5.1239451e-29
5.1250404e-29
1.3329032e-28
1.3310376e-28
1.3303028e-28
1.3300589e-28
1.3299899e-28
1.3299738e-28
1.3299758e-28
1.3299979e-28
1.3300719e-28
1.3302795e-28
1.3310376e-28
1.329181e-28
1.3284489e-28
1.3282057e-28
1.328137e-28
1.3281212e-28
1.3281241e-28
1.3281496e-28
1.3282366e-28
1.3284893e-28
1.3303028e-28
1.3284489e-28
1.327718e-28
1.3274753e-28
1.3274067e-28
1.3273911e-28
1.3273947e-28
1.3274226e-28
1.3275163e-28
1.3277818e-28
1.3300589e-28
1.3282057e-28
1.3274753e-28
1.3272328e-28
1.3271643e-28
1.3271488e-28
1.3271527e-28
1.3271816e-28
1.3272776e-28
1.3275466e-28
1.3299899e-28
1.328137e-28
1.3274067e-28
1.3271643e-28
1.3270958e-28
1.3270804e-28
1.3270844e-28
1.3271136e-28
1.3272103e-28
1.3274801e-28
1.3299738e-28
1.3281212e-28
1.3273911e-28
1.3271488e-28
1.3270804e-28
1.3270649e-28
1.3270689e-28
1.3270983e-28
1.3271952e-28
1.3274651e-28
1.3299758e-28
1.3281241e-28
1.3273947e-28
1.3271527e-28
1.3270844e-28
1.3270689e-28
1.327073e-28
1.3271024e-28
1.3271993e-28
1.3274693e-28
1.3299979e-28
1.3281496e-28
1.3274226e-28
1.3271816e-28
1.3271136e-28
1.3270983e-28
1.3271024e-28
1.3271318e-28
1.3272287e-28
1.3274988e-28
1.3300719e-28
1.3282366e-28
1.3275163e-28
1.3272776e-28
1.3272103e-28
1.3271952e-28
1.3271993e-28
1.3272287e-28
1.3273257e-28
1.327596e-28
1.3302795e-28
1.3284893e-28
1.3277818e-28
1.3275466e-28
1.3274801e-28
1.3274651e-28
1.3274693e-28
1.3274988e-28
1.327596e-28
1.3278669e-28
3.50249e-28
3.497766e-28
3.4959009e-28
3.4952809e-28
3.4951054e-28
3.4950644e-28
3.4950694e-28
3.4951248e-28
3.4953099e-28
3.4958254e-28
3.497766e-28
3.4930646e-28
3.4912062e-28
3.4905882e-28
3.4904133e-28
3.490373e-28
3.4903802e-28
3.4904447e-28
3.4906637e-28
3.4912963e-28
3.4959009e-28
3.4912062e-28
3.4893509e-28
3.488734e-28
3.4885595e-28
3.4885197e-28
3.4885287e-28
3.4885995e-28
3.4888358e-28
3.4895016e-28
3.4952809e-28
3.4905882e-28
3.488734e-28
3.4881175e-28
3.4879432e-28
3.4879037e-28
3.4879135e-28
3.4879868e-28
3.4882293e-28
3.4889041e-28
3.4951054e-28
3.4904133e-28
3.4885595e-28
3.4879432e-28
3.487769e-28
3.4877296e-28
3.4877397e-28
3.4878139e-28
3.4880581e-28
3.488735e-28
3.4950644e-28
3.490373e-28
3.4885197e-28
3.4879037e-28
3.4877296e-28
3.4876902e-28
3.4877005e-28
3.4877748e-28
3.4880194e-28
3.4886969e-28
3.4950694e-28
3.4903802e-28
3.4885287e-28
3.4879135e-28
3.4877397e-28
3.4877005e-28
3.4877108e-28
3.4877852e-28
3.4880299e-28
3.4887075e-28
3.4951248e-28
3.4904447e-28
3.4885995e-28
3.4879868e-28
3.4878139e-28
3.4877748e-28
3.4877852e-28
3.4878597e-28
3.4881045e-28
3.4887822e-28
3.4953099e-28
3.4906637e-28
3.4888358e-28
3.4882293e-28
3.4880581e-28
3.4880194e-28
3.4880299e-28
3.4881045e-28
3.4883495e-28
3.4890276e-28
3.4958254e-28
3.4912963e-28
3.4895016e-28
3.4889041e-28
3.488735e-28
3.4886969e-28
3.4887075e-28
3.4887822e-28
3.4890276e-28
3.4897076e-28
9.3354856e-28
9.3233592e-28
9.3185599e-28
9.3169623e-28
9.3165096e-28
9.3164039e-28
9.3164162e-28
9.3165575e-28
9.3170274e-28
9.3183249e-28
9.3233592e-28
9.3112898e-28
9.3065077e-28
9.3049152e-28
9.3044641e-28
9.3043599e-28
9.3043783e-28
9.3045437e-28
9.3051026e-28
9.306709e-28
9.3185599e-28
9.3065077e-28
9.3017336e-28
9.3001438e-28
9.2996938e-28
9.299591e-28
9.2996141e-28
9.2997957e-28
9.3004004e-28
9.3020944e-28
9.3169623e-28
9.3049152e-28
9.3001438e-28
9.2985552e-28
9.2981056e-28
9.2980035e-28
9.2980288e-28
9.2982172e-28
9.298838e-28
9.3005556e-28
9.3165096e-28
9.3044641e-28
9.2996938e-28
9.2981056e-28
9.2976563e-28
9.2975545e-28
9.2975806e-28
9.2977711e-28
9.2983966e-28
9.3001199e-28
9.3164039e-28
9.3043599e-28
9.299591e-28
9.2980035e-28
9.2975545e-28
9.2974529e-28
9.2974792e-28
9.2976704e-28
9.2982969e-28
9.3000215e-28
9.3164162e-28
9.3043783e-28
9.2996141e-28
9.2980288e-28
9.2975806e-28
9.2974792e-28
9.2975057e-28
9.297697e-28
9.2983239e-28
9.3000488e-28
9.3165575e-28
9.3045437e-28
9.2997957e-28
9.2982172e-28
9.2977711e-28
9.2976704e-28
9.297697e-28
9.2978885e-28
9.2985156e-28
9.3002408e-28
9.3170274e-28
9.3051026e-28
9.3004004e-28
9.298838e-28
9.2983966e-28
9.2982969e-28
9.2983239e-28
9.2985156e-28
9.2991432e-28
9.3008695e-28
9.3183249e-28
9.306709e-28
9.3020944e-28
9.3005556e-28
9.3001199e-28
9.3000215e-28
9.3000488e-28
9.3002408e-28
9.3008695e-28
9.3026004e-28
2.5239285e-27
2.5207728e-27
2.5195209e-27
2.5191037e-27
2.5189853e-27
2.5189576e-27
2.5189608e-27
2.5189973e-27
2.5191182e-27
2.5194494e-27
2.5207728e-27
2.5176318e-27
2.5163844e-27
2.5159684e-27
2.5158504e-27
2.5158232e-27
2.5158279e-27
2.5158709e-27
2.5160156e-27
2.5164294e-27
2.5195209e-27
2.5163844e-27
2.515139e-27
2.5147237e-27
2.5146061e-27
2.5145792e-27
2.5145852e-27
2.5146325e-27
2.5147894e-27
2.5152266e-27
2.5191037e-27
2.5159684e-27
2.5147237e-27
2.5143088e-27
2.5141912e-27
2.5141645e-27
2.5141711e-27
2.5142202e-27
2.5143814e-27
2.5148249e-27
2.5189853e-27
2.5158504e-27
2.5146061e-27
2.5141912e-27
2.5140737e-27
2.5140471e-27
2.5140539e-27
2.5141036e-27
2.5142661e-27
2.5147111e-27
2.5189576e-27
2.5158232e-27
2.5145792e-27
2.5141645e-27
2.5140471e-27
2.5140205e-27
2.5140274e-27
2.5140772e-27
2.51424e-27
2.5146854e-27
2.5189608e-27
2.5158279e-27
2.5145852e-27
2.5141711e-27
2.5140539e-27
2.5140274e-27
2.5140343e-27
2.5140842e-27
2.514247e-27
2.5146925e-27
2.5189973e-27
2.5158709e-27
2.5146325e-27
2.5142202e-27
2.5141036e-27
2.5140772e-27
2.5140842e-27
2.5141341e-27
2.514297e-27
2.5147426e-27
2.5191182e-27
2.5160156e-27
2.5147894e-27
2.5143814e-27
2.5142661e-27
2.51424e-27
2.514247e-27
2.514297e-27
2.5144601e-27
2.5149059e-27
2.5194494e-27
2.5164294e-27
2.5152266e-27
2.5148249e-27
2.5147111e-27
2.5146854e-27
2.5146925e-27
2.5147426e-27
2.5149059e-27
2.5153529e-27
6.9213396e-27
6.9130148e-27
6.9097048e-27
6.9086e-27
6.9082864e-27
6.9082129e-27
6.908221e-27
6.9083168e-27
6.9086325e-27
6.9094898e-27
6.9130148e-27
6.9047284e-27
6.90143e-27
6.9003285e-27
6.900016e-27
6.8999436e-27
6.8999561e-27
6.9000693e-27
6.9004494e-27
6.9015305e-27
6.9097048e-27
6.90143e-27
6.8981369e-27
6.8970374e-27
6.8967255e-27
6.8966542e-27
6.89667e-27
6.896795e-27
6.8972082e-27
6.8983528e-27
6.9086e-27
6.9003285e-27
6.8970374e-27
6.8959386e-27
6.8956271e-27
6.8955563e-27
6.8955737e-27
6.8957035e-27
6.8961284e-27
6.89729e-27
6.9082864e-27
6.900016e-27
6.8967255e-27
6.8956271e-27
6.8953158e-27
6.8952451e-27
6.8952631e-27
6.8953945e-27
6.8958227e-27
6.8969885e-27
6.9082129e-27
6.8999436e-27
6.8966542e-27
6.8955563e-27
6.8952451e-27
6.8951746e-27
6.8951928e-27
6.8953246e-27
6.8957536e-27
6.8969203e-27
6.908221e-27
6.8999561e-27
6.89667e-27
6.8955737e-27
6.8952631e-27
6.8951928e-27
6.8952111e-27
6.8953431e-27
6.8957723e-27
6.8969392e-27
6.9083168e-27
6.9000693e-27
6.896795e-27
6.8957035e-27
6.8953945e-27
6.8953246e-27
6.8953431e-27
6.8954751e-27
6.8959045e-27
6.8970716e-27
6.9086325e-27
6.9004494e-27
6.8972082e-27
6.8961284e-27
6.8958227e-27
6.8957536e-27
6.8957723e-27
6.8959045e-27
6.8963342e-27
6.897502e-27
6.9094898e-27
6.9015305e-27
6.8983528e-27
6.89729e-27
6.8969885e-27
6.8969203e-27
6.8969392e-27
6.8970716e-27
6.897502e-27
6.8986728e-27
1.9251444e-26
1.9229182e-26
1.9220311e-26
1.9217347e-26
1.9216504e-26
1.9216307e-26
1.9216328e-26
1.9216582e-26
1.9217418e-26
1.9219669e-26
1.9229182e-26
1.9207023e-26
1.9198182e-26
1.9195227e-26
1.9194387e-26
1.9194193e-26
1.9194226e-26
1.9194528e-26
1.9195541e-26
1.9198406e-26
1.9220311e-26
1.9198182e-26
1.9189356e-26
1.9186406e-26
1.9185568e-26
1.9185376e-26
1.9185419e-26
1.9185753e-26
1.9186857e-26
1.9189896e-26
1.9217347e-26
1.9195227e-26
1.9186406e-26
1.9183457e-26
1.918262e-26
1.9182429e-26
1.9182476e-26
1.9182824e-26
1.918396e-26
1.9187046e-26
1.9216504e-26
1.9194387e-26
1.9185568e-26
1.918262e-26
1.9181784e-26
1.9181594e-26
1.9181642e-26
1.9181995e-26
1.9183139e-26
1.9186237e-26
1.9216307e-26
1.9194193e-26
1.9185376e-26
1.9182429e-26
1.9181594e-26
1.9181404e-26
1.9181453e-26
1.9181807e-26
1.9182953e-26
1.9186054e-26
1.9216328e-26
1.9194226e-26
1.9185419e-26
1.9182476e-26
1.9181642e-26
1.9181453e-26
1.9181502e-26
1.9181856e-26
1.9183004e-26
1.9186104e-26
1.9216582e-26
1.9194528e-26
1.9185753e-26
1.9182824e-26
1.9181995e-26
1.9181807e-26
1.9181856e-26
1.9182211e-26
1.9183358e-26
1.918646e-26
1.9217418e-26
1.9195541e-26
1.9186857e-26
1.918396e-26
1.9183139e-26
1.9182953e-26
1.9183004e-26
1.9183358e-26
1.9184507e-26
1.918761e-26
1.9219669e-26
1.9198406e-26
1.9189896e-26
1.9187046e-26
1.9186237e-26
1.9186054e-26
1.9186104e-26
1.918646e-26
1.918761e-26
1.9190721e-26
5.4309694e-26
5.4249356e-26
5.422526e-26
5.4217196e-26
5.4214902e-26
5.4214364e-26
5.421442e-26
5.4215107e-26
5.4217351e-26
5.4223341e-26
5.4249356e-26
5.4189292e-26
5.4165277e-26
5.4157237e-26
5.4154952e-26
5.4154422e-26
5.4154511e-26
5.4155331e-26
5.4158066e-26
5.4165769e-26
5.422526e-26
5.4165277e-26
5.4141301e-26
5.4133275e-26
5.4130994e-26
5.4130472e-26
5.4130587e-26
5.4131497e-26
5.4134485e-26
5.4142672e-26
5.4217196e-26
5.4157237e-26
5.4133275e-26
5.4125254e-26
5.4122976e-26
5.4122457e-26
5.4122584e-26
5.4123531e-26
5.4126608e-26
5.4134926e-26
5.4214902e-26
5.4154952e-26
5.4130994e-26
5.4122976e-26
5.4120699e-26
5.4120181e-26
5.4120313e-26
5.4121272e-26
5.4124375e-26
5.4132724e-26
5.4214364e-26
5.4154422e-26
5.4130472e-26
5.4122457e-26
5.4120181e-26
5.4119665e-26
5.4119799e-26
5.4120761e-26
5.4123869e-26
5.4132226e-26
5.421442e-26
5.4154511e-26
5.4130587e-26
5.4122584e-26
5.4120313e-26
5.4119799e-26
5.4119933e-26
5.4120896e-26
5.4124006e-26
5.4132364e-26
5.4215107e-26
5.4155331e-26
5.4131497e-26
5.4123531e-26
5.4121272e-26
5.4120761e-26
5.4120896e-26
5.412186e-26
5.4124971e-26
5.413333e-26
5.4217351e-26
5.4158066e-26
5.4134485e-26
5.4126608e-26
5.4124375e-26
5.4123869e-26
5.4124006e-26
5.4124971e-26
5.4128085e-26
5.4136449e-26
5.4223341e-26
5.4165769e-26
5.4142672e-26
5.4134926e-26
5.4132724e-26
5.4132226e-26
5.4132364e-26
5.413333e-26
5.4136449e-26
5.4144834e-26
1.5538415e-25
1.552184e-25
1.5515206e-25
1.5512984e-25
1.5512351e-25
1.5512202e-25
1.5512218e-25
1.5512405e-25
1.5513016e-25
1.5514633e-25
1.552184e-25
1.5505339e-25
1.5498728e-25
1.5496512e-25
1.5495881e-25
1.5495735e-25
1.5495759e-25
1.5495985e-25
1.5496734e-25
1.5498834e-25
1.5515206e-25
1.5498728e-25
1.5492127e-25
1.5489915e-25
1.5489285e-25
1.5489141e-25
1.5489173e-25
1.5489424e-25
1.5490244e-25
1.5492481e-25
1.5512984e-25
1.5496512e-25
1.5489915e-25
1.5487704e-25
1.5487075e-25
1.5486932e-25
1.5486967e-25
1.5487228e-25
1.5488074e-25
1.5490348e-25
1.5512351e-25
1.5495881e-25
1.5489285e-25
1.5487075e-25
1.5486447e-25
1.5486304e-25
1.5486341e-25
1.5486605e-25
1.5487458e-25
1.5489741e-25
1.5512202e-25
1.5495735e-25
1.5489141e-25
1.5486932e-25
1.5486304e-25
1.5486162e-25
1.5486199e-25
1.5486464e-25
1.5487319e-25
1.5489603e-25
1.5512218e-25
1.5495759e-25
1.5489173e-25
1.5486967e-25
1.5486341e-25
1.5486199e-25
1.5486236e-25
1.5486501e-25
1.5487357e-25
1.5489642e-25
1.5512405e-25
1.5495985e-25
1.5489424e-25
1.5487228e-25
1.5486605e-25
1.5486464e-25
1.5486501e-25
1.5486767e-25
1.5487623e-25
1.5489908e-25
1.5513016e-25
1.5496734e-25
1.5490244e-25
1.5488074e-25
1.5487458e-25
1.5487319e-25
1.5487357e-25
1.5487623e-25
1.5488479e-25
1.5490766e-25
1.5514633e-25
1.5498834e-25
1.5492481e-25
1.5490348e-25
1.5489741e-25
1.5489603e-25
1.5489642e-25
1.5489908e-25