/*--------------------------------*- C++ -*----------------------------------*\
| =========                 |                                                 |
| \\      /  F ield         | OpenFOAM: The Open Source CFD Toolbox           |
|  \\    /   O peration     | Version:  dev                                   |
|   \\  /    A nd           | Web:      www.OpenFOAM.org                      |
|    \\/     M anipulation  |                                                 |
\*---------------------------------------------------------------------------*/
FoamFile
{
    version     2.0;
    format      ascii;
    class       volScalarField;
    location    "81.995";
    object      A;
}
// * * * * * * * * * * * * * * * * * * * * * * * * * * * * * * * * * * * * * //

dimensions      [0 0 0 0 1 0 0];

internalField   nonuniform List<scalar> 
10000
(
5.6495448e-24
5.6435568e-24
5.6403161e-24
5.6385084e-24
5.6375528e-24
5.6371166e-24
5.6370257e-24
5.6372358e-24
5.6378415e-24
5.6390557e-24
5.6435568e-24
5.6375926e-24
5.6343602e-24
5.6325564e-24
5.6316035e-24
5.6311707e-24
5.631086e-24
5.6313104e-24
5.631953e-24
5.6332729e-24
5.6403161e-24
5.6343602e-24
5.631133e-24
5.6293327e-24
5.6283828e-24
5.6279541e-24
5.6278769e-24
5.6281155e-24
5.6287837e-24
5.6301401e-24
5.6385084e-24
5.6325564e-24
5.6293327e-24
5.6275351e-24
5.626588e-24
5.6261631e-24
5.626092e-24
5.6263405e-24
5.6270229e-24
5.6283932e-24
5.6375528e-24
5.6316035e-24
5.6283828e-24
5.626588e-24
5.6256436e-24
5.6252218e-24
5.6251549e-24
5.6254095e-24
5.626099e-24
5.627475e-24
5.6371166e-24
5.6311707e-24
5.6279541e-24
5.6261631e-24
5.6252218e-24
5.6248027e-24
5.6247388e-24
5.6249968e-24
5.6256899e-24
5.6270684e-24
5.6370257e-24
5.631086e-24
5.6278769e-24
5.626092e-24
5.6251549e-24
5.6247388e-24
5.6246772e-24
5.6249372e-24
5.6256322e-24
5.627012e-24
5.6372358e-24
5.6313104e-24
5.6281155e-24
5.6263405e-24
5.6254095e-24
5.6249968e-24
5.6249372e-24
5.6251987e-24
5.6258949e-24
5.6272756e-24
5.6378415e-24
5.631953e-24
5.6287837e-24
5.6270229e-24
5.626099e-24
5.6256899e-24
5.6256322e-24
5.6258949e-24
5.6265923e-24
5.6279745e-24
5.6390557e-24
5.6332729e-24
5.6301401e-24
5.6283932e-24
5.627475e-24
5.6270684e-24
5.627012e-24
5.6272756e-24
5.6279745e-24
5.6293605e-24
1.8779083e-23
1.8759944e-23
1.8749288e-23
1.8743329e-23
1.8740177e-23
1.8738738e-23
1.8738436e-23
1.8739126e-23
1.874112e-23
1.8745262e-23
1.8759944e-23
1.874088e-23
1.8730251e-23
1.8724305e-23
1.8721162e-23
1.8719733e-23
1.8719452e-23
1.8720189e-23
1.8722306e-23
1.87268e-23
1.8749288e-23
1.8730251e-23
1.8719638e-23
1.8713703e-23
1.871057e-23
1.8709155e-23
1.8708899e-23
1.8709684e-23
1.8711885e-23
1.87165e-23
1.8743329e-23
1.8724305e-23
1.8713703e-23
1.8707778e-23
1.8704654e-23
1.8703252e-23
1.8703016e-23
1.8703833e-23
1.8706082e-23
1.8710743e-23
1.8740177e-23
1.8721162e-23
1.871057e-23
1.8704654e-23
1.8701539e-23
1.8700147e-23
1.8699925e-23
1.8700762e-23
1.8703034e-23
1.8707715e-23
1.8738738e-23
1.8719733e-23
1.8709155e-23
1.8703252e-23
1.8700147e-23
1.8698764e-23
1.8698552e-23
1.86994e-23
1.8701684e-23
1.8706373e-23
1.8738436e-23
1.8719452e-23
1.8708899e-23
1.8703016e-23
1.8699925e-23
1.8698552e-23
1.8698348e-23
1.8699203e-23
1.8701493e-23
1.8706186e-23
1.8739126e-23
1.8720189e-23
1.8709684e-23
1.8703833e-23
1.8700762e-23
1.86994e-23
1.8699203e-23
1.8700063e-23
1.8702357e-23
1.8707053e-23
1.874112e-23
1.8722306e-23
1.8711885e-23
1.8706082e-23
1.8703034e-23
1.8701684e-23
1.8701493e-23
1.8702357e-23
1.8704656e-23
1.8709356e-23
1.8745262e-23
1.87268e-23
1.87165e-23
1.8710743e-23
1.8707715e-23
1.8706373e-23
1.8706186e-23
1.8707053e-23
1.8709356e-23
1.8714071e-23
3.812748e-23
3.8089907e-23
3.8068673e-23
3.8056764e-23
3.8050456e-23
3.8047572e-23
3.8046964e-23
3.8048331e-23
3.8052299e-23
3.8060802e-23
3.8089907e-23
3.8052478e-23
3.8031296e-23
3.8019413e-23
3.8013122e-23
3.801026e-23
3.8009693e-23
3.8011157e-23
3.8015373e-23
3.8024591e-23
3.8068673e-23
3.8031296e-23
3.8010149e-23
3.7998288e-23
3.7992017e-23
3.7989182e-23
3.7988666e-23
3.7990225e-23
3.7994612e-23
3.8004075e-23
3.8056764e-23
3.8019413e-23
3.7998288e-23
3.7986445e-23
3.7980193e-23
3.7977383e-23
3.7976908e-23
3.7978533e-23
3.7983015e-23
3.7992571e-23
3.8050456e-23
3.8013122e-23
3.7992017e-23
3.7980193e-23
3.7973958e-23
3.797117e-23
3.7970723e-23
3.7972388e-23
3.7976918e-23
3.7986512e-23
3.8047572e-23
3.801026e-23
3.7989182e-23
3.7977383e-23
3.797117e-23
3.79684e-23
3.7967972e-23
3.796966e-23
3.7974214e-23
3.7983825e-23
3.8046964e-23
3.8009693e-23
3.7988666e-23
3.7976908e-23
3.7970723e-23
3.7967972e-23
3.796756e-23
3.7969262e-23
3.7973828e-23
3.7983448e-23
3.8048331e-23
3.8011157e-23
3.7990225e-23
3.7978533e-23
3.7972388e-23
3.796966e-23
3.7969262e-23
3.7970974e-23
3.7975548e-23
3.7985174e-23
3.8052299e-23
3.8015373e-23
3.7994612e-23
3.7983015e-23
3.7976918e-23
3.7974214e-23
3.7973828e-23
3.7975548e-23
3.798013e-23
3.7989766e-23
3.8060802e-23
3.8024591e-23
3.8004075e-23
3.7992571e-23
3.7986512e-23
3.7983825e-23
3.7983448e-23
3.7985174e-23
3.7989766e-23
3.799943e-23
7.0417565e-23
7.0350443e-23
7.0312156e-23
7.0290617e-23
7.0279187e-23
7.0273954e-23
7.027284e-23
7.0275287e-23
7.0282397e-23
7.0297798e-23
7.0350443e-23
7.0283573e-23
7.0245381e-23
7.0223886e-23
7.0212488e-23
7.0207295e-23
7.0206257e-23
7.020888e-23
7.0216446e-23
7.0233164e-23
7.0312156e-23
7.0245381e-23
7.0207249e-23
7.0185795e-23
7.0174432e-23
7.016929e-23
7.0168343e-23
7.0171142e-23
7.0179023e-23
7.019619e-23
7.0290617e-23
7.0223886e-23
7.0185795e-23
7.0164373e-23
7.0153045e-23
7.0147949e-23
7.0147077e-23
7.0149997e-23
7.0158052e-23
7.0175391e-23
7.0279187e-23
7.0212488e-23
7.0174432e-23
7.0153045e-23
7.014175e-23
7.0136691e-23
7.0135872e-23
7.0138865e-23
7.0147008e-23
7.0164417e-23
7.0273954e-23
7.0207295e-23
7.016929e-23
7.0147949e-23
7.0136691e-23
7.0131666e-23
7.0130883e-23
7.0133918e-23
7.0142105e-23
7.0159545e-23
7.027284e-23
7.0206257e-23
7.0168343e-23
7.0147077e-23
7.0135872e-23
7.0130883e-23
7.0130128e-23
7.0133188e-23
7.0141398e-23
7.0158854e-23
7.0275287e-23
7.020888e-23
7.0171142e-23
7.0149997e-23
7.0138865e-23
7.0133918e-23
7.0133188e-23
7.0136267e-23
7.0144492e-23
7.0161958e-23
7.0282397e-23
7.0216446e-23
7.0179023e-23
7.0158052e-23
7.0147008e-23
7.0142105e-23
7.0141398e-23
7.0144492e-23
7.0152731e-23
7.0170214e-23
7.0297798e-23
7.0233164e-23
7.019619e-23
7.0175391e-23
7.0164417e-23
7.0159545e-23
7.0158854e-23
7.0161958e-23
7.0170214e-23
7.018775e-23
1.2740807e-22
1.2729063e-22
1.2722321e-22
1.2718516e-22
1.2716493e-22
1.2715565e-22
1.2715366e-22
1.2715792e-22
1.2717033e-22
1.2719718e-22
1.2729063e-22
1.2717363e-22
1.2710637e-22
1.270684e-22
1.2704823e-22
1.2703902e-22
1.2703716e-22
1.2704174e-22
1.2705497e-22
1.270842e-22
1.2722321e-22
1.2710637e-22
1.2703922e-22
1.2700132e-22
1.2698121e-22
1.2697209e-22
1.269704e-22
1.269753e-22
1.2698908e-22
1.2701912e-22
1.2718516e-22
1.270684e-22
1.2700132e-22
1.2696347e-22
1.2694343e-22
1.2693439e-22
1.2693283e-22
1.2693795e-22
1.2695205e-22
1.269824e-22
1.2716493e-22
1.2704823e-22
1.2698121e-22
1.2694343e-22
1.2692344e-22
1.2691447e-22
1.2691301e-22
1.2691825e-22
1.2693251e-22
1.2696299e-22
1.2715565e-22
1.2703902e-22
1.2697209e-22
1.2693439e-22
1.2691447e-22
1.2690557e-22
1.2690417e-22
1.2690949e-22
1.2692383e-22
1.2695436e-22
1.2715366e-22
1.2703716e-22
1.269704e-22
1.2693283e-22
1.2691301e-22
1.2690417e-22
1.2690281e-22
1.2690818e-22
1.2692256e-22
1.2695312e-22
1.2715792e-22
1.2704174e-22
1.269753e-22
1.2693795e-22
1.2691825e-22
1.2690949e-22
1.2690818e-22
1.2691358e-22
1.2692799e-22
1.2695856e-22
1.2717033e-22
1.2705497e-22
1.2698908e-22
1.2695205e-22
1.2693251e-22
1.2692383e-22
1.2692256e-22
1.2692799e-22
1.2694242e-22
1.2697302e-22
1.2719718e-22
1.270842e-22
1.2701912e-22
1.269824e-22
1.2696299e-22
1.2695436e-22
1.2695312e-22
1.2695856e-22
1.2697302e-22
1.2700372e-22
2.3064615e-22
2.3044065e-22
2.3032205e-22
2.3025492e-22
2.3021916e-22
2.3020274e-22
2.3019917e-22
2.3020659e-22
2.3022815e-22
2.3027463e-22
2.3044065e-22
2.3023591e-22
2.301176e-22
2.300506e-22
2.3001494e-22
2.2999864e-22
2.2999532e-22
2.3000331e-22
2.3002635e-22
2.3007709e-22
2.3032205e-22
2.301176e-22
2.2999947e-22
2.299326e-22
2.2989705e-22
2.2988092e-22
2.2987788e-22
2.2988644e-22
2.299105e-22
2.2996269e-22
2.3025492e-22
2.300506e-22
2.299326e-22
2.2986583e-22
2.2983039e-22
2.2981441e-22
2.2981161e-22
2.2982056e-22
2.2984518e-22
2.2989793e-22
2.3021916e-22
2.3001494e-22
2.2989705e-22
2.2983039e-22
2.2979506e-22
2.2977919e-22
2.2977657e-22
2.2978575e-22
2.2981065e-22
2.2986363e-22
2.3020274e-22
2.2999864e-22
2.2988092e-22
2.2981441e-22
2.2977919e-22
2.2976344e-22
2.2976093e-22
2.2977025e-22
2.2979529e-22
2.2984837e-22
2.3019917e-22
2.2999532e-22
2.2987788e-22
2.2981161e-22
2.2977657e-22
2.2976093e-22
2.297585e-22
2.2976791e-22
2.2979302e-22
2.2984615e-22
2.3020659e-22
2.3000331e-22
2.2988644e-22
2.2982056e-22
2.2978575e-22
2.2977025e-22
2.2976791e-22
2.2977737e-22
2.2980253e-22
2.2985569e-22
2.3022815e-22
2.3002635e-22
2.299105e-22
2.2984518e-22
2.2981065e-22
2.2979529e-22
2.2979302e-22
2.2980253e-22
2.2982773e-22
2.2988095e-22
2.3027463e-22
2.3007709e-22
2.2996269e-22
2.2989793e-22
2.2986363e-22
2.2984837e-22
2.2984615e-22
2.2985569e-22
2.2988095e-22
2.2993432e-22
4.2052317e-22
4.2016116e-22
4.1995126e-22
4.1983209e-22
4.197685e-22
4.1973924e-22
4.197328e-22
4.197458e-22
4.1978348e-22
4.1986415e-22
4.2016116e-22
4.1980047e-22
4.1959107e-22
4.1947214e-22
4.1940872e-22
4.1937969e-22
4.1937369e-22
4.1938772e-22
4.1942807e-22
4.1951648e-22
4.1995126e-22
4.1959107e-22
4.1938199e-22
4.1926328e-22
4.1920006e-22
4.1917132e-22
4.1916586e-22
4.191809e-22
4.192231e-22
4.1931414e-22
4.1983209e-22
4.1947214e-22
4.1926328e-22
4.1914476e-22
4.1908173e-22
4.1905326e-22
4.1904823e-22
4.1906398e-22
4.1910719e-22
4.1919923e-22
4.197685e-22
4.1940872e-22
4.1920006e-22
4.1908173e-22
4.190189e-22
4.1899064e-22
4.1898592e-22
4.1900209e-22
4.1904581e-22
4.1913827e-22
4.1973924e-22
4.1937969e-22
4.1917132e-22
4.1905326e-22
4.1899064e-22
4.1896258e-22
4.1895806e-22
4.1897448e-22
4.1901846e-22
4.191111e-22
4.197328e-22
4.1937369e-22
4.1916586e-22
4.1904823e-22
4.1898592e-22
4.1895806e-22
4.1895371e-22
4.1897027e-22
4.1901438e-22
4.1910711e-22
4.197458e-22
4.1938772e-22
4.191809e-22
4.1906398e-22
4.1900209e-22
4.1897448e-22
4.1897027e-22
4.1898694e-22
4.1903113e-22
4.1912392e-22
4.1978348e-22
4.1942807e-22
4.192231e-22
4.1910719e-22
4.1904581e-22
4.1901846e-22
4.1901438e-22
4.1903113e-22
4.190754e-22
4.1916828e-22
4.1986415e-22
4.1951648e-22
4.1931414e-22
4.1919923e-22
4.1913827e-22
4.191111e-22
4.1910711e-22
4.1912392e-22
4.1916828e-22
4.1926144e-22
7.7382488e-22
7.7318151e-22
7.7280681e-22
7.7259346e-22
7.7247939e-22
7.7242683e-22
7.7241514e-22
7.7243807e-22
7.7250448e-22
7.7264556e-22
7.7318151e-22
7.7254048e-22
7.7216665e-22
7.7195372e-22
7.7183997e-22
7.7178781e-22
7.7177693e-22
7.7180174e-22
7.7187303e-22
7.7202826e-22
7.7280681e-22
7.7216665e-22
7.717934e-22
7.7158087e-22
7.7146747e-22
7.7141585e-22
7.7140594e-22
7.714326e-22
7.7150725e-22
7.716673e-22
7.7259346e-22
7.7195372e-22
7.7158087e-22
7.7136867e-22
7.7125563e-22
7.7120448e-22
7.7119536e-22
7.7122332e-22
7.712998e-22
7.7146168e-22
7.7247939e-22
7.7183997e-22
7.7146747e-22
7.7125563e-22
7.7114292e-22
7.7109218e-22
7.7108361e-22
7.7111234e-22
7.7118976e-22
7.713524e-22
7.7242683e-22
7.7178781e-22
7.7141585e-22
7.7120448e-22
7.7109218e-22
7.7104179e-22
7.710336e-22
7.7106277e-22
7.7114066e-22
7.7130362e-22
7.7241514e-22
7.7177693e-22
7.7140594e-22
7.7119536e-22
7.7108361e-22
7.710336e-22
7.710257e-22
7.7105514e-22
7.7113327e-22
7.7129639e-22
7.7243807e-22
7.7180174e-22
7.714326e-22
7.7122332e-22
7.7111234e-22
7.7106277e-22
7.7105514e-22
7.7108477e-22
7.7116305e-22
7.7132628e-22
7.7250448e-22
7.7187303e-22
7.7150725e-22
7.712998e-22
7.7118976e-22
7.7114066e-22
7.7113327e-22
7.7116305e-22
7.7124147e-22
7.7140486e-22
7.7264556e-22
7.7202826e-22
7.716673e-22
7.7146168e-22
7.713524e-22
7.7130362e-22
7.7129639e-22
7.7132628e-22
7.7140486e-22
7.7156873e-22
1.4381526e-21
1.4369983e-21
1.4363231e-21
1.4359376e-21
1.435731e-21
1.4356357e-21
1.4356143e-21
1.4356552e-21
1.4357733e-21
1.4360223e-21
1.4369983e-21
1.4358482e-21
1.4351745e-21
1.4347897e-21
1.4345838e-21
1.4344892e-21
1.4344693e-21
1.4345136e-21
1.4346407e-21
1.4349158e-21
1.4363231e-21
1.4351745e-21
1.4345019e-21
1.4341178e-21
1.4339125e-21
1.4338189e-21
1.4338008e-21
1.4338485e-21
1.4339818e-21
1.4342658e-21
1.4359376e-21
1.4347897e-21
1.4341178e-21
1.4337343e-21
1.4335297e-21
1.433437e-21
1.4334203e-21
1.4334704e-21
1.4336071e-21
1.4338944e-21
1.435731e-21
1.4345838e-21
1.4339125e-21
1.4335297e-21
1.4333257e-21
1.4332337e-21
1.433218e-21
1.4332695e-21
1.4334079e-21
1.4336967e-21
1.4356357e-21
1.4344892e-21
1.4338189e-21
1.433437e-21
1.4332337e-21
1.4331423e-21
1.4331274e-21
1.4331797e-21
1.433319e-21
1.4336083e-21
1.4356143e-21
1.4344693e-21
1.4338008e-21
1.4334203e-21
1.433218e-21
1.4331274e-21
1.4331129e-21
1.4331658e-21
1.4333055e-21
1.4335951e-21
1.4356552e-21
1.4345136e-21
1.4338485e-21
1.4334704e-21
1.4332695e-21
1.4331797e-21
1.4331658e-21
1.4332189e-21
1.4333589e-21
1.4336488e-21
1.4357733e-21
1.4346407e-21
1.4339818e-21
1.4336071e-21
1.4334079e-21
1.433319e-21
1.4333055e-21
1.4333589e-21
1.4334992e-21
1.4337893e-21
1.4360223e-21
1.4349158e-21
1.4342658e-21
1.4338944e-21
1.4336967e-21
1.4336083e-21
1.4335951e-21
1.4336488e-21
1.4337893e-21
1.4340803e-21
2.7001309e-21
2.6980396e-21
2.6968111e-21
2.6961076e-21
2.6957301e-21
2.6955556e-21
2.6955161e-21
2.6955896e-21
2.6958018e-21
2.6962455e-21
2.6980396e-21
2.6959558e-21
2.6947301e-21
2.694028e-21
2.6936515e-21
2.6934784e-21
2.6934416e-21
2.6935215e-21
2.6937505e-21
2.6942428e-21
2.6968111e-21
2.6947301e-21
2.6935063e-21
2.6928054e-21
2.6924302e-21
2.6922588e-21
2.6922253e-21
2.6923117e-21
2.6925521e-21
2.693061e-21
2.6961076e-21
2.694028e-21
2.6928054e-21
2.6921057e-21
2.6917316e-21
2.691562e-21
2.6915312e-21
2.6916219e-21
2.6918686e-21
2.6923838e-21
2.6957301e-21
2.6936515e-21
2.6924302e-21
2.6917316e-21
2.6913587e-21
2.6911904e-21
2.6911615e-21
2.6912548e-21
2.6915047e-21
2.6920225e-21
2.6955556e-21
2.6934784e-21
2.6922588e-21
2.691562e-21
2.6911904e-21
2.6910232e-21
2.6909956e-21
2.6910905e-21
2.691342e-21
2.6918609e-21
2.6955161e-21
2.6934416e-21
2.6922253e-21
2.6915312e-21
2.6911615e-21
2.6909956e-21
2.690969e-21
2.6910648e-21
2.6913171e-21
2.6918365e-21
2.6955896e-21
2.6935215e-21
2.6923117e-21
2.6916219e-21
2.6912548e-21
2.6910905e-21
2.6910648e-21
2.6911612e-21
2.691414e-21
2.6919338e-21
2.6958018e-21
2.6937505e-21
2.6925521e-21
2.6918686e-21
2.6915047e-21
2.691342e-21
2.6913171e-21
2.691414e-21
2.6916674e-21
2.6921876e-21
2.6962455e-21
2.6942428e-21
2.693061e-21
2.6923838e-21
2.6920225e-21
2.6918609e-21
2.6918365e-21
2.6919338e-21
2.6921876e-21
2.6927094e-21
5.1218858e-21
5.1180595e-21
5.1158023e-21
5.1145062e-21
5.1138094e-21
5.1134868e-21
5.1134131e-21
5.1135467e-21
5.1139317e-21
5.1147301e-21
5.1180595e-21
5.1142468e-21
5.1119947e-21
5.1107011e-21
5.1100062e-21
5.1096861e-21
5.1096175e-21
5.1097633e-21
5.1101798e-21
5.1110697e-21
5.1158023e-21
5.1119947e-21
5.109746e-21
5.1084547e-21
5.107762e-21
5.1074454e-21
5.107383e-21
5.1075407e-21
5.1079787e-21
5.1088998e-21
5.1145062e-21
5.1107011e-21
5.1084547e-21
5.1071655e-21
5.106475e-21
5.1061615e-21
5.1061041e-21
5.10627e-21
5.1067199e-21
5.1076528e-21
5.1138094e-21
5.1100062e-21
5.107762e-21
5.106475e-21
5.1057867e-21
5.1054757e-21
5.1054219e-21
5.1055927e-21
5.1060486e-21
5.1069864e-21
5.1134868e-21
5.1096861e-21
5.1074454e-21
5.1061615e-21
5.1054757e-21
5.1051669e-21
5.1051155e-21
5.1052892e-21
5.1057481e-21
5.1066879e-21
5.1134131e-21
5.1096175e-21
5.107383e-21
5.1061041e-21
5.1054219e-21
5.1051155e-21
5.105066e-21
5.1052414e-21
5.1057018e-21
5.1066427e-21
5.1135467e-21
5.1097633e-21
5.1075407e-21
5.10627e-21
5.1055927e-21
5.1052892e-21
5.1052414e-21
5.105418e-21
5.1058793e-21
5.1068209e-21
5.1139317e-21
5.1101798e-21
5.1079787e-21
5.1067199e-21
5.1060486e-21
5.1057481e-21
5.1057018e-21
5.1058793e-21
5.1063415e-21
5.107284e-21
5.1147301e-21
5.1110697e-21
5.1088998e-21
5.1076528e-21
5.1069864e-21
5.1066879e-21
5.1066427e-21
5.1068209e-21
5.107284e-21
5.1082291e-21
9.8167533e-21
9.8096831e-21
9.8054948e-21
9.8030832e-21
9.8017845e-21
9.8011823e-21
9.8010436e-21
9.801289e-21
9.8019946e-21
9.8034458e-21
9.8096831e-21
9.8026378e-21
9.7984588e-21
9.7960519e-21
9.7947566e-21
9.7941593e-21
9.7940303e-21
9.7942986e-21
9.795064e-21
9.7966892e-21
9.8054948e-21
9.7984588e-21
9.7942862e-21
9.7918835e-21
9.7905925e-21
9.7900015e-21
9.7898842e-21
9.7901752e-21
9.7909815e-21
9.7926658e-21
9.8030832e-21
9.7960519e-21
9.7918835e-21
9.7894848e-21
9.7881979e-21
9.7876127e-21
9.787505e-21
9.7878116e-21
9.7886403e-21
9.790347e-21
9.8017845e-21
9.7947566e-21
9.7905925e-21
9.7881979e-21
9.7869151e-21
9.7863347e-21
9.7862336e-21
9.7865496e-21
9.7873897e-21
9.7891056e-21
9.8011823e-21
9.7941593e-21
9.7900015e-21
9.7876127e-21
9.7863347e-21
9.7857586e-21
9.7856621e-21
9.7859834e-21
9.7868292e-21
9.7885491e-21
9.8010436e-21
9.7940303e-21
9.7898842e-21
9.787505e-21
9.7862336e-21
9.7856621e-21
9.7855692e-21
9.7858937e-21
9.7867424e-21
9.7884642e-21
9.801289e-21
9.7942986e-21
9.7901752e-21
9.7878116e-21
9.7865496e-21
9.7859834e-21
9.7858937e-21
9.7862206e-21
9.787071e-21
9.7887941e-21
9.8019946e-21
9.795064e-21
9.7909815e-21
9.7886403e-21
9.7873897e-21
9.7868292e-21
9.7867424e-21
9.787071e-21
9.7879231e-21
9.7896478e-21
9.8034458e-21
9.7966892e-21
9.7926658e-21
9.790347e-21
9.7891056e-21
9.7885491e-21
9.7884642e-21
9.7887941e-21
9.7896478e-21
9.7913773e-21
1.9011587e-20
1.8998393e-20
1.8990544e-20
1.8986013e-20
1.8983568e-20
1.8982433e-20
1.898217e-20
1.8982625e-20
1.8983932e-20
1.8986596e-20
1.8998393e-20
1.8985244e-20
1.8977413e-20
1.897289e-20
1.8970452e-20
1.8969327e-20
1.8969082e-20
1.8969581e-20
1.8971002e-20
1.8974e-20
1.8990544e-20
1.8977413e-20
1.8969594e-20
1.8965079e-20
1.8962649e-20
1.8961535e-20
1.8961313e-20
1.8961855e-20
1.8963355e-20
1.8966466e-20
1.8986013e-20
1.897289e-20
1.8965079e-20
1.8960572e-20
1.895815e-20
1.8957047e-20
1.8956843e-20
1.8957415e-20
1.8958958e-20
1.8962112e-20
1.8983568e-20
1.8970452e-20
1.8962649e-20
1.895815e-20
1.8955735e-20
1.8954642e-20
1.895445e-20
1.8955041e-20
1.8956605e-20
1.8959777e-20
1.8982433e-20
1.8969327e-20
1.8961535e-20
1.8957047e-20
1.8954642e-20
1.8953556e-20
1.8953374e-20
1.8953974e-20
1.8955549e-20
1.8958729e-20
1.898217e-20
1.8969082e-20
1.8961313e-20
1.8956843e-20
1.895445e-20
1.8953374e-20
1.8953198e-20
1.8953805e-20
1.8955385e-20
1.8958569e-20
1.8982625e-20
1.8969581e-20
1.8961855e-20
1.8957415e-20
1.8955041e-20
1.8953974e-20
1.8953805e-20
1.8954416e-20
1.8956e-20
1.8959185e-20
1.8983932e-20
1.8971002e-20
1.8963355e-20
1.8958958e-20
1.8956605e-20
1.8955549e-20
1.8955385e-20
1.8956e-20
1.8957586e-20
1.8960775e-20
1.8986596e-20
1.8974e-20
1.8966466e-20
1.8962112e-20
1.8959777e-20
1.8958729e-20
1.8958569e-20
1.8959185e-20
1.8960775e-20
1.8963973e-20
3.7204561e-20
3.7179692e-20
3.7164838e-20
3.715624e-20
3.7151593e-20
3.7149432e-20
3.7148927e-20
3.7149781e-20
3.7152225e-20
3.7157166e-20
3.7179692e-20
3.7154908e-20
3.7140087e-20
3.7131504e-20
3.712687e-20
3.7124727e-20
3.7124258e-20
3.7125197e-20
3.7127862e-20
3.7133451e-20
3.7164838e-20
3.7140087e-20
3.7125288e-20
3.7116721e-20
3.7112101e-20
3.7109982e-20
3.7109556e-20
3.7110579e-20
3.7113396e-20
3.7119204e-20
3.715624e-20
3.7131504e-20
3.7116721e-20
3.7108168e-20
3.7103564e-20
3.7101466e-20
3.7101075e-20
3.7102155e-20
3.7105055e-20
3.7110947e-20
3.7151593e-20
3.712687e-20
3.7112101e-20
3.7103564e-20
3.7098975e-20
3.7096894e-20
3.7096528e-20
3.7097643e-20
3.7100585e-20
3.7106511e-20
3.7149432e-20
3.7124727e-20
3.7109982e-20
3.7101466e-20
3.7096894e-20
3.709483e-20
3.7094481e-20
3.7095615e-20
3.7098578e-20
3.7104519e-20
3.7148927e-20
3.7124258e-20
3.7109556e-20
3.7101075e-20
3.7096528e-20
3.7094481e-20
3.7094145e-20
3.7095291e-20
3.7098265e-20
3.7104212e-20
3.7149781e-20
3.7125197e-20
3.7110579e-20
3.7102155e-20
3.7097643e-20
3.7095615e-20
3.7095291e-20
3.7096446e-20
3.7099427e-20
3.7105378e-20
3.7152225e-20
3.7127862e-20
3.7113396e-20
3.7105055e-20
3.7100585e-20
3.7098578e-20
3.7098265e-20
3.7099427e-20
3.7102413e-20
3.710837e-20
3.7157166e-20
3.7133451e-20
3.7119204e-20
3.7110947e-20
3.7106511e-20
3.7104519e-20
3.7104212e-20
3.7105378e-20
3.710837e-20
3.7114343e-20
7.3571914e-20
7.3524569e-20
7.3496179e-20
7.3479701e-20
7.3470781e-20
7.3466629e-20
7.3465652e-20
7.3467269e-20
7.3471887e-20
7.3481145e-20
7.3524569e-20
7.3477388e-20
7.3449059e-20
7.3432611e-20
7.3423715e-20
7.3419597e-20
7.341869e-20
7.3420473e-20
7.3425525e-20
7.3436049e-20
7.3496179e-20
7.3449059e-20
7.3420771e-20
7.3404353e-20
7.3395487e-20
7.3391414e-20
7.3390592e-20
7.3392538e-20
7.3397887e-20
7.340884e-20
7.3479701e-20
7.3432611e-20
7.3404353e-20
7.3387962e-20
7.3379125e-20
7.3375094e-20
7.337434e-20
7.33764e-20
7.338191e-20
7.3393026e-20
7.3470781e-20
7.3423715e-20
7.3395487e-20
7.3379125e-20
7.3370317e-20
7.336632e-20
7.3365614e-20
7.3367741e-20
7.3373334e-20
7.3384517e-20
7.3466629e-20
7.3419597e-20
7.3391414e-20
7.3375094e-20
7.336632e-20
7.3362354e-20
7.3361681e-20
7.3363847e-20
7.336948e-20
7.3380692e-20
7.3465652e-20
7.341869e-20
7.3390592e-20
7.337434e-20
7.3365614e-20
7.3361681e-20
7.3361034e-20
7.3363223e-20
7.3368877e-20
7.3380103e-20
7.3467269e-20
7.3420473e-20
7.3392538e-20
7.33764e-20
7.3367741e-20
7.3363847e-20
7.3363223e-20
7.3365428e-20
7.3371095e-20
7.3382329e-20
7.3471887e-20
7.3425525e-20
7.3397887e-20
7.338191e-20
7.3373334e-20
7.336948e-20
7.3368877e-20
7.3371095e-20
7.3376773e-20
7.3388018e-20
7.3481145e-20
7.3436049e-20
7.340884e-20
7.3393026e-20
7.3384517e-20
7.3380692e-20
7.3380103e-20
7.3382329e-20
7.3388018e-20
7.3399293e-20
1.4701874e-19
1.4692771e-19
1.4687291e-19
1.4684102e-19
1.4682373e-19
1.4681567e-19
1.4681376e-19
1.4681686e-19
1.4682567e-19
1.4684319e-19
1.4692771e-19
1.4683699e-19
1.4678231e-19
1.4675047e-19
1.4673323e-19
1.4672524e-19
1.4672347e-19
1.4672689e-19
1.4673656e-19
1.4675659e-19
1.4687291e-19
1.4678231e-19
1.467277e-19
1.4669592e-19
1.4667874e-19
1.4667083e-19
1.4666923e-19
1.4667298e-19
1.4668324e-19
1.4670411e-19
1.4684102e-19
1.4675047e-19
1.4669592e-19
1.466642e-19
1.4664707e-19
1.4663925e-19
1.4663778e-19
1.4664175e-19
1.4665233e-19
1.4667352e-19
1.4682373e-19
1.4673323e-19
1.4667874e-19
1.4664707e-19
1.4663e-19
1.4662225e-19
1.4662087e-19
1.4662497e-19
1.4663571e-19
1.4665704e-19
1.4681567e-19
1.4672524e-19
1.4667083e-19
1.4663925e-19
1.4662225e-19
1.4661455e-19
1.4661324e-19
1.4661742e-19
1.4662824e-19
1.4664963e-19
1.4681376e-19
1.4672347e-19
1.4666923e-19
1.4663778e-19
1.4662087e-19
1.4661324e-19
1.4661199e-19
1.4661621e-19
1.4662707e-19
1.4664848e-19
1.4681686e-19
1.4672689e-19
1.4667298e-19
1.4664175e-19
1.4662497e-19
1.4661742e-19
1.4661621e-19
1.4662047e-19
1.4663135e-19
1.4665278e-19
1.4682567e-19
1.4673656e-19
1.4668324e-19
1.4665233e-19
1.4663571e-19
1.4662824e-19
1.4662707e-19
1.4663135e-19
1.4664226e-19
1.4666371e-19
1.4684319e-19
1.4675659e-19
1.4670411e-19
1.4667352e-19
1.4665704e-19
1.4664963e-19
1.4664848e-19
1.4665278e-19
1.4666371e-19
1.4668521e-19
2.9687981e-19
2.9670304e-19
2.965962e-19
2.9653387e-19
2.9650002e-19
2.9648422e-19
2.9648046e-19
2.9648645e-19
2.9650346e-19
2.9653696e-19
2.9670304e-19
2.9652686e-19
2.9642025e-19
2.9635803e-19
2.9632427e-19
2.9630861e-19
2.9630512e-19
2.9631177e-19
2.9633048e-19
2.9636898e-19
2.965962e-19
2.9642025e-19
2.9631379e-19
2.9625169e-19
2.9621804e-19
2.9620256e-19
2.961994e-19
2.9620669e-19
2.9622657e-19
2.9626676e-19
2.9653387e-19
2.9635803e-19
2.9625169e-19
2.9618969e-19
2.9615615e-19
2.9614083e-19
2.9613795e-19
2.9614567e-19
2.9616619e-19
2.9620702e-19
2.9650002e-19
2.9632427e-19
2.9621804e-19
2.9615615e-19
2.9612273e-19
2.9610754e-19
2.9610485e-19
2.9611284e-19
2.9613368e-19
2.9617478e-19
2.9648422e-19
2.9630861e-19
2.9620256e-19
2.9614083e-19
2.9610754e-19
2.9609248e-19
2.9608991e-19
2.9609805e-19
2.9611906e-19
2.9616026e-19
2.9648046e-19
2.9630512e-19
2.961994e-19
2.9613795e-19
2.9610485e-19
2.9608991e-19
2.9608744e-19
2.9609568e-19
2.9611676e-19
2.9615802e-19
2.9648645e-19
2.9631177e-19
2.9620669e-19
2.9614567e-19
2.9611284e-19
2.9609805e-19
2.9609568e-19
2.9610398e-19
2.9612511e-19
2.961664e-19
2.9650346e-19
2.9633048e-19
2.9622657e-19
2.9616619e-19
2.9613368e-19
2.9611906e-19
2.9611676e-19
2.9612511e-19
2.9614628e-19
2.9618762e-19
2.9653696e-19
2.9636898e-19
2.9626676e-19
2.9620702e-19
2.9617478e-19
2.9616026e-19
2.9615802e-19
2.961664e-19
2.9618762e-19
2.9622906e-19
6.0580661e-19
6.0545991e-19
6.0524957e-19
6.0512655e-19
6.0505963e-19
6.0502837e-19
6.050209e-19
6.050326e-19
6.0506574e-19
6.0513045e-19
6.0545991e-19
6.0511438e-19
6.0490448e-19
6.0478168e-19
6.0471493e-19
6.0468394e-19
6.0467702e-19
6.0469004e-19
6.0472663e-19
6.0480141e-19
6.0524957e-19
6.0490448e-19
6.0469488e-19
6.045723e-19
6.0450578e-19
6.0447515e-19
6.0446889e-19
6.044832e-19
6.0452214e-19
6.0460033e-19
6.0512655e-19
6.0478168e-19
6.045723e-19
6.0444992e-19
6.0438364e-19
6.0435333e-19
6.0434761e-19
6.0436282e-19
6.0440303e-19
6.0448251e-19
6.0505963e-19
6.0471493e-19
6.0450578e-19
6.0438364e-19
6.0431758e-19
6.0428754e-19
6.042822e-19
6.0429794e-19
6.043388e-19
6.0441881e-19
6.0502837e-19
6.0468394e-19
6.0447515e-19
6.0435333e-19
6.0428754e-19
6.0425774e-19
6.0425266e-19
6.042687e-19
6.0430989e-19
6.0439013e-19
6.050209e-19
6.0467702e-19
6.0446889e-19
6.0434761e-19
6.042822e-19
6.0425266e-19
6.0424779e-19
6.0426401e-19
6.0430536e-19
6.0438571e-19
6.050326e-19
6.0469004e-19
6.044832e-19
6.0436282e-19
6.0429794e-19
6.042687e-19
6.0426401e-19
6.0428036e-19
6.0432181e-19
6.0440222e-19
6.0506574e-19
6.0472663e-19
6.0452214e-19
6.0440303e-19
6.043388e-19
6.0430989e-19
6.0430536e-19
6.0432181e-19
6.0436334e-19
6.0444383e-19
6.0513045e-19
6.0480141e-19
6.0460033e-19
6.0448251e-19
6.0441881e-19
6.0439013e-19
6.0438571e-19
6.0440222e-19
6.0444383e-19
6.0452453e-19
1.2491831e-18
1.2484963e-18
1.2480781e-18
1.247833e-18
1.2476994e-18
1.2476369e-18
1.2476219e-18
1.247645e-18
1.2477103e-18
1.2478365e-18
1.2484963e-18
1.2478119e-18
1.2473946e-18
1.2471498e-18
1.2470166e-18
1.2469547e-18
1.2469408e-18
1.2469666e-18
1.2470389e-18
1.2471856e-18
1.2480781e-18
1.2473946e-18
1.2469779e-18
1.2467335e-18
1.2466008e-18
1.2465396e-18
1.246527e-18
1.2465555e-18
1.2466325e-18
1.2467862e-18
1.247833e-18
1.2471498e-18
1.2467335e-18
1.2464896e-18
1.2463573e-18
1.2462968e-18
1.2462853e-18
1.2463156e-18
1.2463952e-18
1.2465516e-18
1.2476994e-18
1.2470166e-18
1.2466008e-18
1.2463573e-18
1.2462255e-18
1.2461655e-18
1.2461548e-18
1.2461861e-18
1.2462671e-18
1.2464245e-18
1.2476369e-18
1.2469547e-18
1.2465396e-18
1.2462968e-18
1.2461655e-18
1.246106e-18
1.2460958e-18
1.2461278e-18
1.2462094e-18
1.2463673e-18
1.2476219e-18
1.2469408e-18
1.246527e-18
1.2462853e-18
1.2461548e-18
1.2460958e-18
1.2460861e-18
1.2461184e-18
1.2462004e-18
1.2463585e-18
1.247645e-18
1.2469666e-18
1.2465555e-18
1.2463156e-18
1.2461861e-18
1.2461278e-18
1.2461184e-18
1.246151e-18
1.2462331e-18
1.2463913e-18
1.2477103e-18
1.2470389e-18
1.2466325e-18
1.2463952e-18
1.2462671e-18
1.2462094e-18
1.2462004e-18
1.2462331e-18
1.2463154e-18
1.2464738e-18
1.2478365e-18
1.2471856e-18
1.2467862e-18
1.2465516e-18
1.2464245e-18
1.2463673e-18
1.2463585e-18
1.2463913e-18
1.2464738e-18
1.2466326e-18
2.6028264e-18
2.6014528e-18
2.6006132e-18
2.6001197e-18
2.5998505e-18
2.5997245e-18
2.5996941e-18
2.5997402e-18
2.59987e-18
2.6001189e-18
2.6014528e-18
2.6000838e-18
2.5992459e-18
2.5987533e-18
2.5984847e-18
2.5983598e-18
2.5983318e-18
2.5983834e-18
2.5985276e-18
2.5988187e-18
2.6006132e-18
2.5992459e-18
2.5984092e-18
2.5979175e-18
2.5976499e-18
2.5975264e-18
2.5975011e-18
2.5975581e-18
2.5977121e-18
2.5980174e-18
2.6001197e-18
2.5987533e-18
2.5979175e-18
2.5974266e-18
2.5971599e-18
2.5970378e-18
2.5970148e-18
2.5970755e-18
2.5972349e-18
2.5975456e-18
2.5998505e-18
2.5984847e-18
2.5976499e-18
2.5971599e-18
2.5968942e-18
2.5967732e-18
2.5967517e-18
2.5968147e-18
2.5969768e-18
2.5972897e-18
2.5997245e-18
2.5983598e-18
2.5975264e-18
2.5970378e-18
2.5967732e-18
2.5966532e-18
2.5966328e-18
2.5966971e-18
2.5968605e-18
2.5971743e-18
2.5996941e-18
2.5983318e-18
2.5975011e-18
2.5970148e-18
2.5967517e-18
2.5966328e-18
2.5966133e-18
2.5966783e-18
2.5968424e-18
2.5971567e-18
2.5997402e-18
2.5983834e-18
2.5975581e-18
2.5970755e-18
2.5968147e-18
2.5966971e-18
2.5966783e-18
2.5967438e-18
2.5969083e-18
2.5972229e-18
2.59987e-18
2.5985276e-18
2.5977121e-18
2.5972349e-18
2.5969768e-18
2.5968605e-18
2.5968424e-18
2.5969083e-18
2.5970731e-18
2.597388e-18
2.6001189e-18
2.5988187e-18
2.5980174e-18
2.5975456e-18
2.5972897e-18
2.5971743e-18
2.5971567e-18
2.5972229e-18
2.597388e-18
2.5977037e-18
5.4799216e-18
5.4771472e-18
5.475445e-18
5.4744423e-18
5.4738942e-18
5.4736376e-18
5.4735755e-18
5.4736686e-18
5.4739295e-18
5.4744251e-18
5.4771472e-18
5.4743819e-18
5.4726832e-18
5.4716821e-18
5.4711356e-18
5.4708812e-18
5.4708239e-18
5.4709284e-18
5.4712191e-18
5.4718022e-18
5.475445e-18
5.4726832e-18
5.4709869e-18
5.4699877e-18
5.469443e-18
5.4691917e-18
5.4691401e-18
5.4692558e-18
5.4695668e-18
5.4701795e-18
5.4744423e-18
5.4716821e-18
5.4699877e-18
5.4689901e-18
5.4684474e-18
5.4681989e-18
5.468152e-18
5.4682753e-18
5.4685975e-18
5.4692214e-18
5.4738942e-18
5.4711356e-18
5.469443e-18
5.4684474e-18
5.4679067e-18
5.4676604e-18
5.4676168e-18
5.4677448e-18
5.4680725e-18
5.468701e-18
5.4736376e-18
5.4708812e-18
5.4691917e-18
5.4681989e-18
5.4676604e-18
5.4674163e-18
5.4673749e-18
5.4675055e-18
5.467836e-18
5.4684664e-18
5.4735755e-18
5.4708239e-18
5.4691401e-18
5.468152e-18
5.4676168e-18
5.4673749e-18
5.4673352e-18
5.4674674e-18
5.4677993e-18
5.4684307e-18
5.4736686e-18
5.4709284e-18
5.4692558e-18
5.4682753e-18
5.4677448e-18
5.4675055e-18
5.4674674e-18
5.4676006e-18
5.4679334e-18
5.4685653e-18
5.4739295e-18
5.4712191e-18
5.4695668e-18
5.4685975e-18
5.4680725e-18
5.467836e-18
5.4677993e-18
5.4679334e-18
5.4682668e-18
5.4688994e-18
5.4744251e-18
5.4718022e-18
5.4701795e-18
5.4692214e-18
5.468701e-18
5.4684664e-18
5.4684307e-18
5.4685653e-18