/*--------------------------------*- C++ -*----------------------------------*\
| =========                 |                                                 |
| \\      /  F ield         | OpenFOAM: The Open Source CFD Toolbox           |
|  \\    /   O peration     | Version:  dev                                   |
|   \\  /    A nd           | Web:      www.OpenFOAM.org                      |
|    \\/     M anipulation  |                                                 |
\*---------------------------------------------------------------------------*/
FoamFile
{
    version     2.0;
    format      ascii;
    class       volScalarField;
    location    "38.995";
    object      A;
}
// * * * * * * * * * * * * * * * * * * * * * * * * * * * * * * * * * * * * * //

dimensions      [0 0 0 0 1 0 0];

internalField   nonuniform List<scalar> 
10000
(
4.6228234e-38
4.6134381e-38
4.6116983e-38
4.6114209e-38
4.6113701e-38
4.6113559e-38
4.6113543e-38
4.6113808e-38
4.6115754e-38
4.6125502e-38
4.6134381e-38
4.6041146e-38
4.6023852e-38
4.6021093e-38
4.6020587e-38
4.6020447e-38
4.6020435e-38
4.6020741e-38
4.6022978e-38
4.6034395e-38
4.6116983e-38
4.6023852e-38
4.6006582e-38
4.6003827e-38
4.6003321e-38
4.6003182e-38
4.6003174e-38
4.6003494e-38
4.600581e-38
4.601751e-38
4.6114209e-38
4.6021093e-38
4.6003827e-38
4.6001073e-38
4.6000568e-38
4.6000429e-38
4.6000423e-38
4.6000747e-38
4.6003077e-38
4.6014815e-38
4.6113701e-38
4.6020587e-38
4.6003321e-38
4.6000568e-38
4.6000063e-38
4.5999925e-38
4.5999919e-38
4.6000245e-38
4.6002578e-38
4.6014321e-38
4.6113559e-38
4.6020447e-38
4.6003182e-38
4.6000429e-38
4.5999925e-38
4.5999788e-38
4.5999782e-38
4.6000109e-38
4.6002443e-38
4.6014187e-38
4.6113543e-38
4.6020435e-38
4.6003174e-38
4.6000423e-38
4.5999919e-38
4.5999782e-38
4.5999777e-38
4.6000104e-38
4.6002438e-38
4.6014182e-38
4.6113808e-38
4.6020741e-38
4.6003494e-38
4.6000747e-38
4.6000245e-38
4.6000109e-38
4.6000104e-38
4.6000431e-38
4.6002766e-38
4.6014511e-38
4.6115754e-38
4.6022978e-38
4.600581e-38
4.6003077e-38
4.6002578e-38
4.6002443e-38
4.6002438e-38
4.6002766e-38
4.6005102e-38
4.6016855e-38
4.6125502e-38
4.6034395e-38
4.601751e-38
4.6014815e-38
4.6014321e-38
4.6014187e-38
4.6014182e-38
4.6014511e-38
4.6016855e-38
4.6028651e-38
1.7817223e-37
1.7782717e-37
1.7776135e-37
1.7775082e-37
1.7774888e-37
1.7774834e-37
1.7774828e-37
1.7774927e-37
1.7775666e-37
1.7779589e-37
1.7782717e-37
1.7748434e-37
1.7741891e-37
1.7740843e-37
1.774065e-37
1.7740597e-37
1.7740592e-37
1.7740708e-37
1.7741558e-37
1.7746127e-37
1.7776135e-37
1.7741891e-37
1.7735356e-37
1.773431e-37
1.7734117e-37
1.7734064e-37
1.7734061e-37
1.7734182e-37
1.7735063e-37
1.7739741e-37
1.7775082e-37
1.7740843e-37
1.773431e-37
1.7733264e-37
1.7733072e-37
1.7733019e-37
1.7733016e-37
1.7733139e-37
1.7734025e-37
1.7738718e-37
1.7774888e-37
1.774065e-37
1.7734117e-37
1.7733072e-37
1.773288e-37
1.7732827e-37
1.7732825e-37
1.7732948e-37
1.7733835e-37
1.773853e-37
1.7774834e-37
1.7740597e-37
1.7734064e-37
1.7733019e-37
1.7732827e-37
1.7732775e-37
1.7732772e-37
1.7732896e-37
1.7733783e-37
1.7738478e-37
1.7774828e-37
1.7740592e-37
1.7734061e-37
1.7733016e-37
1.7732825e-37
1.7732772e-37
1.773277e-37
1.7732894e-37
1.7733781e-37
1.7738476e-37
1.7774927e-37
1.7740708e-37
1.7734182e-37
1.7733139e-37
1.7732948e-37
1.7732896e-37
1.7732894e-37
1.7733017e-37
1.7733905e-37
1.7738601e-37
1.7775666e-37
1.7741558e-37
1.7735063e-37
1.7734025e-37
1.7733835e-37
1.7733783e-37
1.7733781e-37
1.7733905e-37
1.7734794e-37
1.7739492e-37
1.7779589e-37
1.7746127e-37
1.7739741e-37
1.7738718e-37
1.773853e-37
1.7738478e-37
1.7738476e-37
1.7738601e-37
1.7739492e-37
1.7744208e-37
4.6790616e-37
4.670319e-37
4.6686367e-37
4.6683667e-37
4.6683169e-37
4.668303e-37
4.6683013e-37
4.6683264e-37
4.6685137e-37
4.6695482e-37
4.670319e-37
4.6616324e-37
4.6599598e-37
4.6596912e-37
4.6596417e-37
4.6596279e-37
4.6596267e-37
4.6596559e-37
4.6598726e-37
4.6610763e-37
4.6686367e-37
4.6599598e-37
4.6582895e-37
4.6580213e-37
4.6579719e-37
4.6579582e-37
4.6579573e-37
4.657988e-37
4.6582125e-37
4.6594447e-37
4.6683667e-37
4.6596912e-37
4.6580213e-37
4.6577532e-37
4.6577038e-37
4.6576902e-37
4.6576894e-37
4.6577205e-37
4.6579465e-37
4.6591826e-37
4.6683169e-37
4.6596417e-37
4.6579719e-37
4.6577038e-37
4.6576544e-37
4.6576409e-37
4.6576402e-37
4.6576714e-37
4.6578977e-37
4.6591343e-37
4.668303e-37
4.6596279e-37
4.6579582e-37
4.6576902e-37
4.6576409e-37
4.6576273e-37
4.6576267e-37
4.657658e-37
4.6578844e-37
4.659121e-37
4.6683013e-37
4.6596267e-37
4.6579573e-37
4.6576894e-37
4.6576402e-37
4.6576267e-37
4.6576261e-37
4.6576575e-37
4.6578839e-37
4.6591205e-37
4.6683264e-37
4.6596559e-37
4.657988e-37
4.6577205e-37
4.6576714e-37
4.657658e-37
4.6576575e-37
4.6576889e-37
4.6579153e-37
4.6591521e-37
4.6685137e-37
4.6598726e-37
4.6582125e-37
4.6579465e-37
4.6578977e-37
4.6578844e-37
4.6578839e-37
4.6579153e-37
4.6581419e-37
4.6593794e-37
4.6695482e-37
4.6610763e-37
4.6594447e-37
4.6591826e-37
4.6591343e-37
4.659121e-37
4.6591205e-37
4.6591521e-37
4.6593794e-37
4.6606217e-37
1.1860998e-36
1.1839571e-36
1.1835434e-36
1.1834769e-36
1.1834646e-36
1.1834611e-36
1.1834607e-36
1.1834667e-36
1.183512e-36
1.1837637e-36
1.1839571e-36
1.1818281e-36
1.1814167e-36
1.1813505e-36
1.1813383e-36
1.1813349e-36
1.1813345e-36
1.1813416e-36
1.1813943e-36
1.1816887e-36
1.1835434e-36
1.1814167e-36
1.1810059e-36
1.1809398e-36
1.1809276e-36
1.1809242e-36
1.180924e-36
1.1809314e-36
1.1809861e-36
1.1812877e-36
1.1834769e-36
1.1813505e-36
1.1809398e-36
1.1808737e-36
1.1808615e-36
1.1808582e-36
1.1808579e-36
1.1808655e-36
1.1809206e-36
1.1812231e-36
1.1834646e-36
1.1813383e-36
1.1809276e-36
1.1808615e-36
1.1808493e-36
1.180846e-36
1.1808458e-36
1.1808534e-36
1.1809085e-36
1.1812112e-36
1.1834611e-36
1.1813349e-36
1.1809242e-36
1.1808582e-36
1.180846e-36
1.1808426e-36
1.1808424e-36
1.1808501e-36
1.1809052e-36
1.1812079e-36
1.1834607e-36
1.1813345e-36
1.180924e-36
1.1808579e-36
1.1808458e-36
1.1808424e-36
1.1808423e-36
1.1808499e-36
1.180905e-36
1.1812078e-36
1.1834667e-36
1.1813416e-36
1.1809314e-36
1.1808655e-36
1.1808534e-36
1.1808501e-36
1.1808499e-36
1.1808575e-36
1.1809127e-36
1.1812155e-36
1.183512e-36
1.1813943e-36
1.1809861e-36
1.1809206e-36
1.1809085e-36
1.1809052e-36
1.180905e-36
1.1809127e-36
1.1809679e-36
1.1812708e-36
1.1837637e-36
1.1816887e-36
1.1812877e-36
1.1812231e-36
1.1812112e-36
1.1812079e-36
1.1812078e-36
1.1812155e-36
1.1812708e-36
1.1815749e-36
3.0286408e-36
3.0233499e-36
3.0223262e-36
3.0221612e-36
3.0221306e-36
3.022122e-36
3.0221209e-36
3.0221356e-36
3.0222452e-36
3.0228536e-36
3.0233499e-36
3.0180923e-36
3.0170744e-36
3.0169103e-36
3.0168798e-36
3.0168713e-36
3.0168705e-36
3.0168878e-36
3.0170162e-36
3.0177333e-36
3.0223262e-36
3.0170744e-36
3.016058e-36
3.015894e-36
3.0158636e-36
3.0158552e-36
3.0158545e-36
3.0158728e-36
3.0160063e-36
3.0167416e-36
3.0221612e-36
3.0169103e-36
3.015894e-36
3.0157302e-36
3.0156998e-36
3.0156914e-36
3.0156908e-36
3.0157093e-36
3.0158437e-36
3.0165816e-36
3.0221306e-36
3.0168798e-36
3.0158636e-36
3.0156998e-36
3.0156694e-36
3.015661e-36
3.0156605e-36
3.0156791e-36
3.0158137e-36
3.0165519e-36
3.022122e-36
3.0168713e-36
3.0158552e-36
3.0156914e-36
3.015661e-36
3.0156526e-36
3.0156522e-36
3.0156708e-36
3.0158055e-36
3.0165437e-36
3.0221209e-36
3.0168705e-36
3.0158545e-36
3.0156908e-36
3.0156605e-36
3.0156522e-36
3.0156517e-36
3.0156704e-36
3.0158051e-36
3.0165433e-36
3.0221356e-36
3.0168878e-36
3.0158728e-36
3.0157093e-36
3.0156791e-36
3.0156708e-36
3.0156704e-36
3.0156891e-36
3.0158238e-36
3.0165621e-36
3.0222452e-36
3.0170162e-36
3.0160063e-36
3.0158437e-36
3.0158137e-36
3.0158055e-36
3.0158051e-36
3.0158238e-36
3.0159586e-36
3.0166973e-36
3.0228536e-36
3.0177333e-36
3.0167416e-36
3.0165816e-36
3.0165519e-36
3.0165437e-36
3.0165433e-36
3.0165621e-36
3.0166973e-36
3.0174388e-36
7.8426493e-36
7.8294038e-36
7.8268366e-36
7.826422e-36
7.8263449e-36
7.8263231e-36
7.82632e-36
7.8263562e-36
7.8266248e-36
7.8281109e-36
7.8294038e-36
7.8162409e-36
7.8136881e-36
7.8132756e-36
7.8131988e-36
7.8131773e-36
7.8131751e-36
7.8132179e-36
7.813535e-36
7.8153011e-36
7.8268366e-36
7.8136881e-36
7.8111388e-36
7.8107269e-36
7.8106502e-36
7.8106288e-36
7.8106271e-36
7.8106723e-36
7.8110024e-36
7.8128156e-36
7.826422e-36
7.8132756e-36
7.8107269e-36
7.8103151e-36
7.8102385e-36
7.8102172e-36
7.8102157e-36
7.8102616e-36
7.8105941e-36
7.8124137e-36
7.8263449e-36
7.8131988e-36
7.8106502e-36
7.8102385e-36
7.8101619e-36
7.8101407e-36
7.8101393e-36
7.8101855e-36
7.8105185e-36
7.8123388e-36
7.8263231e-36
7.8131773e-36
7.8106288e-36
7.8102172e-36
7.8101407e-36
7.8101195e-36
7.8101183e-36
7.8101645e-36
7.8104976e-36
7.8123181e-36
7.82632e-36
7.8131751e-36
7.8106271e-36
7.8102157e-36
7.8101393e-36
7.8101183e-36
7.810117e-36
7.8101634e-36
7.8104965e-36
7.812317e-36
7.8263562e-36
7.8132179e-36
7.8106723e-36
7.8102616e-36
7.8101855e-36
7.8101645e-36
7.8101634e-36
7.8102098e-36
7.810543e-36
7.8123636e-36
7.8266248e-36
7.813535e-36
7.8110024e-36
7.8105941e-36
7.8105185e-36
7.8104976e-36
7.8104965e-36
7.810543e-36
7.8108764e-36
7.8126981e-36
7.8281109e-36
7.8153011e-36
7.8128156e-36
7.8124137e-36
7.8123388e-36
7.8123181e-36
7.812317e-36
7.8123636e-36
7.8126981e-36
7.8145267e-36
2.0618367e-35
2.0584715e-35
2.0578182e-35
2.0577125e-35
2.0576927e-35
2.0576872e-35
2.0576863e-35
2.0576953e-35
2.0577621e-35
2.0581302e-35
2.0584715e-35
2.0551271e-35
2.0544774e-35
2.0543722e-35
2.0543526e-35
2.054347e-35
2.0543464e-35
2.0543572e-35
2.0544366e-35
2.054878e-35
2.0578182e-35
2.0544774e-35
2.0538286e-35
2.0537235e-35
2.0537039e-35
2.0536984e-35
2.0536979e-35
2.0537093e-35
2.0537922e-35
2.0542458e-35
2.0577125e-35
2.0543722e-35
2.0537235e-35
2.0536185e-35
2.0535989e-35
2.0535935e-35
2.0535931e-35
2.0536046e-35
2.0536881e-35
2.0541434e-35
2.0576927e-35
2.0543526e-35
2.0537039e-35
2.0535989e-35
2.0535793e-35
2.0535739e-35
2.0535735e-35
2.0535851e-35
2.0536687e-35
2.0541242e-35
2.0576872e-35
2.054347e-35
2.0536984e-35
2.0535935e-35
2.0535739e-35
2.0535685e-35
2.0535681e-35
2.0535798e-35
2.0536634e-35
2.0541189e-35
2.0576863e-35
2.0543464e-35
2.0536979e-35
2.0535931e-35
2.0535735e-35
2.0535681e-35
2.0535678e-35
2.0535794e-35
2.0536631e-35
2.0541186e-35
2.0576953e-35
2.0543572e-35
2.0537093e-35
2.0536046e-35
2.0535851e-35
2.0535798e-35
2.0535794e-35
2.0535911e-35
2.0536748e-35
2.0541304e-35
2.0577621e-35
2.0544366e-35
2.0537922e-35
2.0536881e-35
2.0536687e-35
2.0536634e-35
2.0536631e-35
2.0536748e-35
2.0537585e-35
2.0542144e-35
2.0581302e-35
2.054878e-35
2.0542458e-35
2.0541434e-35
2.0541242e-35
2.0541189e-35
2.0541186e-35
2.0541304e-35
2.0542144e-35
2.0546719e-35
5.5045937e-35
5.4959149e-35
5.4942273e-35
5.4939537e-35
5.4939025e-35
5.4938879e-35
5.4938858e-35
5.4939085e-35
5.4940771e-35
5.4950025e-35
5.4959149e-35
5.4872894e-35
5.485611e-35
5.4853388e-35
5.4852878e-35
5.4852734e-35
5.4852718e-35
5.4852992e-35
5.4855014e-35
5.4866211e-35
5.4942273e-35
5.485611e-35
5.4839349e-35
5.4836631e-35
5.4836121e-35
5.4835978e-35
5.4835966e-35
5.4836257e-35
5.4838368e-35
5.4849891e-35
5.4939537e-35
5.4853388e-35
5.4836631e-35
5.4833913e-35
5.4833404e-35
5.4833262e-35
5.4833251e-35
5.4833547e-35
5.4835675e-35
5.4847242e-35
5.4939025e-35
5.4852878e-35
5.4836121e-35
5.4833404e-35
5.4832896e-35
5.4832754e-35
5.4832744e-35
5.4833041e-35
5.4835172e-35
5.4846745e-35
5.4938879e-35
5.4852734e-35
5.4835978e-35
5.4833262e-35
5.4832754e-35
5.4832613e-35
5.4832603e-35
5.4832901e-35
5.4835033e-35
5.4846607e-35
5.4938858e-35
5.4852718e-35
5.4835966e-35
5.4833251e-35
5.4832744e-35
5.4832603e-35
5.4832594e-35
5.4832892e-35
5.4835025e-35
5.4846599e-35
5.4939085e-35
5.4852992e-35
5.4836257e-35
5.4833547e-35
5.4833041e-35
5.4832901e-35
5.4832892e-35
5.4833191e-35
5.4835324e-35
5.4846899e-35
5.4940771e-35
5.4855014e-35
5.4838368e-35
5.4835675e-35
5.4835172e-35
5.4835033e-35
5.4835025e-35
5.4835324e-35
5.4837459e-35
5.484904e-35
5.4950025e-35
5.4866211e-35
5.4849891e-35
5.4847242e-35
5.4846745e-35
5.4846607e-35
5.4846599e-35
5.4846899e-35
5.484904e-35
5.4860664e-35
1.4925105e-34
1.4902383e-34
1.4897958e-34
1.4897239e-34
1.4897104e-34
1.4897066e-34
1.489706e-34
1.4897118e-34
1.489755e-34
1.4899912e-34
1.4902383e-34
1.48798e-34
1.4875399e-34
1.4874684e-34
1.487455e-34
1.4874511e-34
1.4874507e-34
1.4874578e-34
1.48751e-34
1.4877985e-34
1.4897958e-34
1.4875399e-34
1.4871004e-34
1.487029e-34
1.4870155e-34
1.4870118e-34
1.4870114e-34
1.487019e-34
1.4870736e-34
1.4873709e-34
1.4897239e-34
1.4874684e-34
1.487029e-34
1.4869576e-34
1.4869442e-34
1.4869404e-34
1.4869401e-34
1.4869478e-34
1.4870029e-34
1.4873013e-34
1.4897104e-34
1.487455e-34
1.4870155e-34
1.4869442e-34
1.4869307e-34
1.486927e-34
1.4869267e-34
1.4869344e-34
1.4869896e-34
1.4872882e-34
1.4897066e-34
1.4874511e-34
1.4870118e-34
1.4869404e-34
1.486927e-34
1.4869233e-34
1.486923e-34
1.4869307e-34
1.4869859e-34
1.4872846e-34
1.489706e-34
1.4874507e-34
1.4870114e-34
1.4869401e-34
1.4869267e-34
1.486923e-34
1.4869227e-34
1.4869305e-34
1.4869857e-34
1.4872844e-34
1.4897118e-34
1.4874578e-34
1.487019e-34
1.4869478e-34
1.4869344e-34
1.4869307e-34
1.4869305e-34
1.4869382e-34
1.4869935e-34
1.4872922e-34
1.489755e-34
1.48751e-34
1.4870736e-34
1.4870029e-34
1.4869896e-34
1.4869859e-34
1.4869857e-34
1.4869935e-34
1.4870487e-34
1.4873476e-34
1.4899912e-34
1.4877985e-34
1.4873709e-34
1.4873013e-34
1.4872882e-34
1.4872846e-34
1.4872844e-34
1.4872922e-34
1.4873476e-34
1.4876475e-34
4.1101711e-34
4.1041322e-34
4.1029542e-34
4.1027625e-34
4.1027264e-34
4.1027161e-34
4.1027144e-34
4.1027297e-34
4.102842e-34
4.1034538e-34
4.1041322e-34
4.0981297e-34
4.0969581e-34
4.0967674e-34
4.0967314e-34
4.0967211e-34
4.0967199e-34
4.0967386e-34
4.0968757e-34
4.0976306e-34
4.1029542e-34
4.0969581e-34
4.0957879e-34
4.0955975e-34
4.0955615e-34
4.0955514e-34
4.0955504e-34
4.0955703e-34
4.095714e-34
4.096493e-34
4.1027625e-34
4.0967674e-34
4.0955975e-34
4.0954071e-34
4.0953712e-34
4.0953611e-34
4.0953602e-34
4.0953805e-34
4.0955254e-34
4.0963076e-34
4.1027264e-34
4.0967314e-34
4.0955615e-34
4.0953712e-34
4.0953353e-34
4.0953253e-34
4.0953245e-34
4.0953448e-34
4.09549e-34
4.0962726e-34
4.1027161e-34
4.0967211e-34
4.0955514e-34
4.0953611e-34
4.0953253e-34
4.0953152e-34
4.0953145e-34
4.0953349e-34
4.0954801e-34
4.0962628e-34
4.1027144e-34
4.0967199e-34
4.0955504e-34
4.0953602e-34
4.0953245e-34
4.0953145e-34
4.0953138e-34
4.0953342e-34
4.0954794e-34
4.0962622e-34
4.1027297e-34
4.0967386e-34
4.0955703e-34
4.0953805e-34
4.0953448e-34
4.0953349e-34
4.0953342e-34
4.0953546e-34
4.0954999e-34
4.0962827e-34
4.102842e-34
4.0968757e-34
4.095714e-34
4.0955254e-34
4.09549e-34
4.0954801e-34
4.0954794e-34
4.0954999e-34
4.0956453e-34
4.0964285e-34
4.1034538e-34
4.0976306e-34
4.096493e-34
4.0963076e-34
4.0962726e-34
4.0962628e-34
4.0962622e-34
4.0962827e-34
4.0964285e-34
4.0972145e-34
1.1496796e-33
1.14805e-33
1.1477317e-33
1.1476798e-33
1.14767e-33
1.1476672e-33
1.1476667e-33
1.1476707e-33
1.1477004e-33
1.1478614e-33
1.14805e-33
1.1464303e-33
1.1461136e-33
1.146062e-33
1.1460522e-33
1.1460494e-33
1.1460491e-33
1.1460541e-33
1.1460906e-33
1.1462913e-33
1.1477317e-33
1.1461136e-33
1.1457974e-33
1.1457458e-33
1.145736e-33
1.1457333e-33
1.145733e-33
1.1457383e-33
1.1457767e-33
1.145984e-33
1.1476798e-33
1.146062e-33
1.1457458e-33
1.1456942e-33
1.1456845e-33
1.1456817e-33
1.1456815e-33
1.1456869e-33
1.1457256e-33
1.1459339e-33
1.14767e-33
1.1460522e-33
1.145736e-33
1.1456845e-33
1.1456748e-33
1.145672e-33
1.1456718e-33
1.1456772e-33
1.145716e-33
1.1459244e-33
1.1476672e-33
1.1460494e-33
1.1457333e-33
1.1456817e-33
1.145672e-33
1.1456693e-33
1.1456691e-33
1.1456745e-33
1.1457133e-33
1.1459217e-33
1.1476667e-33
1.1460491e-33
1.145733e-33
1.1456815e-33
1.1456718e-33
1.1456691e-33
1.1456689e-33
1.1456743e-33
1.1457131e-33
1.1459215e-33
1.1476707e-33
1.1460541e-33
1.1457383e-33
1.1456869e-33
1.1456772e-33
1.1456745e-33
1.1456743e-33
1.1456798e-33
1.1457186e-33
1.145927e-33
1.1477004e-33
1.1460906e-33
1.1457767e-33
1.1457256e-33
1.145716e-33
1.1457133e-33
1.1457131e-33
1.1457186e-33
1.1457575e-33
1.145966e-33
1.1478614e-33
1.1462913e-33
1.145984e-33
1.1459339e-33
1.1459244e-33
1.1459217e-33
1.1459215e-33
1.145927e-33
1.145966e-33
1.1461752e-33
3.2665369e-33
3.2620726e-33
3.2611991e-33
3.2610566e-33
3.2610295e-33
3.2610217e-33
3.2610204e-33
3.2610313e-33
3.2611109e-33
3.2615407e-33
3.2620726e-33
3.2576349e-33
3.2567661e-33
3.2566241e-33
3.2565972e-33
3.2565895e-33
3.2565885e-33
3.256602e-33
3.2567009e-33
3.2572427e-33
3.2611991e-33
3.2567661e-33
3.2558983e-33
3.2557566e-33
3.2557297e-33
3.255722e-33
3.2557212e-33
3.2557357e-33
3.2558398e-33
3.2564004e-33
3.2610566e-33
3.2566241e-33
3.2557566e-33
3.2556149e-33
3.255588e-33
3.2555804e-33
3.2555797e-33
3.2555944e-33
3.2556995e-33
3.2562626e-33
3.2610295e-33
3.2565972e-33
3.2557297e-33
3.255588e-33
3.2555611e-33
3.2555536e-33
3.2555529e-33
3.2555677e-33
3.255673e-33
3.2562364e-33
3.2610217e-33
3.2565895e-33
3.255722e-33
3.2555804e-33
3.2555536e-33
3.255546e-33
3.2555454e-33
3.2555603e-33
3.2556655e-33
3.256229e-33
3.2610204e-33
3.2565885e-33
3.2557212e-33
3.2555797e-33
3.2555529e-33
3.2555454e-33
3.2555448e-33
3.2555597e-33
3.255665e-33
3.2562285e-33
3.2610313e-33
3.256602e-33
3.2557357e-33
3.2555944e-33
3.2555677e-33
3.2555603e-33
3.2555597e-33
3.2555746e-33
3.2556799e-33
3.2562435e-33
3.2611109e-33
3.2567009e-33
3.2558398e-33
3.2556995e-33
3.255673e-33
3.2556655e-33
3.255665e-33
3.2556799e-33
3.2557853e-33
3.2563492e-33
3.2615407e-33
3.2572427e-33
3.2564004e-33
3.2562626e-33
3.2562364e-33
3.256229e-33
3.2562285e-33
3.2562435e-33
3.2563492e-33
3.256915e-33
9.4277281e-33
9.4153106e-33
9.4128774e-33
9.4124795e-33
9.4124037e-33
9.4123819e-33
9.4123782e-33
9.4124077e-33
9.4126246e-33
9.4137903e-33
9.4153106e-33
9.4029664e-33
9.4005459e-33
9.4001499e-33
9.4000744e-33
9.4000528e-33
9.4000501e-33
9.4000873e-33
9.4003593e-33
9.4018453e-33
9.4128774e-33
9.4005459e-33
9.3981285e-33
9.397733e-33
9.3976577e-33
9.3976362e-33
9.397634e-33
9.397674e-33
9.3979608e-33
9.3995005e-33
9.4124795e-33
9.4001499e-33
9.397733e-33
9.3973376e-33
9.3972623e-33
9.397241e-33
9.397239e-33
9.3972797e-33
9.3975693e-33
9.3991163e-33
9.4124037e-33
9.4000744e-33
9.3976577e-33
9.3972623e-33
9.3971872e-33
9.3971659e-33
9.3971641e-33
9.397205e-33
9.3974951e-33
9.3990431e-33
9.4123819e-33
9.4000528e-33
9.3976362e-33
9.397241e-33
9.3971659e-33
9.3971447e-33
9.397143e-33
9.3971841e-33
9.3974743e-33
9.3990224e-33
9.4123782e-33
9.4000501e-33
9.397634e-33
9.397239e-33
9.3971641e-33
9.397143e-33
9.3971413e-33
9.3971824e-33
9.3974727e-33
9.3990209e-33
9.4124077e-33
9.4000873e-33
9.397674e-33
9.3972797e-33
9.397205e-33
9.3971841e-33
9.3971824e-33
9.3972236e-33
9.3975139e-33
9.3990622e-33
9.4126246e-33
9.4003593e-33
9.3979608e-33
9.3975693e-33
9.3974951e-33
9.3974743e-33
9.3974727e-33
9.3975139e-33
9.3978045e-33
9.3993535e-33
9.4137903e-33
9.4018453e-33
9.3995005e-33
9.3991163e-33
9.3990431e-33
9.3990224e-33
9.3990209e-33
9.3990622e-33
9.3993535e-33
9.4009079e-33
2.7640461e-32
2.7605393e-32
2.7598511e-32
2.7597384e-32
2.7597169e-32
2.7597107e-32
2.7597096e-32
2.7597178e-32
2.7597778e-32
2.7600988e-32
2.7605393e-32
2.757053e-32
2.7563684e-32
2.7562562e-32
2.7562348e-32
2.7562286e-32
2.7562278e-32
2.7562382e-32
2.7563142e-32
2.7567283e-32
2.7598511e-32
2.7563684e-32
2.7556847e-32
2.7555726e-32
2.7555512e-32
2.7555451e-32
2.7555445e-32
2.7555557e-32
2.755636e-32
2.7560656e-32
2.7597384e-32
2.7562562e-32
2.7555726e-32
2.7554606e-32
2.7554392e-32
2.7554331e-32
2.7554326e-32
2.755444e-32
2.7555251e-32
2.7559569e-32
2.7597169e-32
2.7562348e-32
2.7555512e-32
2.7554392e-32
2.7554179e-32
2.7554118e-32
2.7554113e-32
2.7554228e-32
2.755504e-32
2.755936e-32
2.7597107e-32
2.7562286e-32
2.7555451e-32
2.7554331e-32
2.7554118e-32
2.7554058e-32
2.7554053e-32
2.7554168e-32
2.7554981e-32
2.7559302e-32
2.7597096e-32
2.7562278e-32
2.7555445e-32
2.7554326e-32
2.7554113e-32
2.7554053e-32
2.7554048e-32
2.7554163e-32
2.7554976e-32
2.7559297e-32
2.7597178e-32
2.7562382e-32
2.7555557e-32
2.755444e-32
2.7554228e-32
2.7554168e-32
2.7554163e-32
2.7554279e-32
2.7555092e-32
2.7559413e-32
2.7597778e-32
2.7563142e-32
2.755636e-32
2.7555251e-32
2.755504e-32
2.7554981e-32
2.7554976e-32
2.7555092e-32
2.7555906e-32
2.7560229e-32
2.7600988e-32
2.7567283e-32
2.7560656e-32
2.7559569e-32
2.755936e-32
2.7559302e-32
2.7559297e-32
2.7559413e-32
2.7560229e-32
2.7564567e-32
8.2320362e-32
8.2219809e-32
8.2200049e-32
8.2196807e-32
8.2196186e-32
8.2196006e-32
8.2195974e-32
8.2196205e-32
8.219789e-32
8.2206867e-32
8.2219809e-32
8.211984e-32
8.2100182e-32
8.2096955e-32
8.2096336e-32
8.2096158e-32
8.2096134e-32
8.209643e-32
8.2098587e-32
8.2110308e-32
8.2200049e-32
8.2100182e-32
8.2080549e-32
8.2077325e-32
8.2076708e-32
8.2076531e-32
8.2076512e-32
8.2076831e-32
8.2079115e-32
8.2091296e-32
8.2196807e-32
8.2096955e-32
8.2077325e-32
8.2074103e-32
8.2073486e-32
8.207331e-32
8.2073293e-32
8.2073619e-32
8.2075926e-32
8.208817e-32
8.2196186e-32
8.2096336e-32
8.2076708e-32
8.2073486e-32
8.207287e-32
8.2072695e-32
8.2072679e-32
8.2073007e-32
8.2075318e-32
8.208757e-32
8.2196006e-32
8.2096158e-32
8.2076531e-32
8.207331e-32
8.2072695e-32
8.207252e-32
8.2072505e-32
8.2072834e-32
8.2075147e-32
8.20874e-32
8.2195974e-32
8.2096134e-32
8.2076512e-32
8.2073293e-32
8.2072679e-32
8.2072505e-32
8.207249e-32
8.207282e-32
8.2075133e-32
8.2087386e-32
8.2196205e-32
8.209643e-32
8.2076831e-32
8.2073619e-32
8.2073007e-32
8.2072834e-32
8.207282e-32
8.207315e-32
8.2075464e-32
8.2087718e-32
8.219789e-32
8.2098587e-32
8.2079115e-32
8.2075926e-32
8.2075318e-32
8.2075147e-32
8.2075133e-32
8.2075464e-32
8.2077779e-32
8.2090039e-32
8.2206867e-32
8.2110308e-32
8.2091296e-32
8.208817e-32
8.208757e-32
8.20874e-32
8.2087386e-32
8.2087718e-32
8.2090039e-32
8.2102339e-32
2.490535e-31
2.4876077e-31
2.4870317e-31
2.486937e-31
2.4869188e-31
2.4869135e-31
2.4869126e-31
2.4869192e-31
2.4869672e-31
2.4872222e-31
2.4876077e-31
2.4846973e-31
2.4841242e-31
2.48403e-31
2.4840119e-31
2.4840066e-31
2.4840059e-31
2.4840145e-31
2.4840767e-31
2.4844138e-31
2.4870317e-31
2.4841242e-31
2.4835518e-31
2.4834577e-31
2.4834396e-31
2.4834344e-31
2.4834339e-31
2.4834431e-31
2.4835091e-31
2.48386e-31
2.486937e-31
2.48403e-31
2.4834577e-31
2.4833636e-31
2.4833456e-31
2.4833404e-31
2.4833399e-31
2.4833493e-31
2.483416e-31
2.4837687e-31
2.4869188e-31
2.4840119e-31
2.4834396e-31
2.4833456e-31
2.4833275e-31
2.4833224e-31
2.4833219e-31
2.4833314e-31
2.4833982e-31
2.4837512e-31
2.4869135e-31
2.4840066e-31
2.4834344e-31
2.4833404e-31
2.4833224e-31
2.4833172e-31
2.4833168e-31
2.4833263e-31
2.4833932e-31
2.4837462e-31
2.4869126e-31
2.4840059e-31
2.4834339e-31
2.4833399e-31
2.4833219e-31
2.4833168e-31
2.4833163e-31
2.4833259e-31
2.4833928e-31
2.4837458e-31
2.4869192e-31
2.4840145e-31
2.4834431e-31
2.4833493e-31
2.4833314e-31
2.4833263e-31
2.4833259e-31
2.4833355e-31
2.4834023e-31
2.4837554e-31
2.4869672e-31
2.4840767e-31
2.4835091e-31
2.483416e-31
2.4833982e-31
2.4833932e-31
2.4833928e-31
2.4834023e-31
2.4834693e-31
2.4838225e-31
2.4872222e-31
2.4844138e-31
2.48386e-31
2.4837687e-31
2.4837512e-31
2.4837462e-31
2.4837458e-31
2.4837554e-31
2.4838225e-31
2.4841768e-31
7.6541236e-31
7.6454718e-31
7.643767e-31
7.6434864e-31
7.6434323e-31
7.6434166e-31
7.6434137e-31
7.6434328e-31
7.6435721e-31
7.6443073e-31
7.6454718e-31
7.6368696e-31
7.6351734e-31
7.634894e-31
7.6348401e-31
7.6348245e-31
7.6348224e-31
7.6348475e-31
7.6350297e-31
7.6360145e-31
7.643767e-31
7.6351734e-31
7.6334793e-31
7.6332002e-31
7.6331465e-31
7.633131e-31
7.6331293e-31
7.6331565e-31
7.6333502e-31
7.6343769e-31
7.6434864e-31
7.634894e-31
7.6332002e-31
7.6329213e-31
7.6328676e-31
7.6328522e-31
7.6328506e-31
7.6328785e-31
7.6330743e-31
7.6341067e-31
7.6434323e-31
7.6348401e-31
7.6331465e-31
7.6328676e-31
7.6328139e-31
7.6327986e-31
7.6327971e-31
7.6328251e-31
7.6330214e-31
7.6340545e-31
7.6434166e-31
7.6348245e-31
7.633131e-31
7.6328522e-31
7.6327986e-31
7.6327833e-31
7.6327819e-31
7.63281e-31
7.6330064e-31
7.6340396e-31
7.6434137e-31
7.6348224e-31
7.6331293e-31
7.6328506e-31
7.6327971e-31
7.6327819e-31
7.6327806e-31
7.6328088e-31
7.6330051e-31
7.6340384e-31
7.6434328e-31
7.6348475e-31
7.6331565e-31
7.6328785e-31
7.6328251e-31
7.63281e-31
7.6328088e-31
7.6328369e-31
7.6330333e-31
7.6340667e-31
7.6435721e-31
7.6350297e-31
7.6333502e-31
7.6330743e-31
7.6330214e-31
7.6330064e-31
7.6330051e-31
7.6330333e-31
7.6332299e-31
7.6342638e-31
7.6443073e-31
7.6360145e-31
7.6343769e-31
7.6341067e-31
7.6340545e-31
7.6340396e-31
7.6340384e-31
7.6340667e-31
7.6342638e-31
7.6353009e-31
2.3894828e-30
2.3868868e-30
2.3863746e-30
2.3862902e-30
2.3862739e-30
2.3862691e-30
2.3862682e-30
2.3862739e-30
2.3863148e-30
2.3865301e-30
2.3868868e-30
2.3843056e-30
2.383796e-30
2.3837119e-30
2.3836956e-30
2.3836909e-30
2.3836902e-30
2.3836977e-30
2.3837519e-30
2.3840443e-30
2.3863746e-30
2.383796e-30
2.383287e-30
2.383203e-30
2.3831867e-30
2.3831821e-30
2.3831815e-30
2.3831897e-30
2.3832474e-30
2.3835527e-30
2.3862902e-30
2.3837119e-30
2.383203e-30
2.383119e-30
2.3831028e-30
2.3830982e-30
2.3830977e-30
2.383106e-30
2.3831644e-30
2.3834714e-30
2.3862739e-30
2.3836956e-30
2.3831867e-30
2.3831028e-30
2.3830866e-30
2.383082e-30
2.3830815e-30
2.3830899e-30
2.3831485e-30
2.3834557e-30
2.3862691e-30
2.3836909e-30
2.3831821e-30
2.3830982e-30
2.383082e-30
2.3830774e-30
2.3830769e-30
2.3830853e-30
2.3831439e-30
2.3834512e-30
2.3862682e-30
2.3836902e-30
2.3831815e-30
2.3830977e-30
2.3830815e-30
2.3830769e-30
2.3830765e-30
2.383085e-30
2.3831435e-30
2.3834508e-30
2.3862739e-30
2.3836977e-30
2.3831897e-30
2.383106e-30
2.3830899e-30
2.3830853e-30
2.383085e-30
2.3830934e-30
2.383152e-30
2.3834593e-30
2.3863148e-30
2.3837519e-30
2.3832474e-30
2.3831644e-30
2.3831485e-30
2.3831439e-30
2.3831435e-30
2.383152e-30
2.3832106e-30
2.3835181e-30
2.3865301e-30
2.3840443e-30
2.3835527e-30
2.3834714e-30
2.3834557e-30
2.3834512e-30
2.3834508e-30
2.3834593e-30
2.3835181e-30
2.3838265e-30
7.5770464e-30
7.5691391e-30
7.567577e-30
7.567319e-30
7.5672691e-30
7.5672544e-30
7.5672516e-30
7.5672686e-30
7.567391e-30
7.5680312e-30
7.5691391e-30
7.5612765e-30
7.5597221e-30
7.5594653e-30
7.5594155e-30
7.559401e-30
7.5593989e-30
7.5594216e-30
7.5595855e-30
7.5604671e-30
7.567577e-30
7.5597221e-30
7.5581697e-30
7.5579131e-30
7.5578634e-30
7.557849e-30
7.5578474e-30
7.5578721e-30
7.5580471e-30
7.5589692e-30
7.567319e-30
7.5594653e-30
7.5579131e-30
7.5576567e-30
7.557607e-30
7.5575927e-30
7.5575912e-30
7.5576165e-30
7.5577936e-30
7.5587211e-30
7.5672691e-30
7.5594155e-30
7.5578634e-30
7.557607e-30
7.5575574e-30
7.5575431e-30
7.5575418e-30
7.5575672e-30
7.5577447e-30
7.5586729e-30
7.5672544e-30
7.559401e-30
7.557849e-30
7.5575927e-30
7.5575431e-30
7.557529e-30
7.5575277e-30
7.5575532e-30
7.5577308e-30
7.5586591e-30
7.5672516e-30
7.5593989e-30
7.5578474e-30
7.5575912e-30
7.5575418e-30
7.5575277e-30
7.5575264e-30
7.557552e-30
7.5577296e-30
7.558658e-30
7.5672686e-30
7.5594216e-30
7.5578721e-30
7.5576165e-30
7.5575672e-30
7.5575532e-30
7.557552e-30
7.5575776e-30
7.5577553e-30
7.5586837e-30
7.567391e-30
7.5595855e-30
7.5580471e-30
7.5577936e-30
7.5577447e-30
7.5577308e-30
7.5577296e-30
7.5577553e-30
7.557933e-30
7.5588619e-30
7.5680312e-30
7.5604671e-30
7.5589692e-30
7.5587211e-30
7.5586729e-30
7.5586591e-30
7.558658e-30
7.5586837e-30
7.5588619e-30
7.5597936e-30
2.4403889e-29
2.4379441e-29
2.4374605e-29
2.4373806e-29
2.437365e-29
2.4373605e-29
2.4373596e-29
2.4373647e-29
2.4374019e-29
2.4375952e-29
2.4379441e-29
2.4355131e-29
2.4350319e-29
2.4349522e-29
2.4349367e-29
2.4349322e-29
2.4349316e-29
2.4349385e-29
2.4349889e-29
2.4352589e-29
2.4374605e-29
2.4350319e-29
2.4345512e-29
2.4344717e-29
2.4344562e-29
2.4344517e-29
2.4344512e-29
2.4344588e-29
2.4345127e-29
2.4347956e-29
2.4373806e-29
2.4349522e-29
2.4344717e-29
2.4343922e-29
2.4343767e-29
2.4343723e-29
2.4343718e-29
2.4343796e-29
2.4344341e-29
2.4347188e-29
2.437365e-29
2.4349367e-29
2.4344562e-29
2.4343767e-29
2.4343613e-29
2.4343569e-29
2.4343564e-29
2.4343643e-29
2.4344189e-29
2.4347038e-29
2.4373605e-29
2.4349322e-29
2.4344517e-29
2.4343723e-29
2.4343569e-29
2.4343524e-29
2.434352e-29
2.4343599e-29
2.4344146e-29
2.4346995e-29
2.4373596e-29
2.4349316e-29
2.4344512e-29
2.4343718e-29
2.4343564e-29
2.434352e-29
2.4343516e-29
2.4343595e-29
2.4344142e-29
2.4346992e-29
2.4373647e-29
2.4349385e-29
2.4344588e-29
2.4343796e-29
2.4343643e-29
2.4343599e-29
2.4343595e-29
2.4343675e-29
2.4344222e-29
2.4347071e-29
2.4374019e-29
2.4349889e-29
2.4345127e-29
2.4344341e-29
2.4344189e-29
2.4344146e-29
2.4344142e-29
2.4344222e-29
2.4344769e-29
2.434762e-29
2.4375952e-29
2.4352589e-29
2.4347956e-29
2.4347188e-29
2.4347038e-29
2.4346995e-29
2.4346992e-29
2.4347071e-29
2.434762e-29
2.4350479e-29
7.9827003e-29
7.9750284e-29
7.973509e-29
7.9732573e-29
7.9732083e-29
7.9731939e-29
7.973191e-29
7.973207e-29
7.9733214e-29
7.9739141e-29
7.9750284e-29
7.9673992e-29
7.9658872e-29
7.9656366e-29
7.9655877e-29
7.9655734e-29
7.9655714e-29
7.9655932e-29
7.9657502e-29
7.9665906e-29
7.973509e-29
7.9658872e-29
7.964377e-29
7.9641267e-29
7.9640779e-29
7.9640638e-29
7.9640621e-29
7.964086e-29
7.9642544e-29
7.9651363e-29
7.9732573e-29
7.9656366e-29
7.9641267e-29
7.9638765e-29
7.9638277e-29
7.9638137e-29
7.9638122e-29
7.9638367e-29
7.9640072e-29
7.9648947e-29
7.9732083e-29
7.9655877e-29
7.9640779e-29
7.9638277e-29
7.9637791e-29
7.963765e-29
7.9637637e-29
7.9637884e-29
7.9639592e-29
7.9648475e-29
7.9731939e-29
7.9655734e-29
7.9640638e-29
7.9638137e-29
7.963765e-29
7.9637511e-29
7.9637498e-29
7.9637746e-29
7.9639455e-29
7.9648339e-29
7.973191e-29
7.9655714e-29
7.9640621e-29
7.9638122e-29
7.9637637e-29
7.9637498e-29
7.9637485e-29
7.9637733e-29
7.9639444e-29
7.9648328e-29
7.973207e-29
7.9655932e-29
7.964086e-29
7.9638367e-29
7.9637884e-29
7.9637746e-29
7.9637733e-29
7.9637982e-29
7.9639692e-29
7.9648577e-29
7.9733214e-29
7.9657502e-29
7.9642544e-29
7.9640072e-29
7.9639592e-29
7.9639455e-29
7.9639444e-29
7.9639692e-29
7.9641404e-29
7.9650293e-29
7.9739141e-29
7.9665906e-29
7.9651363e-29
7.9648947e-29
7.9648475e-29
7.9648339e-29
7.9648328e-29
7.9648577e-29