/*--------------------------------*- C++ -*----------------------------------*\
| =========                 |                                                 |
| \\      /  F ield         | OpenFOAM: The Open Source CFD Toolbox           |
|  \\    /   O peration     | Version:  dev                                   |
|   \\  /    A nd           | Web:      www.OpenFOAM.org                      |
|    \\/     M anipulation  |                                                 |
\*---------------------------------------------------------------------------*/
FoamFile
{
    version     2.0;
    format      ascii;
    class       volScalarField;
    location    "38.995";
    object      A_0;
}
// * * * * * * * * * * * * * * * * * * * * * * * * * * * * * * * * * * * * * //

dimensions      [0 0 0 0 1 0 0];

internalField   nonuniform List<scalar> 
10000
(
4.3391038e-38
4.3303268e-38
4.328713e-38
4.3284572e-38
4.3284101e-38
4.3283969e-38
4.3283953e-38
4.3284197e-38
4.3286001e-38
4.3295107e-38
4.3303268e-38
4.3216076e-38
4.3200034e-38
4.319749e-38
4.3197022e-38
4.3196891e-38
4.319688e-38
4.3197161e-38
4.3199236e-38
4.3209903e-38
4.328713e-38
4.3200034e-38
4.3184014e-38
4.3181474e-38
4.3181006e-38
4.3180876e-38
4.3180868e-38
4.3181162e-38
4.318331e-38
4.319424e-38
4.3284572e-38
4.319749e-38
4.3181474e-38
4.3178934e-38
4.3178467e-38
4.3178338e-38
4.317833e-38
4.3178629e-38
4.318079e-38
4.3191755e-38
4.3284101e-38
4.3197022e-38
4.3181006e-38
4.3178467e-38
4.3178e-38
4.3177871e-38
4.3177865e-38
4.3178164e-38
4.3180328e-38
4.3191298e-38
4.3283969e-38
4.3196891e-38
4.3180876e-38
4.3178338e-38
4.3177871e-38
4.3177743e-38
4.3177737e-38
4.3178037e-38
4.3180202e-38
4.3191172e-38
4.3283953e-38
4.319688e-38
4.3180868e-38
4.317833e-38
4.3177865e-38
4.3177737e-38
4.3177731e-38
4.3178032e-38
4.3180197e-38
4.3191167e-38
4.3284197e-38
4.3197161e-38
4.3181162e-38
4.3178629e-38
4.3178164e-38
4.3178037e-38
4.3178032e-38
4.3178332e-38
4.3180498e-38
4.319147e-38
4.3286001e-38
4.3199236e-38
4.318331e-38
4.318079e-38
4.3180328e-38
4.3180202e-38
4.3180197e-38
4.3180498e-38
4.3182665e-38
4.3193644e-38
4.3295107e-38
4.3209903e-38
4.319424e-38
4.3191755e-38
4.3191298e-38
4.3191172e-38
4.3191167e-38
4.319147e-38
4.3193644e-38
4.3204663e-38
1.672963e-37
1.6697354e-37
1.6691246e-37
1.6690275e-37
1.6690096e-37
1.6690045e-37
1.6690039e-37
1.6690131e-37
1.6690816e-37
1.6694483e-37
1.6697354e-37
1.6665287e-37
1.6659215e-37
1.6658249e-37
1.6658071e-37
1.6658021e-37
1.6658016e-37
1.6658122e-37
1.6658912e-37
1.6663183e-37
1.6691246e-37
1.6659215e-37
1.6653152e-37
1.6652187e-37
1.6652009e-37
1.6651959e-37
1.6651956e-37
1.6652067e-37
1.6652884e-37
1.6657257e-37
1.6690275e-37
1.6658249e-37
1.6652187e-37
1.6651222e-37
1.6651044e-37
1.6650995e-37
1.6650992e-37
1.6651105e-37
1.6651927e-37
1.6656313e-37
1.6690096e-37
1.6658071e-37
1.6652009e-37
1.6651044e-37
1.6650866e-37
1.6650817e-37
1.6650815e-37
1.6650928e-37
1.6651751e-37
1.6656139e-37
1.6690045e-37
1.6658021e-37
1.6651959e-37
1.6650995e-37
1.6650817e-37
1.6650768e-37
1.6650766e-37
1.665088e-37
1.6651703e-37
1.6656091e-37
1.6690039e-37
1.6658016e-37
1.6651956e-37
1.6650992e-37
1.6650815e-37
1.6650766e-37
1.6650764e-37
1.6650877e-37
1.6651701e-37
1.665609e-37
1.6690131e-37
1.6658122e-37
1.6652067e-37
1.6651105e-37
1.6650928e-37
1.665088e-37
1.6650877e-37
1.6650991e-37
1.6651815e-37
1.6656204e-37
1.6690816e-37
1.6658912e-37
1.6652884e-37
1.6651927e-37
1.6651751e-37
1.6651703e-37
1.6651701e-37
1.6651815e-37
1.6652639e-37
1.6657031e-37
1.6694483e-37
1.6663183e-37
1.6657257e-37
1.6656313e-37
1.6656139e-37
1.6656091e-37
1.665609e-37
1.6656204e-37
1.6657031e-37
1.6661439e-37
4.3959788e-37
4.387797e-37
4.3862351e-37
4.385986e-37
4.3859399e-37
4.3859269e-37
4.3859252e-37
4.3859483e-37
4.3861222e-37
4.3870899e-37
4.387797e-37
4.3796676e-37
4.3781148e-37
4.3778669e-37
4.3778211e-37
4.3778082e-37
4.377807e-37
4.3778339e-37
4.3780351e-37
4.3791613e-37
4.3862351e-37
4.3781148e-37
4.3765642e-37
4.3763166e-37
4.3762708e-37
4.3762581e-37
4.3762571e-37
4.3762854e-37
4.3764939e-37
4.3776465e-37
4.385986e-37
4.3778669e-37
4.3763166e-37
4.3760692e-37
4.3760234e-37
4.3760107e-37
4.3760099e-37
4.3760385e-37
4.3762484e-37
4.3774046e-37
4.3859399e-37
4.3778211e-37
4.3762708e-37
4.3760234e-37
4.3759777e-37
4.375965e-37
4.3759643e-37
4.3759931e-37
4.3762031e-37
4.3773598e-37
4.3859269e-37
4.3778082e-37
4.3762581e-37
4.3760107e-37
4.375965e-37
4.3759524e-37
4.3759517e-37
4.3759806e-37
4.3761907e-37
4.3773475e-37
4.3859252e-37
4.377807e-37
4.3762571e-37
4.3760099e-37
4.3759643e-37
4.3759517e-37
4.3759511e-37
4.3759799e-37
4.3761901e-37
4.3773469e-37
4.3859483e-37
4.3778339e-37
4.3762854e-37
4.3760385e-37
4.3759931e-37
4.3759806e-37
4.3759799e-37
4.3760088e-37
4.3762191e-37
4.3773759e-37
4.3861222e-37
4.3780351e-37
4.3764939e-37
4.3762484e-37
4.3762031e-37
4.3761907e-37
4.3761901e-37
4.3762191e-37
4.3764294e-37
4.377587e-37
4.3870899e-37
4.3791613e-37
4.3776465e-37
4.3774046e-37
4.3773598e-37
4.3773475e-37
4.3773469e-37
4.3773759e-37
4.377587e-37
4.378749e-37
1.1150868e-36
1.1130803e-36
1.112696e-36
1.1126345e-36
1.1126231e-36
1.1126199e-36
1.1126194e-36
1.112625e-36
1.1126671e-36
1.1129027e-36
1.1130803e-36
1.1110865e-36
1.1107044e-36
1.1106432e-36
1.1106319e-36
1.1106287e-36
1.1106284e-36
1.1106349e-36
1.1106839e-36
1.1109595e-36
1.112696e-36
1.1107044e-36
1.1103228e-36
1.1102617e-36
1.1102504e-36
1.1102472e-36
1.110247e-36
1.1102539e-36
1.1103046e-36
1.110587e-36
1.1126345e-36
1.1106432e-36
1.1102617e-36
1.1102007e-36
1.1101894e-36
1.1101862e-36
1.110186e-36
1.110193e-36
1.1102441e-36
1.1105273e-36
1.1126231e-36
1.1106319e-36
1.1102504e-36
1.1101894e-36
1.110178e-36
1.1101749e-36
1.1101747e-36
1.1101817e-36
1.1102329e-36
1.1105163e-36
1.1126199e-36
1.1106287e-36
1.1102472e-36
1.1101862e-36
1.1101749e-36
1.1101718e-36
1.1101716e-36
1.1101786e-36
1.1102298e-36
1.1105132e-36
1.1126194e-36
1.1106284e-36
1.110247e-36
1.110186e-36
1.1101747e-36
1.1101716e-36
1.1101714e-36
1.1101785e-36
1.1102297e-36
1.110513e-36
1.112625e-36
1.1106349e-36
1.1102539e-36
1.110193e-36
1.1101817e-36
1.1101786e-36
1.1101785e-36
1.1101855e-36
1.1102367e-36
1.1105201e-36
1.1126671e-36
1.1106839e-36
1.1103046e-36
1.1102441e-36
1.1102329e-36
1.1102298e-36
1.1102297e-36
1.1102367e-36
1.110288e-36
1.1105715e-36
1.1129027e-36
1.1109595e-36
1.110587e-36
1.1105273e-36
1.1105163e-36
1.1105132e-36
1.110513e-36
1.1105201e-36
1.1105715e-36
1.1108562e-36
2.8493131e-36
2.844355e-36
2.8434033e-36
2.8432508e-36
2.8432225e-36
2.8432144e-36
2.8432133e-36
2.8432268e-36
2.8433287e-36
2.8438986e-36
2.844355e-36
2.839428e-36
2.8384818e-36
2.8383301e-36
2.8383019e-36
2.8382939e-36
2.8382931e-36
2.838309e-36
2.8384284e-36
2.8391002e-36
2.8434033e-36
2.8384818e-36
2.8375369e-36
2.8373854e-36
2.8373572e-36
2.8373493e-36
2.8373486e-36
2.8373655e-36
2.8374895e-36
2.8381783e-36
2.8432508e-36
2.8383301e-36
2.8373854e-36
2.8372339e-36
2.8372058e-36
2.8371979e-36
2.8371973e-36
2.8372144e-36
2.8373393e-36
2.8380304e-36
2.8432225e-36
2.8383019e-36
2.8373572e-36
2.8372058e-36
2.8371776e-36
2.8371697e-36
2.8371692e-36
2.8371864e-36
2.8373115e-36
2.8380029e-36
2.8432144e-36
2.8382939e-36
2.8373493e-36
2.8371979e-36
2.8371697e-36
2.8371619e-36
2.8371614e-36
2.8371786e-36
2.8373038e-36
2.8379952e-36
2.8432133e-36
2.8382931e-36
2.8373486e-36
2.8371973e-36
2.8371692e-36
2.8371614e-36
2.837161e-36
2.8371782e-36
2.8373034e-36
2.8379948e-36
2.8432268e-36
2.838309e-36
2.8373655e-36
2.8372144e-36
2.8371864e-36
2.8371786e-36
2.8371782e-36
2.8371954e-36
2.8373206e-36
2.8380121e-36
2.8433287e-36
2.8384284e-36
2.8374895e-36
2.8373393e-36
2.8373115e-36
2.8373038e-36
2.8373034e-36
2.8373206e-36
2.8374459e-36
2.8381378e-36
2.8438986e-36
2.8391002e-36
2.8381783e-36
2.8380304e-36
2.8380029e-36
2.8379952e-36
2.8379948e-36
2.8380121e-36
2.8381378e-36
2.8388324e-36
7.383575e-36
7.3711537e-36
7.3687656e-36
7.3683821e-36
7.3683105e-36
7.3682902e-36
7.3682872e-36
7.3683205e-36
7.3685703e-36
7.3699632e-36
7.3711537e-36
7.35881e-36
7.3564353e-36
7.3560538e-36
7.3559825e-36
7.3559623e-36
7.3559602e-36
7.3559997e-36
7.3562947e-36
7.3579504e-36
7.3687656e-36
7.3564353e-36
7.3540638e-36
7.3536828e-36
7.3536116e-36
7.3535916e-36
7.3535898e-36
7.3536316e-36
7.3539387e-36
7.3556382e-36
7.3683821e-36
7.3560538e-36
7.3536828e-36
7.3533019e-36
7.3532308e-36
7.3532109e-36
7.3532094e-36
7.3532518e-36
7.353561e-36
7.3552665e-36
7.3683105e-36
7.3559825e-36
7.3536116e-36
7.3532308e-36
7.3531597e-36
7.3531399e-36
7.3531385e-36
7.3531811e-36
7.3534908e-36
7.355197e-36
7.3682902e-36
7.3559623e-36
7.3535916e-36
7.3532109e-36
7.3531399e-36
7.3531201e-36
7.3531188e-36
7.3531615e-36
7.3534713e-36
7.3551776e-36
7.3682872e-36
7.3559602e-36
7.3535898e-36
7.3532094e-36
7.3531385e-36
7.3531188e-36
7.3531175e-36
7.3531602e-36
7.3534701e-36
7.3551765e-36
7.3683205e-36
7.3559997e-36
7.3536316e-36
7.3532518e-36
7.3531811e-36
7.3531615e-36
7.3531602e-36
7.353203e-36
7.353513e-36
7.3552195e-36
7.3685703e-36
7.3562947e-36
7.3539387e-36
7.353561e-36
7.3534908e-36
7.3534713e-36
7.3534701e-36
7.353513e-36
7.3538232e-36
7.3555306e-36
7.3699632e-36
7.3579504e-36
7.3556382e-36
7.3552665e-36
7.355197e-36
7.3551776e-36
7.3551765e-36
7.3552195e-36
7.3555306e-36
7.3572445e-36
1.9425595e-35
1.9394014e-35
1.9387932e-35
1.9386954e-35
1.9386771e-35
1.9386718e-35
1.938671e-35
1.9386793e-35
1.9387415e-35
1.9390867e-35
1.9394014e-35
1.9362629e-35
1.9356581e-35
1.9355607e-35
1.9355425e-35
1.9355373e-35
1.9355367e-35
1.9355466e-35
1.9356206e-35
1.9360346e-35
1.9387932e-35
1.9356581e-35
1.9350541e-35
1.9349569e-35
1.9349386e-35
1.9349335e-35
1.934933e-35
1.9349435e-35
1.9350207e-35
1.9354461e-35
1.9386954e-35
1.9355607e-35
1.9349569e-35
1.9348597e-35
1.9348415e-35
1.9348363e-35
1.9348359e-35
1.9348466e-35
1.9349243e-35
1.9353513e-35
1.9386771e-35
1.9355425e-35
1.9349386e-35
1.9348415e-35
1.9348233e-35
1.9348182e-35
1.9348178e-35
1.9348285e-35
1.9349063e-35
1.9353336e-35
1.9386718e-35
1.9355373e-35
1.9349335e-35
1.9348363e-35
1.9348182e-35
1.9348131e-35
1.9348127e-35
1.9348235e-35
1.9349013e-35
1.9353286e-35
1.938671e-35
1.9355367e-35
1.934933e-35
1.9348359e-35
1.9348178e-35
1.9348127e-35
1.9348124e-35
1.9348231e-35
1.934901e-35
1.9353283e-35
1.9386793e-35
1.9355466e-35
1.9349435e-35
1.9348466e-35
1.9348285e-35
1.9348235e-35
1.9348231e-35
1.9348339e-35
1.9349118e-35
1.9353391e-35
1.9387415e-35
1.9356206e-35
1.9350207e-35
1.9349243e-35
1.9349063e-35
1.9349013e-35
1.934901e-35
1.9349118e-35
1.9349897e-35
1.9354173e-35
1.9390867e-35
1.9360346e-35
1.9354461e-35
1.9353513e-35
1.9353336e-35
1.9353286e-35
1.9353283e-35
1.9353391e-35
1.9354173e-35
1.9358464e-35
5.189981e-35
5.1818305e-35
5.1802583e-35
5.1800049e-35
5.1799573e-35
5.1799437e-35
5.1799415e-35
5.1799625e-35
5.1801196e-35
5.180988e-35
5.1818305e-35
5.1737301e-35
5.1721666e-35
5.1719145e-35
5.171867e-35
5.1718535e-35
5.171852e-35
5.1718773e-35
5.1720656e-35
5.1731168e-35
5.1802583e-35
5.1721666e-35
5.1706051e-35
5.1703534e-35
5.170306e-35
5.1702926e-35
5.1702913e-35
5.1703182e-35
5.1705149e-35
5.1715965e-35
5.1800049e-35
5.1719145e-35
5.1703534e-35
5.1701016e-35
5.1700543e-35
5.170041e-35
5.1700399e-35
5.1700672e-35
5.1702654e-35
5.1713511e-35
5.1799573e-35
5.171867e-35
5.170306e-35
5.1700543e-35
5.170007e-35
5.1699937e-35
5.1699927e-35
5.1700202e-35
5.1702187e-35
5.1713049e-35
5.1799437e-35
5.1718535e-35
5.1702926e-35
5.170041e-35
5.1699937e-35
5.1699805e-35
5.1699795e-35
5.170007e-35
5.1702056e-35
5.171292e-35
5.1799415e-35
5.171852e-35
5.1702913e-35
5.1700399e-35
5.1699927e-35
5.1699795e-35
5.1699786e-35
5.1700061e-35
5.1702048e-35
5.1712911e-35
5.1799625e-35
5.1718773e-35
5.1703182e-35
5.1700672e-35
5.1700202e-35
5.170007e-35
5.1700061e-35
5.1700337e-35
5.1702324e-35
5.1713188e-35
5.1801196e-35
5.1720656e-35
5.1705149e-35
5.1702654e-35
5.1702187e-35
5.1702056e-35
5.1702048e-35
5.1702324e-35
5.1704312e-35
5.1715183e-35
5.180988e-35
5.1731168e-35
5.1715965e-35
5.1713511e-35
5.1713049e-35
5.171292e-35
5.1712911e-35
5.1713188e-35
5.1715183e-35
5.1726093e-35
1.4082589e-34
1.4061235e-34
1.405711e-34
1.4056444e-34
1.4056318e-34
1.4056282e-34
1.4056276e-34
1.405633e-34
1.4056733e-34
1.4058951e-34
1.4061235e-34
1.4040012e-34
1.4035909e-34
1.4035246e-34
1.4035121e-34
1.4035085e-34
1.4035081e-34
1.4035146e-34
1.4035633e-34
1.4038344e-34
1.405711e-34
1.4035909e-34
1.4031811e-34
1.4031149e-34
1.4031024e-34
1.4030989e-34
1.4030985e-34
1.4031055e-34
1.4031564e-34
1.4034357e-34
1.4056444e-34
1.4035246e-34
1.4031149e-34
1.4030487e-34
1.4030362e-34
1.4030327e-34
1.4030324e-34
1.4030395e-34
1.4030909e-34
1.4033712e-34
1.4056318e-34
1.4035121e-34
1.4031024e-34
1.4030362e-34
1.4030238e-34
1.4030203e-34
1.40302e-34
1.4030271e-34
1.4030785e-34
1.403359e-34
1.4056282e-34
1.4035085e-34
1.4030989e-34
1.4030327e-34
1.4030203e-34
1.4030167e-34
1.4030165e-34
1.4030236e-34
1.4030751e-34
1.4033556e-34
1.4056276e-34
1.4035081e-34
1.4030985e-34
1.4030324e-34
1.40302e-34
1.4030165e-34
1.4030162e-34
1.4030234e-34
1.4030748e-34
1.4033554e-34
1.405633e-34
1.4035146e-34
1.4031055e-34
1.4030395e-34
1.4030271e-34
1.4030236e-34
1.4030234e-34
1.4030305e-34
1.403082e-34
1.4033626e-34
1.4056733e-34
1.4035633e-34
1.4031564e-34
1.4030909e-34
1.4030785e-34
1.4030751e-34
1.4030748e-34
1.403082e-34
1.4031335e-34
1.4034142e-34
1.4058951e-34
1.4038344e-34
1.4034357e-34
1.4033712e-34
1.403359e-34
1.4033556e-34
1.4033554e-34
1.4033626e-34
1.4034142e-34
1.4036959e-34
3.881091e-34
3.8754113e-34
3.8743122e-34
3.8741344e-34
3.8741008e-34
3.8740911e-34
3.8740895e-34
3.8741036e-34
3.8742084e-34
3.8747834e-34
3.8754113e-34
3.8697659e-34
3.8686728e-34
3.8684959e-34
3.8684624e-34
3.8684528e-34
3.8684516e-34
3.8684688e-34
3.8685967e-34
3.8693065e-34
3.8743122e-34
3.8686728e-34
3.8675811e-34
3.8674044e-34
3.867371e-34
3.8673614e-34
3.8673605e-34
3.8673789e-34
3.8675129e-34
3.8682451e-34
3.8741344e-34
3.8684959e-34
3.8674044e-34
3.8672278e-34
3.8671944e-34
3.8671849e-34
3.867184e-34
3.8672027e-34
3.8673379e-34
3.8680731e-34
3.8741008e-34
3.8684624e-34
3.867371e-34
3.8671944e-34
3.867161e-34
3.8671515e-34
3.8671507e-34
3.8671696e-34
3.8673049e-34
3.8680406e-34
3.8740911e-34
3.8684528e-34
3.8673614e-34
3.8671849e-34
3.8671515e-34
3.8671421e-34
3.8671414e-34
3.8671602e-34
3.8672957e-34
3.8680314e-34
3.8740895e-34
3.8684516e-34
3.8673605e-34
3.867184e-34
3.8671507e-34
3.8671414e-34
3.8671406e-34
3.8671595e-34
3.867295e-34
3.8680307e-34
3.8741036e-34
3.8684688e-34
3.8673789e-34
3.8672027e-34
3.8671696e-34
3.8671602e-34
3.8671595e-34
3.8671784e-34
3.8673139e-34
3.8680497e-34
3.8742084e-34
3.8685967e-34
3.8675129e-34
3.8673379e-34
3.8673049e-34
3.8672957e-34
3.867295e-34
3.8673139e-34
3.8674495e-34
3.8681857e-34
3.8747834e-34
3.8693065e-34
3.8682451e-34
3.8680731e-34
3.8680406e-34
3.8680314e-34
3.8680307e-34
3.8680497e-34
3.8681857e-34
3.8689245e-34
1.0864348e-33
1.084901e-33
1.0846038e-33
1.0845556e-33
1.0845465e-33
1.0845438e-33
1.0845434e-33
1.0845471e-33
1.0845748e-33
1.0847262e-33
1.084901e-33
1.0833765e-33
1.0830808e-33
1.0830329e-33
1.0830238e-33
1.0830212e-33
1.0830208e-33
1.0830254e-33
1.0830595e-33
1.0832483e-33
1.0846038e-33
1.0830808e-33
1.0827856e-33
1.0827377e-33
1.0827286e-33
1.082726e-33
1.0827257e-33
1.0827306e-33
1.0827665e-33
1.0829615e-33
1.0845556e-33
1.0830329e-33
1.0827377e-33
1.0826898e-33
1.0826807e-33
1.0826781e-33
1.0826779e-33
1.0826829e-33
1.0827191e-33
1.0829149e-33
1.0845465e-33
1.0830238e-33
1.0827286e-33
1.0826807e-33
1.0826717e-33
1.0826691e-33
1.0826689e-33
1.0826739e-33
1.0827101e-33
1.0829061e-33
1.0845438e-33
1.0830212e-33
1.082726e-33
1.0826781e-33
1.0826691e-33
1.0826665e-33
1.0826663e-33
1.0826714e-33
1.0827076e-33
1.0829036e-33
1.0845434e-33
1.0830208e-33
1.0827257e-33
1.0826779e-33
1.0826689e-33
1.0826663e-33
1.0826661e-33
1.0826712e-33
1.0827074e-33
1.0829034e-33
1.0845471e-33
1.0830254e-33
1.0827306e-33
1.0826829e-33
1.0826739e-33
1.0826714e-33
1.0826712e-33
1.0826762e-33
1.0827124e-33
1.0829085e-33
1.0845748e-33
1.0830595e-33
1.0827665e-33
1.0827191e-33
1.0827101e-33
1.0827076e-33
1.0827074e-33
1.0827124e-33
1.0827487e-33
1.0829448e-33
1.0847262e-33
1.0832483e-33
1.0829615e-33
1.0829149e-33
1.0829061e-33
1.0829036e-33
1.0829034e-33
1.0829085e-33
1.0829448e-33
1.0831416e-33
3.0892386e-33
3.0850335e-33
3.0842173e-33
3.0840849e-33
3.0840596e-33
3.0840523e-33
3.0840511e-33
3.0840611e-33
3.0841354e-33
3.08454e-33
3.0850335e-33
3.0808535e-33
3.0800416e-33
3.0799098e-33
3.0798846e-33
3.0798774e-33
3.0798764e-33
3.0798889e-33
3.0799814e-33
3.0804915e-33
3.0842173e-33
3.0800416e-33
3.0792308e-33
3.0790991e-33
3.079074e-33
3.0790668e-33
3.0790661e-33
3.0790795e-33
3.0791767e-33
3.0797044e-33
3.0840849e-33
3.0799098e-33
3.0790991e-33
3.0789675e-33
3.0789424e-33
3.0789352e-33
3.0789346e-33
3.0789482e-33
3.0790463e-33
3.0795764e-33
3.0840596e-33
3.0798846e-33
3.079074e-33
3.0789424e-33
3.0789174e-33
3.0789102e-33
3.0789096e-33
3.0789233e-33
3.0790216e-33
3.079552e-33
3.0840523e-33
3.0798774e-33
3.0790668e-33
3.0789352e-33
3.0789102e-33
3.0789031e-33
3.0789025e-33
3.0789163e-33
3.0790146e-33
3.079545e-33
3.0840511e-33
3.0798764e-33
3.0790661e-33
3.0789346e-33
3.0789096e-33
3.0789025e-33
3.0789019e-33
3.0789157e-33
3.0790141e-33
3.0795445e-33
3.0840611e-33
3.0798889e-33
3.0790795e-33
3.0789482e-33
3.0789233e-33
3.0789163e-33
3.0789157e-33
3.0789295e-33
3.0790279e-33
3.0795584e-33
3.0841354e-33
3.0799814e-33
3.0791767e-33
3.0790463e-33
3.0790216e-33
3.0790146e-33
3.0790141e-33
3.0790279e-33
3.0791263e-33
3.0796571e-33
3.08454e-33
3.0804915e-33
3.0797044e-33
3.0795764e-33
3.079552e-33
3.079545e-33
3.0795445e-33
3.0795584e-33
3.0796571e-33
3.0801897e-33
8.9230238e-33
8.9113181e-33
8.9090428e-33
8.9086728e-33
8.9086022e-33
8.9085816e-33
8.908578e-33
8.9086054e-33
8.908808e-33
8.909906e-33
8.9113181e-33
8.8996817e-33
8.8974183e-33
8.89705e-33
8.8969796e-33
8.8969593e-33
8.8969566e-33
8.8969911e-33
8.8972454e-33
8.8986456e-33
8.9090428e-33
8.8974183e-33
8.8951578e-33
8.89479e-33
8.8947197e-33
8.8946996e-33
8.8946973e-33
8.8947344e-33
8.8950025e-33
8.896453e-33
8.9086728e-33
8.89705e-33
8.89479e-33
8.8944224e-33
8.8943521e-33
8.894332e-33
8.8943301e-33
8.8943678e-33
8.8946384e-33
8.8960958e-33
8.9086022e-33
8.8969796e-33
8.8947197e-33
8.8943521e-33
8.894282e-33
8.894262e-33
8.8942601e-33
8.8942981e-33
8.8945692e-33
8.8960274e-33
8.9085816e-33
8.8969593e-33
8.8946996e-33
8.894332e-33
8.894262e-33
8.894242e-33
8.8942402e-33
8.8942783e-33
8.8945496e-33
8.8960079e-33
8.908578e-33
8.8969566e-33
8.8946973e-33
8.8943301e-33
8.8942601e-33
8.8942402e-33
8.8942385e-33
8.8942767e-33
8.894548e-33
8.8960064e-33
8.9086054e-33
8.8969911e-33
8.8947344e-33
8.8943678e-33
8.8942981e-33
8.8942783e-33
8.8942767e-33
8.8943148e-33
8.8945862e-33
8.8960447e-33
8.908808e-33
8.8972454e-33
8.8950025e-33
8.8946384e-33
8.8945692e-33
8.8945496e-33
8.894548e-33
8.8945862e-33
8.8948578e-33
8.8963171e-33
8.909906e-33
8.8986456e-33
8.896453e-33
8.8960958e-33
8.8960274e-33
8.8960079e-33
8.8960064e-33
8.8960447e-33
8.8963171e-33
8.8977812e-33
2.6181557e-32
2.6148473e-32
2.6142033e-32
2.6140984e-32
2.6140783e-32
2.6140724e-32
2.6140713e-32
2.6140789e-32
2.614135e-32
2.6144376e-32
2.6148473e-32
2.6115583e-32
2.6109176e-32
2.6108132e-32
2.6107932e-32
2.6107874e-32
2.6107866e-32
2.6107962e-32
2.6108674e-32
2.6112578e-32
2.6142033e-32
2.6109176e-32
2.6102778e-32
2.6101735e-32
2.6101535e-32
2.6101477e-32
2.6101471e-32
2.6101575e-32
2.6102326e-32
2.6106377e-32
2.6140984e-32
2.6108132e-32
2.6101735e-32
2.6100692e-32
2.6100493e-32
2.6100435e-32
2.610043e-32
2.6100536e-32
2.6101294e-32
2.6105365e-32
2.6140783e-32
2.6107932e-32
2.6101535e-32
2.6100493e-32
2.6100293e-32
2.6100236e-32
2.6100231e-32
2.6100337e-32
2.6101097e-32
2.610517e-32
2.6140724e-32
2.6107874e-32
2.6101477e-32
2.6100435e-32
2.6100236e-32
2.6100179e-32
2.6100174e-32
2.6100281e-32
2.6101041e-32
2.6105115e-32
2.6140713e-32
2.6107866e-32
2.6101471e-32
2.610043e-32
2.6100231e-32
2.6100174e-32
2.6100169e-32
2.6100276e-32
2.6101037e-32
2.610511e-32
2.6140789e-32
2.6107962e-32
2.6101575e-32
2.6100536e-32
2.6100337e-32
2.6100281e-32
2.6100276e-32
2.6100383e-32
2.6101144e-32
2.6105218e-32
2.614135e-32
2.6108674e-32
2.6102326e-32
2.6101294e-32
2.6101097e-32
2.6101041e-32
2.6101037e-32
2.6101144e-32
2.6101905e-32
2.6105981e-32
2.6144376e-32
2.6112578e-32
2.6106377e-32
2.6105365e-32
2.610517e-32
2.6105115e-32
2.610511e-32
2.6105218e-32
2.6105981e-32
2.6110071e-32
7.8038092e-32
7.7943153e-32
7.7924647e-32
7.7921627e-32
7.7921047e-32
7.7920878e-32
7.7920846e-32
7.792106e-32
7.7922637e-32
7.7931105e-32
7.7943153e-32
7.7848767e-32
7.7830357e-32
7.7827351e-32
7.7826772e-32
7.7826604e-32
7.7826581e-32
7.7826856e-32
7.7828876e-32
7.7839937e-32
7.7924647e-32
7.7830357e-32
7.7811969e-32
7.7808967e-32
7.7808389e-32
7.7808223e-32
7.7808203e-32
7.78085e-32
7.7810638e-32
7.7822131e-32
7.7921627e-32
7.7827351e-32
7.7808967e-32
7.7805965e-32
7.7805389e-32
7.7805223e-32
7.7805206e-32
7.7805508e-32
7.7807668e-32
7.7819219e-32
7.7921047e-32
7.7826772e-32
7.7808389e-32
7.7805389e-32
7.7804813e-32
7.7804647e-32
7.7804631e-32
7.7804936e-32
7.78071e-32
7.7818659e-32
7.7920878e-32
7.7826604e-32
7.7808223e-32
7.7805223e-32
7.7804647e-32
7.7804483e-32
7.7804468e-32
7.7804773e-32
7.7806938e-32
7.7818498e-32
7.7920846e-32
7.7826581e-32
7.7808203e-32
7.7805206e-32
7.7804631e-32
7.7804468e-32
7.7804453e-32
7.7804759e-32
7.7806924e-32
7.7818485e-32
7.792106e-32
7.7826856e-32
7.78085e-32
7.7805508e-32
7.7804936e-32
7.7804773e-32
7.7804759e-32
7.7805065e-32
7.7807231e-32
7.7818792e-32
7.7922637e-32
7.7828876e-32
7.7810638e-32
7.7807668e-32
7.78071e-32
7.7806938e-32
7.7806924e-32
7.7807231e-32
7.7809398e-32
7.7820965e-32
7.7931105e-32
7.7839937e-32
7.7822131e-32
7.7819219e-32
7.7818659e-32
7.7818498e-32
7.7818485e-32
7.7818792e-32
7.7820965e-32
7.783257e-32
2.3628992e-31
2.3601332e-31
2.3595933e-31
2.359505e-31
2.359488e-31
2.359483e-31
2.3594821e-31
2.3594882e-31
2.3595332e-31
2.3597739e-31
2.3601332e-31
2.3573831e-31
2.356846e-31
2.3567581e-31
2.3567412e-31
2.3567362e-31
2.3567355e-31
2.3567435e-31
2.3568018e-31
2.3571201e-31
2.3595933e-31
2.356846e-31
2.3563095e-31
2.3562217e-31
2.3562048e-31
2.3561999e-31
2.3561993e-31
2.3562079e-31
2.3562698e-31
2.3566011e-31
2.359505e-31
2.3567581e-31
2.3562217e-31
2.356134e-31
2.3561171e-31
2.3561122e-31
2.3561117e-31
2.3561205e-31
2.356183e-31
2.356516e-31
2.359488e-31
2.3567412e-31
2.3562048e-31
2.3561171e-31
2.3561002e-31
2.3560954e-31
2.3560949e-31
2.3561037e-31
2.3561663e-31
2.3564996e-31
2.359483e-31
2.3567362e-31
2.3561999e-31
2.3561122e-31
2.3560954e-31
2.3560905e-31
2.3560901e-31
2.3560989e-31
2.3561616e-31
2.3564949e-31
2.3594821e-31
2.3567355e-31
2.3561993e-31
2.3561117e-31
2.3560949e-31
2.3560901e-31
2.3560896e-31
2.3560985e-31
2.3561612e-31
2.3564945e-31
2.3594882e-31
2.3567435e-31
2.3562079e-31
2.3561205e-31
2.3561037e-31
2.3560989e-31
2.3560985e-31
2.3561074e-31
2.3561701e-31
2.3565034e-31
2.3595332e-31
2.3568018e-31
2.3562698e-31
2.356183e-31
2.3561663e-31
2.3561616e-31
2.3561612e-31
2.3561701e-31
2.3562328e-31
2.3565663e-31
2.3597739e-31
2.3571201e-31
2.3566011e-31
2.356516e-31
2.3564996e-31
2.3564949e-31
2.3564945e-31
2.3565034e-31
2.3565663e-31
2.3569008e-31
7.2678368e-31
7.2596549e-31
7.2580556e-31
7.2577939e-31
7.2577432e-31
7.2577284e-31
7.2577255e-31
7.2577433e-31
7.2578739e-31
7.2585684e-31
7.2596549e-31
7.2515199e-31
7.2499288e-31
7.2496681e-31
7.2496177e-31
7.249603e-31
7.2496008e-31
7.2496242e-31
7.2497951e-31
7.250726e-31
7.2580556e-31
7.2499288e-31
7.2483396e-31
7.2480793e-31
7.2480289e-31
7.2480143e-31
7.2480126e-31
7.2480379e-31
7.2482196e-31
7.2491898e-31
7.2577939e-31
7.2496681e-31
7.2480793e-31
7.247819e-31
7.2477687e-31
7.2477542e-31
7.2477527e-31
7.2477785e-31
7.2479621e-31
7.2489377e-31
7.2577432e-31
7.2496177e-31
7.2480289e-31
7.2477687e-31
7.2477185e-31
7.247704e-31
7.2477026e-31
7.2477286e-31
7.2479126e-31
7.2488888e-31
7.2577284e-31
7.249603e-31
7.2480143e-31
7.2477542e-31
7.247704e-31
7.2476896e-31
7.2476882e-31
7.2477143e-31
7.2478984e-31
7.2488748e-31
7.2577255e-31
7.2496008e-31
7.2480126e-31
7.2477527e-31
7.2477026e-31
7.2476882e-31
7.2476869e-31
7.247713e-31
7.2478972e-31
7.2488736e-31
7.2577433e-31
7.2496242e-31
7.2480379e-31
7.2477785e-31
7.2477286e-31
7.2477143e-31
7.247713e-31
7.2477392e-31
7.2479234e-31
7.2488999e-31
7.2578739e-31
7.2497951e-31
7.2482196e-31
7.2479621e-31
7.2479126e-31
7.2478984e-31
7.2478972e-31
7.2479234e-31
7.2481077e-31
7.2490846e-31
7.2585684e-31
7.250726e-31
7.2491898e-31
7.2489377e-31
7.2488888e-31
7.2488748e-31
7.2488736e-31
7.2488999e-31
7.2490846e-31
7.2500646e-31
2.2707779e-30
2.2683209e-30
2.26784e-30
2.2677612e-30
2.2677459e-30
2.2677414e-30
2.2677405e-30
2.2677458e-30
2.2677842e-30
2.2679877e-30
2.2683209e-30
2.2658779e-30
2.2653994e-30
2.2653209e-30
2.2653057e-30
2.2653012e-30
2.2653006e-30
2.2653075e-30
2.2653584e-30
2.265635e-30
2.26784e-30
2.2653994e-30
2.2649215e-30
2.2648431e-30
2.2648279e-30
2.2648235e-30
2.264823e-30
2.2648305e-30
2.2648848e-30
2.2651735e-30
2.2677612e-30
2.2653209e-30
2.2648431e-30
2.2647648e-30
2.2647496e-30
2.2647452e-30
2.2647447e-30
2.2647524e-30
2.2648072e-30
2.2650976e-30
2.2677459e-30
2.2653057e-30
2.2648279e-30
2.2647496e-30
2.2647344e-30
2.26473e-30
2.2647296e-30
2.2647374e-30
2.2647923e-30
2.2650828e-30
2.2677414e-30
2.2653012e-30
2.2648235e-30
2.2647452e-30
2.26473e-30
2.2647256e-30
2.2647252e-30
2.264733e-30
2.264788e-30
2.2650786e-30
2.2677405e-30
2.2653006e-30
2.264823e-30
2.2647447e-30
2.2647296e-30
2.2647252e-30
2.2647248e-30
2.2647326e-30
2.2647876e-30
2.2650782e-30
2.2677458e-30
2.2653075e-30
2.2648305e-30
2.2647524e-30
2.2647374e-30
2.264733e-30
2.2647326e-30
2.2647405e-30
2.2647955e-30
2.2650861e-30
2.2677842e-30
2.2653584e-30
2.2648848e-30
2.2648072e-30
2.2647923e-30
2.264788e-30
2.2647876e-30
2.2647955e-30
2.2648505e-30
2.2651413e-30
2.2679877e-30
2.265635e-30
2.2651735e-30
2.2650976e-30
2.2650828e-30
2.2650786e-30
2.2650782e-30
2.2650861e-30
2.2651413e-30
2.2654329e-30
7.2066865e-30
7.1991964e-30
7.1977286e-30
7.1974875e-30
7.1974406e-30
7.1974268e-30
7.1974241e-30
7.1974399e-30
7.1975548e-30
7.1981605e-30
7.1991964e-30
7.1917486e-30
7.1902881e-30
7.1900481e-30
7.1900013e-30
7.1899876e-30
7.1899856e-30
7.1900067e-30
7.1901607e-30
7.1909954e-30
7.1977286e-30
7.1902881e-30
7.1888293e-30
7.1885896e-30
7.188543e-30
7.1885294e-30
7.1885277e-30
7.1885508e-30
7.1887151e-30
7.1895879e-30
7.1974875e-30
7.1900481e-30
7.1885896e-30
7.18835e-30
7.1883034e-30
7.1882899e-30
7.1882884e-30
7.1883119e-30
7.1884782e-30
7.1893561e-30
7.1974406e-30
7.1900013e-30
7.188543e-30
7.1883034e-30
7.1882568e-30
7.1882434e-30
7.188242e-30
7.1882657e-30
7.1884324e-30
7.1893109e-30
7.1974268e-30
7.1899876e-30
7.1885294e-30
7.1882899e-30
7.1882434e-30
7.18823e-30
7.1882286e-30
7.1882524e-30
7.1884192e-30
7.1892978e-30
7.1974241e-30
7.1899856e-30
7.1885277e-30
7.1882884e-30
7.188242e-30
7.1882286e-30
7.1882274e-30
7.1882512e-30
7.188418e-30
7.1892967e-30
7.1974399e-30
7.1900067e-30
7.1885508e-30
7.1883119e-30
7.1882657e-30
7.1882524e-30
7.1882512e-30
7.1882751e-30
7.1884419e-30
7.1893206e-30
7.1975548e-30
7.1901607e-30
7.1887151e-30
7.1884782e-30
7.1884324e-30
7.1884192e-30
7.188418e-30
7.1884419e-30
7.1886088e-30
7.189488e-30
7.1981605e-30
7.1909954e-30
7.1895879e-30
7.1893561e-30
7.1893109e-30
7.1892978e-30
7.1892967e-30
7.1893206e-30
7.189488e-30
7.1903698e-30
2.3230765e-29
2.3207587e-29
2.3203039e-29
2.3202291e-29
2.3202145e-29
2.3202102e-29
2.3202094e-29
2.3202142e-29
2.3202491e-29
2.3204321e-29
2.3207587e-29
2.3184539e-29
2.3180014e-29
2.3179269e-29
2.3179124e-29
2.3179081e-29
2.3179075e-29
2.317914e-29
2.3179613e-29
2.3182172e-29
2.3203039e-29
2.3180014e-29
2.3175494e-29
2.317475e-29
2.3174605e-29
2.3174563e-29
2.3174558e-29
2.3174629e-29
2.3175135e-29
2.3177815e-29
2.3202291e-29
2.3179269e-29
2.317475e-29
2.3174007e-29
2.3173862e-29
2.317382e-29
2.3173815e-29
2.3173888e-29
2.31744e-29
2.3177097e-29
2.3202145e-29
2.3179124e-29
2.3174605e-29
2.3173862e-29
2.3173717e-29
2.3173675e-29
2.3173671e-29
2.3173744e-29
2.3174257e-29
2.3176956e-29
2.3202102e-29
2.3179081e-29
2.3174563e-29
2.317382e-29
2.3173675e-29
2.3173633e-29
2.3173629e-29
2.3173703e-29
2.3174216e-29
2.3176915e-29
2.3202094e-29
2.3179075e-29
2.3174558e-29
2.3173815e-29
2.3173671e-29
2.3173629e-29
2.3173625e-29
2.3173699e-29
2.3174213e-29
2.3176912e-29
2.3202142e-29
2.317914e-29
2.3174629e-29
2.3173888e-29
2.3173744e-29
2.3173703e-29
2.3173699e-29
2.3173773e-29
2.3174287e-29
2.3176986e-29
2.3202491e-29
2.3179613e-29
2.3175135e-29
2.31744e-29
2.3174257e-29
2.3174216e-29
2.3174213e-29
2.3174287e-29
2.3174801e-29
2.3177501e-29
2.3204321e-29
2.3182172e-29
2.3177815e-29
2.3177097e-29
2.3176956e-29
2.3176915e-29
2.3176912e-29
2.3176986e-29
2.3177501e-29
2.318021e-29
7.605484e-29
7.5982044e-29
7.5967744e-29
7.5965388e-29
7.5964927e-29
7.5964791e-29
7.5964763e-29
7.5964912e-29
7.5965988e-29
7.5971604e-29
7.5982044e-29
7.5909656e-29
7.5895425e-29
7.5893079e-29
7.589262e-29
7.5892484e-29
7.5892464e-29
7.5892668e-29
7.5894145e-29
7.5902115e-29
7.5967744e-29
7.5895425e-29
7.5881212e-29
7.5878868e-29
7.587841e-29
7.5878276e-29
7.5878259e-29
7.5878482e-29
7.5880066e-29
7.5888428e-29
7.5965388e-29
7.5893079e-29
7.5878868e-29
7.5876526e-29
7.5876068e-29
7.5875935e-29
7.587592e-29
7.5876148e-29
7.5877752e-29
7.5886166e-29
7.5964927e-29
7.589262e-29
7.587841e-29
7.5876068e-29
7.587561e-29
7.5875478e-29
7.5875464e-29
7.5875694e-29
7.5877302e-29
7.5885722e-29
7.5964791e-29
7.5892484e-29
7.5878276e-29
7.5875935e-29
7.5875478e-29
7.5875345e-29
7.5875332e-29
7.5875563e-29
7.5877172e-29
7.5885594e-29
7.5964763e-29
7.5892464e-29
7.5878259e-29
7.587592e-29
7.5875464e-29
7.5875332e-29
7.587532e-29
7.5875551e-29
7.587716e-29
7.5885582e-29
7.5964912e-29
7.5892668e-29
7.5878482e-29
7.5876148e-29
7.5875694e-29
7.5875563e-29
7.5875551e-29
7.5875783e-29
7.5877392e-29
7.5885815e-29
7.5965988e-29
7.5894145e-29
7.5880066e-29
7.5877752e-29
7.5877302e-29
7.5877172e-29
7.587716e-29
7.5877392e-29
7.5879002e-29
7.5887429e-29
7.5971604e-29
7.5902115e-29
7.5888428e-29
7.5886166e-29
7.5885722e-29
7.5885594e-29
7.5885582e-29
7.5885815e-29