/*--------------------------------*- C++ -*----------------------------------*\
| =========                 |                                                 |
| \\      /  F ield         | OpenFOAM: The Open Source CFD Toolbox           |
|  \\    /   O peration     | Version:  dev                                   |
|   \\  /    A nd           | Web:      www.OpenFOAM.org                      |
|    \\/     M anipulation  |                                                 |
\*---------------------------------------------------------------------------*/
FoamFile
{
    version     2.0;
    format      ascii;
    class       volScalarField;
    location    "64.995";
    object      A;
}
// * * * * * * * * * * * * * * * * * * * * * * * * * * * * * * * * * * * * * //

dimensions      [0 0 0 0 1 0 0];

internalField   nonuniform List<scalar> 
10000
(
5.836263e-28
5.8274417e-28
5.823073e-28
5.820941e-28
5.8199874e-28
5.8196303e-28
5.8195985e-28
5.8198427e-28
5.8205177e-28
5.8219774e-28
5.8274417e-28
5.8186601e-28
5.8143051e-28
5.8121788e-28
5.8112282e-28
5.8108745e-28
5.8108497e-28
5.8111122e-28
5.8118381e-28
5.8134474e-28
5.823073e-28
5.8143051e-28
5.8099578e-28
5.8078355e-28
5.8068875e-28
5.8065374e-28
5.8065203e-28
5.8067998e-28
5.8075591e-28
5.8092186e-28
5.820941e-28
5.8121788e-28
5.8078355e-28
5.8057156e-28
5.8047697e-28
5.8044223e-28
5.8044107e-28
5.8047005e-28
5.8054766e-28
5.807154e-28
5.8199874e-28
5.8112282e-28
5.8068875e-28
5.8047697e-28
5.8038253e-28
5.8034798e-28
5.8034712e-28
5.8037664e-28
5.8045498e-28
5.8062337e-28
5.8196303e-28
5.8108745e-28
5.8065374e-28
5.8044223e-28
5.8034798e-28
5.8031357e-28
5.8031288e-28
5.8034264e-28
5.8042128e-28
5.805899e-28
5.8195985e-28
5.8108497e-28
5.8065203e-28
5.8044107e-28
5.8034712e-28
5.8031288e-28
5.8031231e-28
5.8034218e-28
5.8042095e-28
5.8058966e-28
5.8198427e-28
5.8111122e-28
5.8067998e-28
5.8047005e-28
5.8037664e-28
5.8034264e-28
5.8034218e-28
5.8037213e-28
5.8045097e-28
5.8061976e-28
5.8205177e-28
5.8118381e-28
5.8075591e-28
5.8054766e-28
5.8045498e-28
5.8042128e-28
5.8042095e-28
5.8045097e-28
5.8052991e-28
5.8069885e-28
5.8219774e-28
5.8134474e-28
5.8092186e-28
5.807154e-28
5.8062337e-28
5.805899e-28
5.8058966e-28
5.8061976e-28
5.8069885e-28
5.8086826e-28
2.009261e-27
2.0063373e-27
2.0048511e-27
2.0041242e-27
2.0037989e-27
2.003677e-27
2.003666e-27
2.0037489e-27
2.0039786e-27
2.0044941e-27
2.0063373e-27
2.0034264e-27
2.0019448e-27
2.0012199e-27
2.0008955e-27
2.0007747e-27
2.0007662e-27
2.0008554e-27
2.0011026e-27
2.0016698e-27
2.0048511e-27
2.0019448e-27
2.0004658e-27
1.9997422e-27
1.9994188e-27
1.9992992e-27
1.9992933e-27
1.9993883e-27
1.999647e-27
2.0002315e-27
2.0041242e-27
2.0012199e-27
1.9997422e-27
1.9990194e-27
1.9986967e-27
1.9985781e-27
1.998574e-27
1.9986726e-27
1.9989371e-27
1.9995276e-27
2.0037989e-27
2.0008955e-27
1.9994188e-27
1.9986967e-27
1.9983745e-27
1.9982565e-27
1.9982535e-27
1.9983539e-27
1.9986209e-27
1.9992137e-27
2.003677e-27
2.0007747e-27
1.9992992e-27
1.9985781e-27
1.9982565e-27
1.9981391e-27
1.9981366e-27
1.9982379e-27
1.9985059e-27
1.9990995e-27
2.003666e-27
2.0007662e-27
1.9992933e-27
1.998574e-27
1.9982535e-27
1.9981366e-27
1.9981346e-27
1.9982363e-27
1.9985047e-27
1.9990986e-27
2.0037489e-27
2.0008554e-27
1.9993883e-27
1.9986726e-27
1.9983539e-27
1.9982379e-27
1.9982363e-27
1.9983382e-27
1.9986068e-27
1.999201e-27
2.0039786e-27
2.0011026e-27
1.999647e-27
1.9989371e-27
1.9986209e-27
1.9985059e-27
1.9985047e-27
1.9986068e-27
1.9988758e-27
1.9994705e-27
2.0044941e-27
2.0016698e-27
2.0002315e-27
1.9995276e-27
1.9992137e-27
1.9990995e-27
1.9990986e-27
1.999201e-27
1.9994705e-27
2.000067e-27
4.350085e-27
4.3439589e-27
4.340806e-27
4.3392598e-27
4.3385669e-27
4.338307e-27
4.3382832e-27
4.3384583e-27
4.3389438e-27
4.340067e-27
4.3439589e-27
4.3378594e-27
4.334716e-27
4.3331739e-27
4.3324831e-27
4.3322256e-27
4.3322069e-27
4.3323956e-27
4.3329189e-27
4.3341538e-27
4.340806e-27
4.334716e-27
4.3315781e-27
4.3300387e-27
4.3293499e-27
4.3290951e-27
4.3290821e-27
4.3292832e-27
4.3298313e-27
4.3311033e-27
4.3392598e-27
4.3331739e-27
4.3300387e-27
4.3285012e-27
4.3278138e-27
4.327561e-27
4.327552e-27
4.3277609e-27
4.3283213e-27
4.3296066e-27
4.3385669e-27
4.3324831e-27
4.3293499e-27
4.3278138e-27
4.3271276e-27
4.3268761e-27
4.3268694e-27
4.3270822e-27
4.3276481e-27
4.3289381e-27
4.338307e-27
4.3322256e-27
4.3290951e-27
4.327561e-27
4.3268761e-27
4.3266258e-27
4.3266203e-27
4.3268349e-27
4.327403e-27
4.3286948e-27
4.3382832e-27
4.3322069e-27
4.3290821e-27
4.327552e-27
4.3268694e-27
4.3266203e-27
4.3266157e-27
4.3268311e-27
4.3274001e-27
4.3286926e-27
4.3384583e-27
4.3323956e-27
4.3292832e-27
4.3277609e-27
4.3270822e-27
4.3268349e-27
4.3268311e-27
4.3270471e-27
4.3276166e-27
4.3289096e-27
4.3389438e-27
4.3329189e-27
4.3298313e-27
4.3283213e-27
4.3276481e-27
4.327403e-27
4.3274001e-27
4.3276166e-27
4.3281869e-27
4.3294809e-27
4.340067e-27
4.3341538e-27
4.3311033e-27
4.3296066e-27
4.3289381e-27
4.3286948e-27
4.3286926e-27
4.3289096e-27
4.3294809e-27
4.330779e-27
8.730653e-27
8.7187506e-27
8.7125799e-27
8.7095458e-27
8.708184e-27
8.7076726e-27
8.7076245e-27
8.7079648e-27
8.7089073e-27
8.711103e-27
8.7187506e-27
8.7068993e-27
8.7007469e-27
8.6977205e-27
8.6963629e-27
8.6958562e-27
8.6958184e-27
8.6961858e-27
8.6972036e-27
8.6996228e-27
8.7125799e-27
8.7007469e-27
8.6946051e-27
8.6915842e-27
8.6902304e-27
8.689729e-27
8.6897025e-27
8.6900948e-27
8.6911621e-27
8.6936553e-27
8.7095458e-27
8.6977205e-27
8.6915842e-27
8.6885668e-27
8.6872159e-27
8.6867186e-27
8.6867e-27
8.6871077e-27
8.6881996e-27
8.6907192e-27
8.708184e-27
8.6963629e-27
8.6902304e-27
8.6872159e-27
8.6858672e-27
8.6853726e-27
8.6853586e-27
8.685774e-27
8.6868768e-27
8.689406e-27
8.7076726e-27
8.6958562e-27
8.689729e-27
8.6867186e-27
8.6853726e-27
8.6848801e-27
8.6848685e-27
8.6852875e-27
8.6863947e-27
8.6889274e-27
8.7076245e-27
8.6958184e-27
8.6897025e-27
8.6867e-27
8.6853586e-27
8.6848685e-27
8.6848587e-27
8.6852794e-27
8.6863884e-27
8.6889224e-27
8.7079648e-27
8.6961858e-27
8.6900948e-27
8.6871077e-27
8.685774e-27
8.6852875e-27
8.6852794e-27
8.6857012e-27
8.6868112e-27
8.6893462e-27
8.7089073e-27
8.6972036e-27
8.6911621e-27
8.6881996e-27
8.6868768e-27
8.6863947e-27
8.6863884e-27
8.6868112e-27
8.6879226e-27
8.6904598e-27
8.711103e-27
8.6996228e-27
8.6936553e-27
8.6907192e-27
8.689406e-27
8.6889274e-27
8.6889224e-27
8.6893462e-27
8.6904598e-27
8.6930047e-27
1.7346501e-26
1.7323615e-26
1.7311688e-26
1.7305809e-26
1.7303166e-26
1.7302172e-26
1.7302076e-26
1.7302729e-26
1.730453e-26
1.7308713e-26
1.7323615e-26
1.7300826e-26
1.7288934e-26
1.728307e-26
1.7280435e-26
1.727945e-26
1.7279374e-26
1.728008e-26
1.728203e-26
1.7286655e-26
1.7311688e-26
1.7288934e-26
1.7277063e-26
1.7271209e-26
1.7268582e-26
1.7267607e-26
1.7267554e-26
1.7268309e-26
1.7270356e-26
1.7275128e-26
1.7305809e-26
1.728307e-26
1.7271209e-26
1.7265362e-26
1.726274e-26
1.7261774e-26
1.7261736e-26
1.7262521e-26
1.7264617e-26
1.7269441e-26
1.7303166e-26
1.7280435e-26
1.7268582e-26
1.726274e-26
1.7260122e-26
1.7259161e-26
1.7259133e-26
1.7259933e-26
1.7262051e-26
1.7266893e-26
1.7302172e-26
1.727945e-26
1.7267607e-26
1.7261774e-26
1.7259161e-26
1.7258204e-26
1.7258181e-26
1.7258988e-26
1.7261114e-26
1.7265964e-26
1.7302076e-26
1.7279374e-26
1.7267554e-26
1.7261736e-26
1.7259133e-26
1.7258181e-26
1.725816e-26
1.7258971e-26
1.7261101e-26
1.7265953e-26
1.7302729e-26
1.728008e-26
1.7268309e-26
1.7262521e-26
1.7259933e-26
1.7258988e-26
1.7258971e-26
1.7259784e-26
1.7261916e-26
1.726677e-26
1.730453e-26
1.728203e-26
1.7270356e-26
1.7264617e-26
1.7262051e-26
1.7261114e-26
1.7261101e-26
1.7261916e-26
1.726405e-26
1.7268908e-26
1.7308713e-26
1.7286655e-26
1.7275128e-26
1.7269441e-26
1.7266893e-26
1.7265964e-26
1.7265953e-26
1.726677e-26
1.7268908e-26
1.7273781e-26
3.4672569e-26
3.4628316e-26
3.4605155e-26
3.4593708e-26
3.4588555e-26
3.4586614e-26
3.4586422e-26
3.4587678e-26
3.4591132e-26
3.4599098e-26
3.4628316e-26
3.4584249e-26
3.4561155e-26
3.4549736e-26
3.4544598e-26
3.4542675e-26
3.4542524e-26
3.4543885e-26
3.4547635e-26
3.455648e-26
3.4605155e-26
3.4561155e-26
3.4538099e-26
3.4526701e-26
3.4521578e-26
3.4519676e-26
3.4519568e-26
3.4521027e-26
3.452497e-26
3.4534106e-26
3.4593708e-26
3.4549736e-26
3.4526701e-26
3.4515317e-26
3.4510204e-26
3.4508317e-26
3.4508241e-26
3.450976e-26
3.4513799e-26
3.4523038e-26
3.4588555e-26
3.4544598e-26
3.4521578e-26
3.4510204e-26
3.45051e-26
3.4503224e-26
3.4503165e-26
3.4504714e-26
3.4508796e-26
3.4518073e-26
3.4586614e-26
3.4542675e-26
3.4519676e-26
3.4508317e-26
3.4503224e-26
3.4501356e-26
3.4501307e-26
3.450287e-26
3.4506969e-26
3.4516259e-26
3.4586422e-26
3.4542524e-26
3.4519568e-26
3.4508241e-26
3.4503165e-26
3.4501307e-26
3.4501264e-26
3.4502834e-26
3.450694e-26
3.4516235e-26
3.4587678e-26
3.4543885e-26
3.4521027e-26
3.450976e-26
3.4504714e-26
3.450287e-26
3.4502834e-26
3.4504408e-26
3.4508518e-26
3.4517817e-26
3.4591132e-26
3.4547635e-26
3.452497e-26
3.4513799e-26
3.4508796e-26
3.4506969e-26
3.450694e-26
3.4508518e-26
3.4512633e-26
3.452194e-26
3.4599098e-26
3.455648e-26
3.4534106e-26
3.4523038e-26
3.4518073e-26
3.4516259e-26
3.4516235e-26
3.4517817e-26
3.452194e-26
3.4531275e-26
7.0016356e-26
6.9929945e-26
6.9884536e-26
6.9862039e-26
6.9851895e-26
6.984807e-26
6.9847682e-26
6.9850122e-26
6.9856806e-26
6.9872095e-26
6.9929945e-26
6.9843892e-26
6.9798613e-26
6.977617e-26
6.9766056e-26
6.9762267e-26
6.9761959e-26
6.9764612e-26
6.9771888e-26
6.9788942e-26
6.9884536e-26
6.9798613e-26
6.9753409e-26
6.9731006e-26
6.9720921e-26
6.9717172e-26
6.9716953e-26
6.97198e-26
6.9727464e-26
6.9745101e-26
6.9862039e-26
6.977617e-26
6.9731006e-26
6.970863e-26
6.9698566e-26
6.9694848e-26
6.9694691e-26
6.9697659e-26
6.9705515e-26
6.9723359e-26
6.9851895e-26
6.9766056e-26
6.9720921e-26
6.9698566e-26
6.9688519e-26
6.9684823e-26
6.9684701e-26
6.9687729e-26
6.969567e-26
6.971359e-26
6.984807e-26
6.9762267e-26
6.9717172e-26
6.9694848e-26
6.9684823e-26
6.9681142e-26
6.968104e-26
6.9684095e-26
6.9692071e-26
6.9710018e-26
6.9847682e-26
6.9761959e-26
6.9716953e-26
6.9694691e-26
6.9684701e-26
6.968104e-26
6.968095e-26
6.9684019e-26
6.9692009e-26
6.9709966e-26
6.9850122e-26
6.9764612e-26
6.97198e-26
6.9697659e-26
6.9687729e-26
6.9684095e-26
6.9684019e-26
6.9687096e-26
6.9695094e-26
6.9713058e-26
6.9856806e-26
6.9771888e-26
6.9727464e-26
6.9705515e-26
6.969567e-26
6.9692071e-26
6.9692009e-26
6.9695094e-26
6.9703102e-26
6.9721081e-26
6.9872095e-26
6.9788942e-26
6.9745101e-26
6.9723359e-26
6.971359e-26
6.9710018e-26
6.9709966e-26
6.9713058e-26
6.9721081e-26
6.9739113e-26
1.4300298e-25
1.4283239e-25
1.427424e-25
1.4269771e-25
1.4267752e-25
1.426699e-25
1.4266911e-25
1.426739e-25
1.4268698e-25
1.4271663e-25
1.4283239e-25
1.4266251e-25
1.4257277e-25
1.4252818e-25
1.4250805e-25
1.425005e-25
1.4249988e-25
1.425051e-25
1.4251938e-25
1.425526e-25
1.427424e-25
1.4257277e-25
1.4248317e-25
1.4243866e-25
1.424186e-25
1.4241113e-25
1.4241068e-25
1.424163e-25
1.4243136e-25
1.4246577e-25
1.4269771e-25
1.4252818e-25
1.4243866e-25
1.4239421e-25
1.4237418e-25
1.4236678e-25
1.4236645e-25
1.4237232e-25
1.4238777e-25
1.424226e-25
1.4267752e-25
1.4250805e-25
1.424186e-25
1.4237418e-25
1.4235419e-25
1.4234683e-25
1.4234658e-25
1.4235256e-25
1.4236818e-25
1.4240317e-25
1.426699e-25
1.425005e-25
1.4241113e-25
1.4236678e-25
1.4234683e-25
1.423395e-25
1.4233929e-25
1.4234533e-25
1.4236102e-25
1.4239606e-25
1.4266911e-25
1.4249988e-25
1.4241068e-25
1.4236645e-25
1.4234658e-25
1.4233929e-25
1.423391e-25
1.4234517e-25
1.4236089e-25
1.4239595e-25
1.426739e-25
1.425051e-25
1.424163e-25
1.4237232e-25
1.4235256e-25
1.4234533e-25
1.4234517e-25
1.4235125e-25
1.4236699e-25
1.4240206e-25
1.4268698e-25
1.4251938e-25
1.4243136e-25
1.4238777e-25
1.4236818e-25
1.4236102e-25
1.4236089e-25
1.4236699e-25
1.4238274e-25
1.4241784e-25
1.4271663e-25
1.425526e-25
1.4246577e-25
1.424226e-25
1.4240317e-25
1.4239606e-25
1.4239595e-25
1.4240206e-25
1.4241784e-25
1.4245305e-25
2.9550766e-25
2.9516708e-25
2.9498672e-25
2.9489694e-25
2.9485633e-25
2.9484097e-25
2.9483935e-25
2.9484887e-25
2.9487474e-25
2.9493288e-25
2.9516708e-25
2.9482789e-25
2.9464803e-25
2.9455845e-25
2.9451796e-25
2.9450275e-25
2.9450146e-25
2.9451187e-25
2.945402e-25
2.9460568e-25
2.9498672e-25
2.9464803e-25
2.9446846e-25
2.9437904e-25
2.9433867e-25
2.9432362e-25
2.943227e-25
2.9433391e-25
2.9436384e-25
2.9443175e-25
2.9489694e-25
2.9455845e-25
2.9437904e-25
2.9428973e-25
2.9424944e-25
2.9423452e-25
2.9423385e-25
2.9424557e-25
2.942763e-25
2.9434507e-25
2.9485633e-25
2.9451796e-25
2.9433867e-25
2.9424944e-25
2.9420922e-25
2.9419439e-25
2.9419387e-25
2.9420583e-25
2.9423691e-25
2.9430599e-25
2.9484097e-25
2.9450275e-25
2.9432362e-25
2.9423452e-25
2.9419439e-25
2.9417963e-25
2.9417919e-25
2.9419126e-25
2.9422249e-25
2.9429168e-25
2.9483935e-25
2.9450146e-25
2.943227e-25
2.9423385e-25
2.9419387e-25
2.9417919e-25
2.9417879e-25
2.9419092e-25
2.9422221e-25
2.9429145e-25
2.9484887e-25
2.9451187e-25
2.9433391e-25
2.9424557e-25
2.9420583e-25
2.9419126e-25
2.9419092e-25
2.9420309e-25
2.9423441e-25
2.9430367e-25
2.9487474e-25
2.945402e-25
2.9436384e-25
2.942763e-25
2.9423691e-25
2.9422249e-25
2.9422221e-25
2.9423441e-25
2.9426576e-25
2.9433508e-25
2.9493288e-25
2.9460568e-25
2.9443175e-25
2.9434507e-25
2.9430599e-25
2.9429168e-25
2.9429145e-25
2.9430367e-25
2.9433508e-25
2.944046e-25
6.1791251e-25
6.1722477e-25
6.1685918e-25
6.1667676e-25
6.1659413e-25
6.1656284e-25
6.1655947e-25
6.1657863e-25
6.166304e-25
6.167457e-25
6.1722477e-25
6.165398e-25
6.1617521e-25
6.1599321e-25
6.1591082e-25
6.1587983e-25
6.1587715e-25
6.1589813e-25
6.15955e-25
6.1608556e-25
6.1685918e-25
6.1617521e-25
6.1581121e-25
6.1562952e-25
6.1554737e-25
6.1551672e-25
6.1551479e-25
6.1553744e-25
6.1559764e-25
6.1573323e-25
6.1667676e-25
6.1599321e-25
6.1562952e-25
6.1544805e-25
6.1536607e-25
6.153357e-25
6.1533429e-25
6.1535797e-25
6.1541982e-25
6.1555719e-25
6.1659413e-25
6.1591082e-25
6.1554737e-25
6.1536607e-25
6.1528424e-25
6.1525404e-25
6.1525294e-25
6.1527714e-25
6.1533972e-25
6.1547773e-25
6.1656284e-25
6.1587983e-25
6.1551672e-25
6.153357e-25
6.1525404e-25
6.1522398e-25
6.1522304e-25
6.1524747e-25
6.1531035e-25
6.154486e-25
6.1655947e-25
6.1587715e-25
6.1551479e-25
6.1533429e-25
6.1525294e-25
6.1522304e-25
6.1522222e-25
6.1524676e-25
6.1530976e-25
6.154481e-25
6.1657863e-25
6.1589813e-25
6.1553744e-25
6.1535797e-25
6.1527714e-25
6.1524747e-25
6.1524676e-25
6.1527138e-25
6.1533444e-25
6.1547283e-25
6.166304e-25
6.15955e-25
6.1559764e-25
6.1541982e-25
6.1533972e-25
6.1531035e-25
6.1530976e-25
6.1533444e-25
6.1539757e-25
6.1553608e-25
6.167457e-25
6.1608556e-25
6.1573323e-25
6.1555719e-25
6.1547773e-25
6.154486e-25
6.154481e-25
6.1547283e-25
6.1553608e-25
6.1567498e-25
1.3075312e-24
1.3061265e-24
1.305377e-24
1.3050021e-24
1.3048321e-24
1.3047676e-24
1.3047605e-24
1.3047995e-24
1.3049043e-24
1.3051357e-24
1.3061265e-24
1.3047273e-24
1.3039798e-24
1.3036058e-24
1.3034363e-24
1.3033724e-24
1.3033668e-24
1.3034096e-24
1.3035251e-24
1.3037885e-24
1.305377e-24
1.3039798e-24
1.3032335e-24
1.3028602e-24
1.3026911e-24
1.3026279e-24
1.3026239e-24
1.3026702e-24
1.3027927e-24
1.3030666e-24
1.3050021e-24
1.3036058e-24
1.3028602e-24
1.3024872e-24
1.3023185e-24
1.3022559e-24
1.302253e-24
1.3023014e-24
1.3024274e-24
1.302705e-24
1.3048321e-24
1.3034363e-24
1.3026911e-24
1.3023185e-24
1.3021501e-24
1.3020879e-24
1.3020856e-24
1.3021351e-24
1.3022626e-24
1.3025416e-24
1.3047676e-24
1.3033724e-24
1.3026279e-24
1.3022559e-24
1.3020879e-24
1.302026e-24
1.302024e-24
1.302074e-24
1.3022021e-24
1.3024816e-24
1.3047605e-24
1.3033668e-24
1.3026239e-24
1.302253e-24
1.3020856e-24
1.302024e-24
1.3020223e-24
1.3020725e-24
1.3022009e-24
1.3024806e-24
1.3047995e-24
1.3034096e-24
1.3026702e-24
1.3023014e-24
1.3021351e-24
1.302074e-24
1.3020725e-24
1.3021229e-24
1.3022514e-24
1.3025312e-24
1.3049043e-24
1.3035251e-24
1.3027927e-24
1.3024274e-24
1.3022626e-24
1.3022021e-24
1.3022009e-24
1.3022514e-24
1.30238e-24
1.3026601e-24
1.3051357e-24
1.3037885e-24
1.3030666e-24
1.302705e-24
1.3025416e-24
1.3024816e-24
1.3024806e-24
1.3025312e-24
1.3026601e-24
1.3029409e-24
2.8000634e-24
2.797161e-24
2.7956066e-24
2.7948275e-24
2.7944735e-24
2.7943392e-24
2.7943242e-24
2.7944044e-24
2.7946192e-24
2.7950888e-24
2.797161e-24
2.79427e-24
2.7927198e-24
2.7919424e-24
2.7915895e-24
2.7914564e-24
2.7914445e-24
2.7915328e-24
2.7917703e-24
2.7923079e-24
2.7956066e-24
2.7927198e-24
2.791172e-24
2.790396e-24
2.790044e-24
2.7899125e-24
2.7899039e-24
2.7899996e-24
2.7902519e-24
2.7908118e-24
2.7948275e-24
2.7919424e-24
2.790396e-24
2.7896208e-24
2.7892696e-24
2.7891393e-24
2.789133e-24
2.7892333e-24
2.7894929e-24
2.7900608e-24
2.7944735e-24
2.7915895e-24
2.790044e-24
2.7892696e-24
2.7889191e-24
2.7887895e-24
2.7887846e-24
2.7888872e-24
2.78915e-24
2.7897208e-24
2.7943392e-24
2.7914564e-24
2.7899125e-24
2.7891393e-24
2.7887895e-24
2.7886605e-24
2.7886563e-24
2.78876e-24
2.7890241e-24
2.7895959e-24
2.7943242e-24
2.7914445e-24
2.7899039e-24
2.789133e-24
2.7887846e-24
2.7886563e-24
2.7886526e-24
2.7887568e-24
2.7890214e-24
2.7895936e-24
2.7944044e-24
2.7915328e-24
2.7899996e-24
2.7892333e-24
2.7888872e-24
2.78876e-24
2.7887568e-24
2.7888612e-24
2.7891261e-24
2.7896986e-24
2.7946192e-24
2.7917703e-24
2.7902519e-24
2.7894929e-24
2.78915e-24
2.7890241e-24
2.7890214e-24
2.7891261e-24
2.7893913e-24
2.7899643e-24
2.7950888e-24
2.7923079e-24
2.7908118e-24
2.7900608e-24
2.7897208e-24
2.7895959e-24
2.7895936e-24
2.7896986e-24
2.7899643e-24
2.7905388e-24
6.0686688e-24
6.0626024e-24
6.059342e-24
6.057704e-24
6.0569588e-24
6.0566756e-24
6.0566436e-24
6.0568107e-24
6.0572559e-24
6.0582205e-24
6.0626024e-24
6.0565599e-24
6.053308e-24
6.0516735e-24
6.0509304e-24
6.0506501e-24
6.0506245e-24
6.050809e-24
6.051303e-24
6.0524135e-24
6.059342e-24
6.053308e-24
6.0500611e-24
6.0484295e-24
6.0476885e-24
6.0474113e-24
6.0473929e-24
6.0475933e-24
6.0481189e-24
6.0492774e-24
6.057704e-24
6.0516735e-24
6.0484295e-24
6.0467997e-24
6.0460603e-24
6.0457857e-24
6.0457723e-24
6.0459824e-24
6.0465237e-24
6.0476993e-24
6.0569588e-24
6.0509304e-24
6.0476885e-24
6.0460603e-24
6.0453224e-24
6.0450494e-24
6.0450388e-24
6.0452539e-24
6.0458021e-24
6.0469839e-24
6.0566756e-24
6.0506501e-24
6.0474113e-24
6.0457857e-24
6.0450494e-24
6.0447777e-24
6.0447687e-24
6.0449859e-24
6.045537e-24
6.046721e-24
6.0566436e-24
6.0506245e-24
6.0473929e-24
6.0457723e-24
6.0450388e-24
6.0447687e-24
6.0447608e-24
6.0449791e-24
6.0455313e-24
6.0467161e-24
6.0568107e-24
6.050809e-24
6.0475933e-24
6.0459824e-24
6.0452539e-24
6.0449859e-24
6.0449791e-24
6.0451981e-24
6.0457509e-24
6.0469362e-24
6.0572559e-24
6.051303e-24
6.0481189e-24
6.0465237e-24
6.0458021e-24
6.045537e-24
6.0455313e-24
6.0457509e-24
6.0463043e-24
6.0474906e-24
6.0582205e-24
6.0524135e-24
6.0492774e-24
6.0476993e-24
6.0469839e-24
6.046721e-24
6.0467161e-24
6.0469362e-24
6.0474906e-24
6.0486801e-24
1.3312013e-23
1.3299187e-23
1.3292268e-23
1.3288785e-23
1.3287198e-23
1.3286594e-23
1.3286525e-23
1.3286877e-23
1.3287812e-23
1.3289816e-23
1.3299187e-23
1.328641e-23
1.327951e-23
1.3276034e-23
1.3274452e-23
1.3273854e-23
1.3273799e-23
1.3274189e-23
1.3275229e-23
1.327755e-23
1.3292268e-23
1.327951e-23
1.327262e-23
1.326915e-23
1.3267572e-23
1.3266982e-23
1.3266942e-23
1.3267366e-23
1.3268475e-23
1.32709e-23
1.3288785e-23
1.3276034e-23
1.326915e-23
1.3265684e-23
1.326411e-23
1.3263524e-23
1.3263496e-23
1.3263941e-23
1.3265084e-23
1.3267546e-23
1.3287198e-23
1.3274452e-23
1.3267572e-23
1.326411e-23
1.3262538e-23
1.3261957e-23
1.3261934e-23
1.326239e-23
1.3263548e-23
1.3266024e-23
1.3286594e-23
1.3273854e-23
1.3266982e-23
1.3263524e-23
1.3261957e-23
1.3261378e-23
1.3261358e-23
1.3261819e-23
1.3262983e-23
1.3265464e-23
1.3286525e-23
1.3273799e-23
1.3266942e-23
1.3263496e-23
1.3261934e-23
1.3261358e-23
1.3261341e-23
1.3261805e-23
1.3262971e-23
1.3265454e-23
1.3286877e-23
1.3274189e-23
1.3267366e-23
1.3263941e-23
1.326239e-23
1.3261819e-23
1.3261805e-23
1.3262269e-23
1.3263437e-23
1.3265921e-23
1.3287812e-23
1.3275229e-23
1.3268475e-23
1.3265084e-23
1.3263548e-23
1.3262983e-23
1.3262971e-23
1.3263437e-23
1.3264605e-23
1.3267091e-23
1.3289816e-23
1.327755e-23
1.32709e-23
1.3267546e-23
1.3266024e-23
1.3265464e-23
1.3265454e-23
1.3265921e-23
1.3267091e-23
1.3269584e-23
2.9554901e-23
2.9527468e-23
2.9512619e-23
2.9505126e-23
2.9501708e-23
2.9500406e-23
2.9500255e-23
2.9501006e-23
2.9502989e-23
2.9507204e-23
2.9527468e-23
2.950014e-23
2.9485329e-23
2.9477852e-23
2.9474443e-23
2.9473155e-23
2.9473035e-23
2.9473869e-23
2.9476084e-23
2.9480995e-23
2.9512619e-23
2.9485329e-23
2.947054e-23
2.9463076e-23
2.9459677e-23
2.9458404e-23
2.9458317e-23
2.9459227e-23
2.9461593e-23
2.9466733e-23
2.9505126e-23
2.9477852e-23
2.9463076e-23
2.945562e-23
2.9452229e-23
2.9450967e-23
2.9450905e-23
2.945186e-23
2.9454301e-23
2.9459523e-23
2.9501708e-23
2.9474443e-23
2.9459677e-23
2.9452229e-23
2.9448844e-23
2.944759e-23
2.9447541e-23
2.944852e-23
2.9450994e-23
2.9456245e-23
2.9500406e-23
2.9473155e-23
2.9458404e-23
2.9450967e-23
2.944759e-23
2.9446343e-23
2.9446301e-23
2.9447291e-23
2.9449777e-23
2.9455039e-23
2.9500255e-23
2.9473035e-23
2.9458317e-23
2.9450905e-23
2.9447541e-23
2.9446301e-23
2.9446264e-23
2.9447259e-23
2.9449751e-23
2.9455017e-23
2.9501006e-23
2.9473869e-23
2.9459227e-23
2.945186e-23
2.944852e-23
2.9447291e-23
2.9447259e-23
2.9448257e-23
2.9450752e-23
2.945602e-23
2.9502989e-23
2.9476084e-23
2.9461593e-23
2.9454301e-23
2.9450994e-23
2.9449777e-23
2.9449751e-23
2.9450752e-23
2.945325e-23
2.9458522e-23
2.9507204e-23
2.9480995e-23
2.9466733e-23
2.9459523e-23
2.9456245e-23
2.9455039e-23
2.9455017e-23
2.945602e-23
2.9458522e-23
2.9463808e-23
6.6413623e-23
6.6354267e-23
6.6322027e-23
6.6305724e-23
6.6298277e-23
6.6295438e-23
6.6295105e-23
6.6296727e-23
6.6300987e-23
6.6309955e-23
6.6354267e-23
6.6295138e-23
6.6262979e-23
6.624671e-23
6.6239283e-23
6.6236473e-23
6.6236209e-23
6.6238015e-23
6.624279e-23
6.6253306e-23
6.6322027e-23
6.6262979e-23
6.6230869e-23
6.6214627e-23
6.6207221e-23
6.6204445e-23
6.6204255e-23
6.6206229e-23
6.6211338e-23
6.6222364e-23
6.6305724e-23
6.624671e-23
6.6214627e-23
6.6198403e-23
6.6191015e-23
6.6188264e-23
6.6188128e-23
6.6190204e-23
6.6195479e-23
6.6206685e-23
6.6298277e-23
6.6239283e-23
6.6207221e-23
6.6191015e-23
6.618364e-23
6.6180907e-23
6.6180801e-23
6.6182928e-23
6.6188277e-23
6.6199548e-23
6.6295438e-23
6.6236473e-23
6.6204445e-23
6.6188264e-23
6.6180907e-23
6.6178188e-23
6.6178098e-23
6.6180249e-23
6.6185627e-23
6.6196922e-23
6.6295105e-23
6.6236209e-23
6.6204255e-23
6.6188128e-23
6.6180801e-23
6.6178098e-23
6.6178018e-23
6.6180181e-23
6.6185571e-23
6.6196874e-23
6.6296727e-23
6.6238015e-23
6.6206229e-23
6.6190204e-23
6.6182928e-23
6.6180249e-23
6.6180181e-23
6.618235e-23
6.6187746e-23
6.6199055e-23
6.6300987e-23
6.624279e-23
6.6211338e-23
6.6195479e-23
6.6188277e-23
6.6185627e-23
6.6185571e-23
6.6187746e-23
6.6193148e-23
6.6204465e-23
6.6309955e-23
6.6253306e-23
6.6222364e-23
6.6206685e-23
6.6199548e-23
6.6196922e-23
6.6196874e-23
6.6199055e-23
6.6204465e-23
6.6215811e-23
1.5105269e-22
1.5092277e-22
1.5085197e-22
1.5081609e-22
1.5079968e-22
1.5079341e-22
1.5079267e-22
1.5079622e-22
1.5080548e-22
1.5082479e-22
1.5092277e-22
1.5079335e-22
1.5072272e-22
1.5068692e-22
1.5067055e-22
1.5066435e-22
1.5066376e-22
1.5066772e-22
1.5067814e-22
1.5070093e-22
1.5085197e-22
1.5072272e-22
1.506522e-22
1.5061645e-22
1.5060013e-22
1.5059401e-22
1.5059359e-22
1.5059792e-22
1.5060909e-22
1.5063303e-22
1.5081609e-22
1.5068692e-22
1.5061645e-22
1.5058075e-22
1.5056446e-22
1.505584e-22
1.505581e-22
1.5056266e-22
1.505742e-22
1.5059854e-22
1.5079968e-22
1.5067055e-22
1.5060013e-22
1.5056446e-22
1.5054821e-22
1.5054219e-22
1.5054195e-22
1.5054663e-22
1.5055834e-22
1.5058282e-22
1.5079341e-22
1.5066435e-22
1.5059401e-22
1.505584e-22
1.5054219e-22
1.5053619e-22
1.50536e-22
1.5054073e-22
1.505525e-22
1.5057704e-22
1.5079267e-22
1.5066376e-22
1.5059359e-22
1.505581e-22
1.5054195e-22
1.50536e-22
1.5053582e-22
1.5054058e-22
1.5055238e-22
1.5057694e-22
1.5079622e-22
1.5066772e-22
1.5059792e-22
1.5056266e-22
1.5054663e-22
1.5054073e-22
1.5054058e-22
1.5054535e-22
1.5055717e-22
1.5058173e-22
1.5080548e-22
1.5067814e-22
1.5060909e-22
1.505742e-22
1.5055834e-22
1.505525e-22
1.5055238e-22
1.5055717e-22
1.5056899e-22
1.5059358e-22
1.5082479e-22
1.5070093e-22
1.5063303e-22
1.5059854e-22
1.5058282e-22
1.5057704e-22
1.5057694e-22
1.5058173e-22
1.5059358e-22
1.5061823e-22
3.4772841e-22
3.4744078e-22
3.4728349e-22
3.4720362e-22
3.4716704e-22
3.4715307e-22
3.471514e-22
3.4715924e-22
3.4717962e-22
3.4722168e-22
3.4744078e-22
3.4715423e-22
3.4699732e-22
3.4691761e-22
3.4688113e-22
3.4686731e-22
3.4686599e-22
3.4687477e-22
3.4689777e-22
3.4694776e-22
3.4728349e-22
3.4699732e-22
3.4684065e-22
3.4676107e-22
3.467247e-22
3.4671105e-22
3.4671011e-22
3.4671974e-22
3.4674445e-22
3.4679703e-22
3.4720362e-22
3.4691761e-22
3.4676107e-22
3.4668159e-22
3.466453e-22
3.4663178e-22
3.4663111e-22
3.4664126e-22
3.4666682e-22
3.4672032e-22
3.4716704e-22
3.4688113e-22
3.467247e-22
3.466453e-22
3.4660908e-22
3.4659565e-22
3.4659513e-22
3.4660554e-22
3.4663147e-22
3.4668531e-22
3.4715307e-22
3.4686731e-22
3.4671105e-22
3.4663178e-22
3.4659565e-22
3.4658228e-22
3.4658185e-22
3.4659238e-22
3.4661846e-22
3.4667242e-22
3.471514e-22
3.4686599e-22
3.4671011e-22
3.4663111e-22
3.4659513e-22
3.4658185e-22
3.4658147e-22
3.4659206e-22
3.466182e-22
3.466722e-22
3.4715924e-22
3.4687477e-22
3.4671974e-22
3.4664126e-22
3.4660554e-22
3.4659238e-22
3.4659206e-22
3.4660269e-22
3.4662886e-22
3.4668289e-22
3.4717962e-22
3.4689777e-22
3.4674445e-22
3.4666682e-22
3.4663147e-22
3.4661846e-22
3.466182e-22
3.4662886e-22
3.4665506e-22
3.4670913e-22
3.4722168e-22
3.4694776e-22
3.4679703e-22
3.4672032e-22
3.4668531e-22
3.4667242e-22
3.466722e-22
3.4668289e-22
3.4670913e-22
3.4676333e-22
8.101845e-22
8.0954035e-22
8.0918694e-22
8.0900712e-22
8.0892465e-22
8.0889314e-22
8.0888935e-22
8.089069e-22
8.0895226e-22
8.0904498e-22
8.0954035e-22
8.0889859e-22
8.0854604e-22
8.0836657e-22
8.0828433e-22
8.0825315e-22
8.0825016e-22
8.0826986e-22
8.0832127e-22
8.0843222e-22
8.0918694e-22
8.0854604e-22
8.08194e-22
8.0801483e-22
8.0793283e-22
8.0790204e-22
8.0789992e-22
8.0792158e-22
8.0797691e-22
8.0809383e-22
8.0900712e-22
8.0836657e-22
8.0801483e-22
8.0783586e-22
8.0775405e-22
8.0772356e-22
8.0772206e-22
8.0774492e-22
8.0780219e-22
8.0792123e-22
8.0892465e-22
8.0828433e-22
8.0793283e-22
8.0775405e-22
8.076724e-22
8.0764212e-22
8.0764097e-22
8.0766443e-22
8.0772256e-22
8.0784237e-22
8.0889314e-22
8.0825315e-22
8.0790204e-22
8.0772356e-22
8.0764212e-22
8.0761198e-22
8.0761103e-22
8.0763477e-22
8.0769324e-22
8.0781332e-22
8.0888935e-22
8.0825016e-22
8.0789992e-22
8.0772206e-22
8.0764097e-22
8.0761103e-22
8.076102e-22
8.0763407e-22
8.0769268e-22
8.0781286e-22
8.089069e-22
8.0826986e-22
8.0792158e-22
8.0774492e-22
8.0766443e-22
8.0763477e-22
8.0763407e-22
8.0765801e-22
8.0771669e-22
8.0783694e-22
8.0895226e-22
8.0832127e-22
8.0797691e-22
8.0780219e-22
8.0772256e-22
8.0769324e-22
8.0769268e-22
8.0771669e-22
8.0777544e-22
8.0789577e-22
8.0904498e-22
8.0843222e-22
8.0809383e-22
8.0792123e-22
8.0784237e-22
8.0781332e-22
8.0781286e-22
8.0783694e-22
8.0789577e-22
8.080164e-22
1.9104945e-21
1.9090354e-21
1.9082323e-21
1.9078228e-21
1.9076348e-21
1.9075629e-21
1.9075542e-21
1.9075939e-21
1.9076961e-21
1.9079029e-21
1.9090354e-21
1.9075816e-21
1.9067804e-21
1.9063718e-21
1.9061843e-21
1.9061131e-21
1.9061063e-21
1.9061511e-21
1.9062673e-21
1.9065165e-21
1.9082323e-21
1.9067804e-21
1.9059804e-21
1.9055724e-21
1.9053854e-21
1.9053152e-21
1.9053104e-21
1.9053597e-21
1.9054851e-21
1.9057482e-21
1.9078228e-21
1.9063718e-21
1.9055724e-21
1.9051649e-21
1.9049784e-21
1.9049088e-21
1.9049054e-21
1.9049575e-21
1.9050874e-21
1.9053555e-21
1.9076348e-21
1.9061843e-21
1.9053854e-21
1.9049784e-21
1.9047922e-21
1.9047231e-21
1.9047206e-21
1.9047741e-21
1.9049059e-21
1.9051758e-21
1.9075629e-21
1.9061131e-21
1.9053152e-21
1.9049088e-21
1.9047231e-21
1.9046544e-21
1.9046523e-21
1.9047065e-21
1.9048391e-21
1.9051096e-21
1.9075542e-21
1.9061063e-21
1.9053104e-21
1.9049054e-21
1.9047206e-21
1.9046523e-21
1.9046505e-21
1.9047049e-21
1.9048379e-21
1.9051087e-21
1.9075939e-21
1.9061511e-21
1.9053597e-21
1.9049575e-21
1.9047741e-21
1.9047065e-21
1.9047049e-21
1.9047595e-21
1.9048927e-21
1.9051636e-21
1.9076961e-21
1.9062673e-21
1.9054851e-21
1.9050874e-21
1.9049059e-21
1.9048391e-21
1.9048379e-21
1.9048927e-21
1.905026e-21
1.9052971e-21
1.9079029e-21
1.9065165e-21
1.9057482e-21
1.9053555e-21
1.9051758e-21
1.9051096e-21
1.9051087e-21
1.9051636e-21
1.9052971e-21
1.9055688e-21
4.5593817e-21
4.5560388e-21
4.5541931e-21
4.5532502e-21
4.5528167e-21
4.5526508e-21
4.5526307e-21
4.5527218e-21
4.5529547e-21
4.5534215e-21
4.5560388e-21
4.5527083e-21
4.5508668e-21
4.5499257e-21
4.5494935e-21
4.5493294e-21
4.5493136e-21
4.5494165e-21
4.5496825e-21
4.5502491e-21
4.5541931e-21
4.5508668e-21
4.5490281e-21
4.5480885e-21
4.5476575e-21
4.5474955e-21
4.5474845e-21
4.5475981e-21
4.5478855e-21
4.5484848e-21
4.5532502e-21
4.5499257e-21
4.5480885e-21
4.54715e-21
4.54672e-21
4.5465597e-21
4.546552e-21
4.5466721e-21
4.5469702e-21
4.5475811e-21
4.5528167e-21
4.5494935e-21
4.5476575e-21
4.54672e-21
4.5462909e-21
4.5461317e-21
4.5461259e-21
4.5462493e-21
4.546552e-21
4.5471671e-21
4.5526508e-21
4.5493294e-21
4.5474955e-21
4.5465597e-21
4.5461317e-21
4.5459733e-21
4.5459686e-21
4.5460935e-21
4.5463981e-21
4.5470147e-21
4.5526307e-21
4.5493136e-21
4.5474845e-21
4.546552e-21
4.5461259e-21
4.5459686e-21
4.5459646e-21
4.5460902e-21
4.5463955e-21
4.5470127e-21
4.5527218e-21
4.5494165e-21
4.5475981e-21
4.5466721e-21
4.5462493e-21
4.5460935e-21
4.5460902e-21
4.5462162e-21
4.5465219e-21
4.5471394e-21
4.5529547e-21
4.5496825e-21
4.5478855e-21
4.5469702e-21
4.546552e-21
4.5463981e-21
4.5463955e-21
4.5465219e-21
4.546828e-21
4.5474459e-21
4.5534215e-21
4.5502491e-21
4.5484848e-21
4.5475811e-21
4.5471671e-21
4.5470147e-21
4.5470127e-21
4.5471394e-21
4.5474459e-21
4.5480653e-21