/*--------------------------------*- C++ -*----------------------------------*\
| =========                 |                                                 |
| \\      /  F ield         | OpenFOAM: The Open Source CFD Toolbox           |
|  \\    /   O peration     | Version:  dev                                   |
|   \\  /    A nd           | Web:      www.OpenFOAM.org                      |
|    \\/     M anipulation  |                                                 |
\*---------------------------------------------------------------------------*/
FoamFile
{
    version     2.0;
    format      ascii;
    class       volScalarField;
    location    "64.995";
    object      A_0;
}
// * * * * * * * * * * * * * * * * * * * * * * * * * * * * * * * * * * * * * //

dimensions      [0 0 0 0 1 0 0];

internalField   nonuniform List<scalar> 
10000
(
5.652905e-28
5.6443513e-28
5.6401169e-28
5.6380516e-28
5.6371285e-28
5.6367832e-28
5.6367527e-28
5.6369891e-28
5.637643e-28
5.6390573e-28
5.6443513e-28
5.6358361e-28
5.631615e-28
5.6295553e-28
5.6286351e-28
5.628293e-28
5.6282692e-28
5.6285235e-28
5.6292266e-28
5.6307861e-28
5.6401169e-28
5.631615e-28
5.6274013e-28
5.6253454e-28
5.6244278e-28
5.6240892e-28
5.6240729e-28
5.6243435e-28
5.6250791e-28
5.6266872e-28
5.6380516e-28
5.6295553e-28
5.6253454e-28
5.6232919e-28
5.6223763e-28
5.6220403e-28
5.6220293e-28
5.62231e-28
5.6230618e-28
5.6246872e-28
5.6371285e-28
5.6286351e-28
5.6244278e-28
5.6223763e-28
5.6214621e-28
5.6211279e-28
5.6211199e-28
5.6214058e-28
5.6221647e-28
5.6237964e-28
5.6367832e-28
5.628293e-28
5.6240892e-28
5.6220403e-28
5.6211279e-28
5.6207952e-28
5.6207887e-28
5.6210769e-28
5.6218388e-28
5.6234727e-28
5.6367527e-28
5.6282692e-28
5.6240729e-28
5.6220293e-28
5.6211199e-28
5.6207887e-28
5.6207834e-28
5.6210727e-28
5.6218357e-28
5.6234706e-28
5.6369891e-28
5.6285235e-28
5.6243435e-28
5.62231e-28
5.6214058e-28
5.6210769e-28
5.6210727e-28
5.6213628e-28
5.6221265e-28
5.6237621e-28
5.637643e-28
5.6292266e-28
5.6250791e-28
5.6230618e-28
5.6221647e-28
5.6218388e-28
5.6218357e-28
5.6221265e-28
5.6228912e-28
5.6245282e-28
5.6390573e-28
5.6307861e-28
5.6266872e-28
5.6246872e-28
5.6237964e-28
5.6234727e-28
5.6234706e-28
5.6237621e-28
5.6245282e-28
5.6261699e-28
1.9463916e-27
1.9435562e-27
1.9421155e-27
1.9414114e-27
1.9410964e-27
1.9409785e-27
1.9409679e-27
1.9410482e-27
1.9412707e-27
1.9417703e-27
1.9435562e-27
1.9407333e-27
1.939297e-27
1.9385947e-27
1.9382807e-27
1.9381639e-27
1.9381557e-27
1.9382421e-27
1.9384816e-27
1.9390313e-27
1.9421155e-27
1.939297e-27
1.9378633e-27
1.9371623e-27
1.9368492e-27
1.9367335e-27
1.9367279e-27
1.9368199e-27
1.9370705e-27
1.937637e-27
1.9414114e-27
1.9385947e-27
1.9371623e-27
1.936462e-27
1.9361496e-27
1.9360349e-27
1.936031e-27
1.9361266e-27
1.9363827e-27
1.9369551e-27
1.9410964e-27
1.9382807e-27
1.9368492e-27
1.9361496e-27
1.9358377e-27
1.9357236e-27
1.9357207e-27
1.935818e-27
1.9360766e-27
1.9366512e-27
1.9409785e-27
1.9381639e-27
1.9367335e-27
1.9360349e-27
1.9357236e-27
1.93561e-27
1.9356077e-27
1.9357058e-27
1.9359654e-27
1.9365407e-27
1.9409679e-27
1.9381557e-27
1.9367279e-27
1.936031e-27
1.9357207e-27
1.9356077e-27
1.9356058e-27
1.9357042e-27
1.9359643e-27
1.9365399e-27
1.9410482e-27
1.9382421e-27
1.9368199e-27
1.9361266e-27
1.935818e-27
1.9357058e-27
1.9357042e-27
1.935803e-27
1.9360632e-27
1.9366391e-27
1.9412707e-27
1.9384816e-27
1.9370705e-27
1.9363827e-27
1.9360766e-27
1.9359654e-27
1.9359643e-27
1.9360632e-27
1.9363238e-27
1.9369002e-27
1.9417703e-27
1.9390313e-27
1.937637e-27
1.9369551e-27
1.9366512e-27
1.9365407e-27
1.9365399e-27
1.9366391e-27
1.9369002e-27
1.9374782e-27
4.2149673e-27
4.2090249e-27
4.2059677e-27
4.2044694e-27
4.2037985e-27
4.2035471e-27
4.2035241e-27
4.2036937e-27
4.2041642e-27
4.2052529e-27
4.2090249e-27
4.2031082e-27
4.2000603e-27
4.1985659e-27
4.197897e-27
4.1976479e-27
4.1976299e-27
4.1978128e-27
4.1983198e-27
4.1995169e-27
4.2059677e-27
4.2000603e-27
4.1970177e-27
4.195526e-27
4.194859e-27
4.1946125e-27
4.1946e-27
4.194795e-27
4.195326e-27
4.1965591e-27
4.2044694e-27
4.1985659e-27
4.195526e-27
4.1940361e-27
4.1933705e-27
4.1931259e-27
4.1931174e-27
4.1933198e-27
4.1938628e-27
4.1951087e-27
4.2037985e-27
4.197897e-27
4.194859e-27
4.1933705e-27
4.192706e-27
4.1924628e-27
4.1924564e-27
4.1926626e-27
4.1932109e-27
4.1944614e-27
4.2035471e-27
4.1976479e-27
4.1946125e-27
4.1931259e-27
4.1924628e-27
4.1922205e-27
4.1922154e-27
4.1924233e-27
4.1929738e-27
4.194226e-27
4.2035241e-27
4.1976299e-27
4.1946e-27
4.1931174e-27
4.1924564e-27
4.1922154e-27
4.192211e-27
4.1924197e-27
4.1929711e-27
4.194224e-27
4.2036937e-27
4.1978128e-27
4.194795e-27
4.1933198e-27
4.1926626e-27
4.1924233e-27
4.1924197e-27
4.192629e-27
4.1931809e-27
4.1944343e-27
4.2041642e-27
4.1983198e-27
4.195326e-27
4.1938628e-27
4.1932109e-27
4.1929738e-27
4.1929711e-27
4.1931809e-27
4.1937335e-27
4.1949879e-27
4.2052529e-27
4.1995169e-27
4.1965591e-27
4.1951087e-27
4.1944614e-27
4.194226e-27
4.194224e-27
4.1944343e-27
4.1949879e-27
4.1962462e-27
8.4620066e-27
8.4504575e-27
8.4444725e-27
8.4415315e-27
8.4402125e-27
8.4397176e-27
8.4396713e-27
8.440001e-27
8.4409146e-27
8.4430435e-27
8.4504575e-27
8.4389579e-27
8.4329908e-27
8.4300572e-27
8.4287422e-27
8.4282519e-27
8.4282156e-27
8.4285716e-27
8.4295582e-27
8.431904e-27
8.4444725e-27
8.4329908e-27
8.4270338e-27
8.4241056e-27
8.4227943e-27
8.4223091e-27
8.4222837e-27
8.422664e-27
8.4236985e-27
8.4261161e-27
8.4415315e-27
8.4300572e-27
8.4241056e-27
8.4211808e-27
8.4198723e-27
8.419391e-27
8.4193733e-27
8.4197685e-27
8.4208269e-27
8.42327e-27
8.4402125e-27
8.4287422e-27
8.4227943e-27
8.4198723e-27
8.418566e-27
8.4180873e-27
8.418074e-27
8.4184767e-27
8.4195456e-27
8.421998e-27
8.4397176e-27
8.4282519e-27
8.4223091e-27
8.419391e-27
8.4180873e-27
8.4176106e-27
8.4175998e-27
8.4180058e-27
8.4190791e-27
8.4215348e-27
8.4396713e-27
8.4282156e-27
8.4222837e-27
8.4193733e-27
8.418074e-27
8.4175998e-27
8.4175905e-27
8.4179982e-27
8.4190732e-27
8.4215303e-27
8.440001e-27
8.4285716e-27
8.422664e-27
8.4197685e-27
8.4184767e-27
8.4180058e-27
8.4179982e-27
8.418407e-27
8.419483e-27
8.4219411e-27
8.4409146e-27
8.4295582e-27
8.4236985e-27
8.4208269e-27
8.4195456e-27
8.4190791e-27
8.4190732e-27
8.419483e-27
8.4205603e-27
8.4230204e-27
8.4430435e-27
8.431904e-27
8.4261161e-27
8.42327e-27
8.421998e-27
8.4215348e-27
8.4215303e-27
8.4219411e-27
8.4230204e-27
8.4254881e-27
1.6818326e-26
1.6796112e-26
1.6784541e-26
1.677884e-26
1.6776279e-26
1.6775317e-26
1.6775225e-26
1.6775857e-26
1.6777603e-26
1.6781661e-26
1.6796112e-26
1.6773992e-26
1.6762455e-26
1.6756768e-26
1.6754215e-26
1.6753262e-26
1.6753189e-26
1.6753873e-26
1.6755764e-26
1.676025e-26
1.6784541e-26
1.6762455e-26
1.6750937e-26
1.6745261e-26
1.6742715e-26
1.6741772e-26
1.6741721e-26
1.6742453e-26
1.6744438e-26
1.6749066e-26
1.677884e-26
1.6756768e-26
1.6745261e-26
1.6739591e-26
1.6737051e-26
1.6736115e-26
1.6736079e-26
1.673684e-26
1.6738873e-26
1.6743552e-26
1.6776279e-26
1.6754215e-26
1.6742715e-26
1.6737051e-26
1.6734514e-26
1.6733584e-26
1.6733557e-26
1.6734333e-26
1.6736386e-26
1.6741083e-26
1.6775317e-26
1.6753262e-26
1.6741772e-26
1.6736115e-26
1.6733584e-26
1.6732658e-26
1.6732635e-26
1.6733418e-26
1.673548e-26
1.6740183e-26
1.6775225e-26
1.6753189e-26
1.6741721e-26
1.6736079e-26
1.6733557e-26
1.6732635e-26
1.6732616e-26
1.6733402e-26
1.6735467e-26
1.6740173e-26
1.6775857e-26
1.6753873e-26
1.6742453e-26
1.673684e-26
1.6734333e-26
1.6733418e-26
1.6733402e-26
1.673419e-26
1.6736257e-26
1.6740965e-26
1.6777603e-26
1.6755764e-26
1.6744438e-26
1.6738873e-26
1.6736386e-26
1.673548e-26
1.6735467e-26
1.6736257e-26
1.6738327e-26
1.6743039e-26
1.6781661e-26
1.676025e-26
1.6749066e-26
1.6743552e-26
1.6741083e-26
1.6740183e-26
1.6740173e-26
1.6740965e-26
1.6743039e-26
1.6747765e-26
3.3628548e-26
3.3585579e-26
3.3563099e-26
3.3551997e-26
3.3547002e-26
3.3545122e-26
3.3544937e-26
3.3546155e-26
3.3549505e-26
3.3557234e-26
3.3585579e-26
3.354279e-26
3.3520376e-26
3.35093e-26
3.350432e-26
3.3502459e-26
3.3502313e-26
3.3503633e-26
3.350727e-26
3.3515853e-26
3.3563099e-26
3.3520376e-26
3.3497999e-26
3.3486944e-26
3.3481978e-26
3.3480136e-26
3.3480032e-26
3.3481448e-26
3.3485272e-26
3.3494137e-26
3.3551997e-26
3.35093e-26
3.3486944e-26
3.3475901e-26
3.3470945e-26
3.3469119e-26
3.3469045e-26
3.3470519e-26
3.3474437e-26
3.3483402e-26
3.3547002e-26
3.350432e-26
3.3481978e-26
3.3470945e-26
3.3465999e-26
3.3464182e-26
3.3464126e-26
3.3465628e-26
3.3469587e-26
3.3478589e-26
3.3545122e-26
3.3502459e-26
3.3480136e-26
3.3469119e-26
3.3464182e-26
3.3462373e-26
3.3462326e-26
3.3463842e-26
3.3467818e-26
3.3476832e-26
3.3544937e-26
3.3502313e-26
3.3480032e-26
3.3469045e-26
3.3464126e-26
3.3462326e-26
3.3462286e-26
3.3463808e-26
3.3467791e-26
3.347681e-26
3.3546155e-26
3.3503633e-26
3.3481448e-26
3.3470519e-26
3.3465628e-26
3.3463842e-26
3.3463808e-26
3.3465335e-26
3.3469321e-26
3.3478344e-26
3.3549505e-26
3.350727e-26
3.3485272e-26
3.3474437e-26
3.3469587e-26
3.3467818e-26
3.3467791e-26
3.3469321e-26
3.3473312e-26
3.3482343e-26
3.3557234e-26
3.3515853e-26
3.3494137e-26
3.3483402e-26
3.3478589e-26
3.3476832e-26
3.347681e-26
3.3478344e-26
3.3482343e-26
3.3491401e-26
6.7932364e-26
6.7848429e-26
6.7804342e-26
6.7782513e-26
6.7772677e-26
6.7768971e-26
6.7768598e-26
6.7770965e-26
6.777745e-26
6.7792289e-26
6.7848429e-26
6.7764844e-26
6.7720882e-26
6.7699105e-26
6.7689299e-26
6.7685628e-26
6.7685332e-26
6.7687906e-26
6.7694966e-26
6.7711519e-26
6.7804342e-26
6.7720882e-26
6.7676993e-26
6.7655255e-26
6.7645477e-26
6.7641845e-26
6.7641635e-26
6.7644397e-26
6.7651834e-26
6.7668953e-26
6.7782513e-26
6.7699105e-26
6.7655255e-26
6.7633543e-26
6.7623785e-26
6.7620184e-26
6.7620034e-26
6.7622913e-26
6.7630536e-26
6.7647856e-26
6.7772677e-26
6.7689299e-26
6.7645477e-26
6.7623785e-26
6.7614044e-26
6.7610463e-26
6.7610347e-26
6.7613285e-26
6.7620991e-26
6.7638384e-26
6.7768971e-26
6.7685628e-26
6.7641845e-26
6.7620184e-26
6.7610463e-26
6.7606897e-26
6.76068e-26
6.7609765e-26
6.7617504e-26
6.7634923e-26
6.7768598e-26
6.7685332e-26
6.7641635e-26
6.7620034e-26
6.7610347e-26
6.76068e-26
6.7606716e-26
6.7609693e-26
6.7617446e-26
6.7634875e-26
6.7770965e-26
6.7687906e-26
6.7644397e-26
6.7622913e-26
6.7613285e-26
6.7609765e-26
6.7609693e-26
6.7612678e-26
6.7620439e-26
6.7637875e-26
6.777745e-26
6.7694966e-26
6.7651834e-26
6.7630536e-26
6.7620991e-26
6.7617504e-26
6.7617446e-26
6.7620439e-26
6.7628209e-26
6.764566e-26
6.7792289e-26
6.7711519e-26
6.7668953e-26
6.7647856e-26
6.7638384e-26
6.7634923e-26
6.7634875e-26
6.7637875e-26
6.764566e-26
6.7663162e-26
1.3879706e-25
1.3863131e-25
1.385439e-25
1.3850052e-25
1.3848094e-25
1.3847355e-25
1.3847279e-25
1.3847744e-25
1.3849013e-25
1.3851892e-25
1.3863131e-25
1.3846623e-25
1.3837907e-25
1.3833579e-25
1.3831627e-25
1.3830895e-25
1.3830835e-25
1.3831342e-25
1.3832728e-25
1.3835954e-25
1.385439e-25
1.3837907e-25
1.3829205e-25
1.3824885e-25
1.3822938e-25
1.3822214e-25
1.3822171e-25
1.3822717e-25
1.3824179e-25
1.382752e-25
1.3850052e-25
1.3833579e-25
1.3824885e-25
1.3820569e-25
1.3818627e-25
1.381791e-25
1.3817879e-25
1.3818448e-25
1.3819947e-25
1.3823329e-25
1.3848094e-25
1.3831627e-25
1.3822938e-25
1.3818627e-25
1.3816688e-25
1.3815975e-25
1.3815951e-25
1.3816532e-25
1.3818048e-25
1.3821445e-25
1.3847355e-25
1.3830895e-25
1.3822214e-25
1.381791e-25
1.3815975e-25
1.3815264e-25
1.3815244e-25
1.381583e-25
1.3817353e-25
1.3820756e-25
1.3847279e-25
1.3830835e-25
1.3822171e-25
1.3817879e-25
1.3815951e-25
1.3815244e-25
1.3815226e-25
1.3815815e-25
1.3817341e-25
1.3820745e-25
1.3847744e-25
1.3831342e-25
1.3822717e-25
1.3818448e-25
1.3816532e-25
1.381583e-25
1.3815815e-25
1.3816406e-25
1.3817933e-25
1.3821339e-25
1.3849013e-25
1.3832728e-25
1.3824179e-25
1.3819947e-25
1.3818048e-25
1.3817353e-25
1.3817341e-25
1.3817933e-25
1.3819462e-25
1.3822871e-25
1.3851892e-25
1.3835954e-25
1.382752e-25
1.3823329e-25
1.3821445e-25
1.3820756e-25
1.3820745e-25
1.3821339e-25
1.3822871e-25
1.3826289e-25
2.8692236e-25
2.865913e-25
2.8641606e-25
2.8632887e-25
2.8628947e-25
2.8627458e-25
2.8627302e-25
2.8628227e-25
2.8630738e-25
2.8636385e-25
2.865913e-25
2.8626159e-25
2.8608683e-25
2.8599985e-25
2.8596057e-25
2.8594582e-25
2.8594458e-25
2.8595468e-25
2.8598219e-25
2.8604579e-25
2.8641606e-25
2.8608683e-25
2.8591236e-25
2.8582553e-25
2.8578636e-25
2.8577177e-25
2.8577088e-25
2.8578177e-25
2.8581084e-25
2.858768e-25
2.8632887e-25
2.8599985e-25
2.8582553e-25
2.8573881e-25
2.8569971e-25
2.8568526e-25
2.8568461e-25
2.8569598e-25
2.8572583e-25
2.8579263e-25
2.8628947e-25
2.8596057e-25
2.8578636e-25
2.8569971e-25
2.8566069e-25
2.8564631e-25
2.8564581e-25
2.8565743e-25
2.8568761e-25
2.8575471e-25
2.8627458e-25
2.8594582e-25
2.8577177e-25
2.8568526e-25
2.8564631e-25
2.85632e-25
2.8563158e-25
2.8564331e-25
2.8567363e-25
2.8574084e-25
2.8627302e-25
2.8594458e-25
2.8577088e-25
2.8568461e-25
2.8564581e-25
2.8563158e-25
2.8563121e-25
2.8564299e-25
2.8567337e-25
2.8574062e-25
2.8628227e-25
2.8595468e-25
2.8578177e-25
2.8569598e-25
2.8565743e-25
2.8564331e-25
2.8564299e-25
2.856548e-25
2.8568521e-25
2.8575249e-25
2.8630738e-25
2.8598219e-25
2.8581084e-25
2.8572583e-25
2.8568761e-25
2.8567363e-25
2.8567337e-25
2.8568521e-25
2.8571565e-25
2.8578299e-25
2.8636385e-25
2.8604579e-25
2.858768e-25
2.8579263e-25
2.8575471e-25
2.8574084e-25
2.8574062e-25
2.8575249e-25
2.8578299e-25
2.8585052e-25
6.0018548e-25
5.995167e-25
5.9916136e-25
5.9898416e-25
5.9890396e-25
5.9887361e-25
5.9887036e-25
5.9888897e-25
5.9893925e-25
5.9905128e-25
5.995167e-25
5.9885063e-25
5.9849626e-25
5.9831947e-25
5.9823949e-25
5.9820944e-25
5.9820686e-25
5.9822724e-25
5.9828248e-25
5.9840934e-25
5.9916136e-25
5.9849626e-25
5.9814245e-25
5.9796597e-25
5.9788622e-25
5.9785651e-25
5.9785465e-25
5.9787665e-25
5.9793513e-25
5.9806688e-25
5.9898416e-25
5.9831947e-25
5.9796597e-25
5.9778969e-25
5.9771012e-25
5.9768066e-25
5.9767931e-25
5.9770231e-25
5.977624e-25
5.9789588e-25
5.9890396e-25
5.9823949e-25
5.9788622e-25
5.9771012e-25
5.9763068e-25
5.976014e-25
5.9760035e-25
5.9762385e-25
5.9768464e-25
5.9781875e-25
5.9887361e-25
5.9820944e-25
5.9785651e-25
5.9768066e-25
5.976014e-25
5.9757224e-25
5.9757135e-25
5.9759508e-25
5.9765616e-25
5.9779049e-25
5.9887036e-25
5.9820686e-25
5.9785465e-25
5.9767931e-25
5.9760035e-25
5.9757135e-25
5.9757057e-25
5.9759441e-25
5.976556e-25
5.9779002e-25
5.9888897e-25
5.9822724e-25
5.9787665e-25
5.9770231e-25
5.9762385e-25
5.9759508e-25
5.9759441e-25
5.9761831e-25
5.9767957e-25
5.9781405e-25
5.9893925e-25
5.9828248e-25
5.9793513e-25
5.977624e-25
5.9768464e-25
5.9765616e-25
5.976556e-25
5.9767957e-25
5.977409e-25
5.9787549e-25
5.9905128e-25
5.9840934e-25
5.9806688e-25
5.9789588e-25
5.9781875e-25
5.9779049e-25
5.9779002e-25
5.9781405e-25
5.9787549e-25
5.9801046e-25
1.2705033e-24
1.2691367e-24
1.2684079e-24
1.2680436e-24
1.2678785e-24
1.267816e-24
1.2678092e-24
1.267847e-24
1.2679489e-24
1.2681737e-24
1.2691367e-24
1.2677756e-24
1.2670488e-24
1.2666854e-24
1.2665207e-24
1.2664588e-24
1.2664533e-24
1.2664949e-24
1.2666072e-24
1.2668632e-24
1.2684079e-24
1.2670488e-24
1.2663231e-24
1.2659603e-24
1.2657961e-24
1.2657349e-24
1.265731e-24
1.265776e-24
1.265895e-24
1.2661613e-24
1.2680436e-24
1.2666854e-24
1.2659603e-24
1.2655979e-24
1.2654341e-24
1.2653734e-24
1.2653706e-24
1.2654176e-24
1.26554e-24
1.2658099e-24
1.2678785e-24
1.2665207e-24
1.2657961e-24
1.2654341e-24
1.2652706e-24
1.2652102e-24
1.265208e-24
1.2652561e-24
1.26538e-24
1.2656512e-24
1.267816e-24
1.2664588e-24
1.2657349e-24
1.2653734e-24
1.2652102e-24
1.2651501e-24
1.2651483e-24
1.2651969e-24
1.2653213e-24
1.265593e-24
1.2678092e-24
1.2664533e-24
1.265731e-24
1.2653706e-24
1.265208e-24
1.2651483e-24
1.2651466e-24
1.2651954e-24
1.2653202e-24
1.265592e-24
1.267847e-24
1.2664949e-24
1.265776e-24
1.2654176e-24
1.2652561e-24
1.2651969e-24
1.2651954e-24
1.2652444e-24
1.2653693e-24
1.2656412e-24
1.2679489e-24
1.2666072e-24
1.265895e-24
1.26554e-24
1.26538e-24
1.2653213e-24
1.2653202e-24
1.2653693e-24
1.2654943e-24
1.2657665e-24
1.2681737e-24
1.2668632e-24
1.2661613e-24
1.2658099e-24
1.2656512e-24
1.265593e-24
1.265592e-24
1.2656412e-24
1.2657665e-24
1.2660394e-24
2.7218184e-24
2.7189938e-24
2.7174818e-24
2.7167244e-24
2.7163806e-24
2.7162502e-24
2.7162357e-24
2.7163137e-24
2.7165225e-24
2.7169791e-24
2.7189938e-24
2.7161804e-24
2.7146725e-24
2.7139167e-24
2.7135739e-24
2.7134448e-24
2.7134333e-24
2.7135191e-24
2.71375e-24
2.7142728e-24
2.7174818e-24
2.7146725e-24
2.7131669e-24
2.7124125e-24
2.7120706e-24
2.711943e-24
2.7119347e-24
2.7120277e-24
2.712273e-24
2.7128175e-24
2.7167244e-24
2.7139167e-24
2.7124125e-24
2.7116589e-24
2.7113178e-24
2.7111913e-24
2.7111853e-24
2.7112827e-24
2.7115351e-24
2.7120874e-24
2.7163806e-24
2.7135739e-24
2.7120706e-24
2.7113178e-24
2.7109773e-24
2.7108515e-24
2.7108468e-24
2.7109465e-24
2.711202e-24
2.7117571e-24
2.7162502e-24
2.7134448e-24
2.711943e-24
2.7111913e-24
2.7108515e-24
2.7107264e-24
2.7107224e-24
2.7108231e-24
2.7110798e-24
2.7116359e-24
2.7162357e-24
2.7134333e-24
2.7119347e-24
2.7111853e-24
2.7108468e-24
2.7107224e-24
2.7107188e-24
2.71082e-24
2.7110773e-24
2.7116338e-24
2.7163137e-24
2.7135191e-24
2.7120277e-24
2.7112827e-24
2.7109465e-24
2.7108231e-24
2.71082e-24
2.7109215e-24
2.7111791e-24
2.7117358e-24
2.7165225e-24
2.71375e-24
2.712273e-24
2.7115351e-24
2.711202e-24
2.7110798e-24
2.7110773e-24
2.7111791e-24
2.7114369e-24
2.7119941e-24
2.7169791e-24
2.7142728e-24
2.7128175e-24
2.7120874e-24
2.7117571e-24
2.7116359e-24
2.7116338e-24
2.7117358e-24
2.7119941e-24
2.7125527e-24
5.9013942e-24
5.8954884e-24
5.8923156e-24
5.8907226e-24
5.8899984e-24
5.8897235e-24
5.8896925e-24
5.889855e-24
5.890288e-24
5.8912262e-24
5.8954884e-24
5.8896057e-24
5.8864412e-24
5.8848517e-24
5.8841296e-24
5.8838573e-24
5.8838327e-24
5.8840121e-24
5.8844925e-24
5.8855728e-24
5.8923156e-24
5.8864412e-24
5.8832816e-24
5.8816948e-24
5.8809748e-24
5.8807057e-24
5.880688e-24
5.8808828e-24
5.881394e-24
5.8825211e-24
5.8907226e-24
5.8848517e-24
5.8816948e-24
5.8801099e-24
5.8793914e-24
5.8791247e-24
5.8791119e-24
5.8793162e-24
5.8798427e-24
5.8809863e-24
5.8899984e-24
5.8841296e-24
5.8809748e-24
5.8793914e-24
5.8786742e-24
5.8784092e-24
5.8783991e-24
5.8786082e-24
5.8791414e-24
5.8802911e-24
5.8897235e-24
5.8838573e-24
5.8807057e-24
5.8791247e-24
5.8784092e-24
5.8781454e-24
5.8781368e-24
5.8783481e-24
5.878884e-24
5.8800358e-24
5.8896925e-24
5.8838327e-24
5.880688e-24
5.8791119e-24
5.8783991e-24
5.8781368e-24
5.8781293e-24
5.8783416e-24
5.8788786e-24
5.8800313e-24
5.889855e-24
5.8840121e-24
5.8808828e-24
5.8793162e-24
5.8786082e-24
5.8783481e-24
5.8783416e-24
5.8785545e-24
5.8790921e-24
5.8802453e-24
5.890288e-24
5.8844925e-24
5.881394e-24
5.8798427e-24
5.8791414e-24
5.878884e-24
5.8788786e-24
5.8790921e-24
5.8796303e-24
5.8807844e-24
5.8912262e-24
5.8855728e-24
5.8825211e-24
5.8809863e-24
5.8802911e-24
5.8800358e-24
5.8800313e-24
5.8802453e-24
5.8807844e-24
5.8819415e-24
1.2950222e-23
1.293773e-23
1.2930995e-23
1.2927606e-23
1.2926063e-23
1.2925477e-23
1.292541e-23
1.2925752e-23
1.2926661e-23
1.2928612e-23
1.293773e-23
1.2925286e-23
1.2918569e-23
1.2915187e-23
1.2913649e-23
1.2913068e-23
1.2913015e-23
1.2913395e-23
1.2914406e-23
1.2916665e-23
1.2930995e-23
1.2918569e-23
1.2911862e-23
1.2908486e-23
1.2906952e-23
1.2906378e-23
1.290634e-23
1.2906753e-23
1.2907831e-23
1.2910192e-23
1.2927606e-23
1.2915187e-23
1.2908486e-23
1.2905114e-23
1.2903583e-23
1.2903015e-23
1.2902987e-23
1.290342e-23
1.2904532e-23
1.2906929e-23
1.2926063e-23
1.2913649e-23
1.2906952e-23
1.2903583e-23
1.2902055e-23
1.290149e-23
1.2901469e-23
1.2901912e-23
1.2903039e-23
1.2905449e-23
1.2925477e-23
1.2913068e-23
1.2906378e-23
1.2903015e-23
1.290149e-23
1.2900928e-23
1.290091e-23
1.2901358e-23
1.290249e-23
1.2904905e-23
1.292541e-23
1.2913015e-23
1.290634e-23
1.2902987e-23
1.2901469e-23
1.290091e-23
1.2900894e-23
1.2901344e-23
1.2902479e-23
1.2904895e-23
1.2925752e-23
1.2913395e-23
1.2906753e-23
1.290342e-23
1.2901912e-23
1.2901358e-23
1.2901344e-23
1.2901796e-23
1.2902932e-23
1.2905349e-23
1.2926661e-23
1.2914406e-23
1.2907831e-23
1.2904532e-23
1.2903039e-23
1.290249e-23
1.2902479e-23
1.2902932e-23
1.2904069e-23
1.2906488e-23
1.2928612e-23
1.2916665e-23
1.2910192e-23
1.2906929e-23
1.2905449e-23
1.2904905e-23
1.2904895e-23
1.2905349e-23
1.2906488e-23
1.2908914e-23
2.8763227e-23
2.8736498e-23
2.8722037e-23
2.8714744e-23
2.871142e-23
2.8710155e-23
2.8710009e-23
2.871074e-23
2.871267e-23
2.8716773e-23
2.8736498e-23
2.8709872e-23
2.8695448e-23
2.868817e-23
2.8684856e-23
2.8683603e-23
2.8683487e-23
2.8684299e-23
2.8686455e-23
2.8691237e-23
2.8722037e-23
2.8695448e-23
2.8681045e-23
2.867378e-23
2.8670475e-23
2.8669237e-23
2.8669154e-23
2.8670039e-23
2.8672342e-23
2.8677347e-23
2.8714744e-23
2.868817e-23
2.867378e-23
2.8666524e-23
2.8663225e-23
2.8661999e-23
2.8661939e-23
2.866287e-23
2.8665245e-23
2.8670329e-23
2.871142e-23
2.8684856e-23
2.8670475e-23
2.8663225e-23
2.8659933e-23
2.8658715e-23
2.8658668e-23
2.8659621e-23
2.8662029e-23
2.8667141e-23
2.8710155e-23
2.8683603e-23
2.8669237e-23
2.8661999e-23
2.8658715e-23
2.8657503e-23
2.8657463e-23
2.8658427e-23
2.8660847e-23
2.866597e-23
2.8710009e-23
2.8683487e-23
2.8669154e-23
2.8661939e-23
2.8658668e-23
2.8657463e-23
2.8657428e-23
2.8658396e-23
2.8660822e-23
2.8665949e-23
2.871074e-23
2.8684299e-23
2.8670039e-23
2.866287e-23
2.8659621e-23
2.8658427e-23
2.8658396e-23
2.8659368e-23
2.8661796e-23
2.8666925e-23
2.871267e-23
2.8686455e-23
2.8672342e-23
2.8665245e-23
2.8662029e-23
2.8660847e-23
2.8660822e-23
2.8661796e-23
2.8664227e-23
2.866936e-23
2.8716773e-23
2.8691237e-23
2.8677347e-23
2.8670329e-23
2.8667141e-23
2.866597e-23
2.8665949e-23
2.8666925e-23
2.866936e-23
2.8674506e-23
6.4660976e-23
6.460312e-23
6.4571709e-23
6.4555835e-23
6.4548589e-23
6.454583e-23
6.4545508e-23
6.4547087e-23
6.4551234e-23
6.4559968e-23
6.460312e-23
6.4545485e-23
6.4514153e-23
6.4498312e-23
6.4491087e-23
6.4488355e-23
6.44881e-23
6.4489858e-23
6.4494508e-23
6.4504751e-23
6.4571709e-23
6.4514153e-23
6.4482869e-23
6.4467054e-23
6.4459849e-23
6.4457151e-23
6.4456968e-23
6.4458889e-23
6.4463865e-23
6.4474604e-23
6.4555835e-23
6.4498312e-23
6.4467054e-23
6.4451258e-23
6.444407e-23
6.4441396e-23
6.4441265e-23
6.4443286e-23
6.4448423e-23
6.4459337e-23
6.4548589e-23
6.4491087e-23
6.4459849e-23
6.444407e-23
6.4436894e-23
6.4434238e-23
6.4434136e-23
6.4436207e-23
6.4441415e-23
6.4452393e-23
6.454583e-23
6.4488355e-23
6.4457151e-23
6.4441396e-23
6.4434238e-23
6.4431595e-23
6.4431508e-23
6.4433603e-23
6.4438839e-23
6.444984e-23
6.4545508e-23
6.44881e-23
6.4456968e-23
6.4441265e-23
6.4434136e-23
6.4431508e-23
6.4431433e-23
6.4433538e-23
6.4438786e-23
6.4449796e-23
6.4547087e-23
6.4489858e-23
6.4458889e-23
6.4443286e-23
6.4436207e-23
6.4433603e-23
6.4433538e-23
6.443565e-23
6.4440904e-23
6.4451918e-23
6.4551234e-23
6.4494508e-23
6.4463865e-23
6.4448423e-23
6.4441415e-23
6.4438839e-23
6.4438786e-23
6.4440904e-23
6.4446164e-23
6.4457187e-23
6.4559968e-23
6.4504751e-23
6.4474604e-23
6.4459337e-23
6.4452393e-23
6.444984e-23
6.4449796e-23
6.4451918e-23
6.4457187e-23
6.4468238e-23
1.4712716e-22
1.4700048e-22
1.4693147e-22
1.4689652e-22
1.4688054e-22
1.4687445e-22
1.4687374e-22
1.4687719e-22
1.4688621e-22
1.4690502e-22
1.4700048e-22
1.4687428e-22
1.4680544e-22
1.4677056e-22
1.4675463e-22
1.467486e-22
1.4674803e-22
1.4675189e-22
1.4676204e-22
1.4678424e-22
1.4693147e-22
1.4680544e-22
1.467367e-22
1.4670188e-22
1.4668599e-22
1.4668004e-22
1.4667964e-22
1.4668386e-22
1.4669474e-22
1.4671806e-22
1.4689652e-22
1.4677056e-22
1.4670188e-22
1.466671e-22
1.4665125e-22
1.4664535e-22
1.4664506e-22
1.4664951e-22
1.4666075e-22
1.4668447e-22
1.4688054e-22
1.4675463e-22
1.4668599e-22
1.4665125e-22
1.4663543e-22
1.4662957e-22
1.4662935e-22
1.4663391e-22
1.4664531e-22
1.4666917e-22
1.4687445e-22
1.467486e-22
1.4668004e-22
1.4664535e-22
1.4662957e-22
1.4662374e-22
1.4662355e-22
1.4662816e-22
1.4663963e-22
1.4666354e-22
1.4687374e-22
1.4674803e-22
1.4667964e-22
1.4664506e-22
1.4662935e-22
1.4662355e-22
1.4662339e-22
1.4662802e-22
1.4663952e-22
1.4666345e-22
1.4687719e-22
1.4675189e-22
1.4668386e-22
1.4664951e-22
1.4663391e-22
1.4662816e-22
1.4662802e-22
1.4663267e-22
1.4664418e-22
1.4666812e-22
1.4688621e-22
1.4676204e-22
1.4669474e-22
1.4666075e-22
1.4664531e-22
1.4663963e-22
1.4663952e-22
1.4664418e-22
1.466557e-22
1.4667966e-22
1.4690502e-22
1.4678424e-22
1.4671806e-22
1.4668447e-22
1.4666917e-22
1.4666354e-22
1.4666345e-22
1.4666812e-22
1.4667966e-22
1.4670367e-22
3.3883343e-22
3.3855283e-22
3.3839946e-22
3.3832163e-22
3.3828601e-22
3.3827242e-22
3.382708e-22
3.3827844e-22
3.3829829e-22
3.3833929e-22
3.3855283e-22
3.3827329e-22
3.3812029e-22
3.3804262e-22
3.380071e-22
3.3799365e-22
3.3799237e-22
3.3800092e-22
3.3802334e-22
3.3807207e-22
3.3839946e-22
3.3812029e-22
3.3796752e-22
3.3788998e-22
3.3785456e-22
3.3784127e-22
3.3784037e-22
3.3784975e-22
3.3787384e-22
3.379251e-22
3.3832163e-22
3.3804262e-22
3.3788998e-22
3.3781252e-22
3.3777718e-22
3.3776403e-22
3.3776338e-22
3.3777328e-22
3.3779818e-22
3.3785034e-22
3.3828601e-22
3.380071e-22
3.3785456e-22
3.3777718e-22
3.3774191e-22
3.3772884e-22
3.3772835e-22
3.377385e-22
3.3776377e-22
3.3781625e-22
3.3827242e-22
3.3799365e-22
3.3784127e-22
3.3776403e-22
3.3772884e-22
3.3771584e-22
3.3771543e-22
3.3772569e-22
3.3775111e-22
3.3780371e-22
3.382708e-22
3.3799237e-22
3.3784037e-22
3.3776338e-22
3.3772835e-22
3.3771543e-22
3.3771507e-22
3.3772539e-22
3.3775086e-22
3.378035e-22
3.3827844e-22
3.3800092e-22
3.3784975e-22
3.3777328e-22
3.377385e-22
3.3772569e-22
3.3772539e-22
3.3773574e-22
3.3776125e-22
3.3781391e-22
3.3829829e-22
3.3802334e-22
3.3787384e-22
3.3779818e-22
3.3776377e-22
3.3775111e-22
3.3775086e-22
3.3776125e-22
3.3778678e-22
3.3783948e-22
3.3833929e-22
3.3807207e-22
3.379251e-22
3.3785034e-22
3.3781625e-22
3.3780371e-22
3.378035e-22
3.3781391e-22
3.3783948e-22
3.3789232e-22
7.8979431e-22
7.8916565e-22
7.8882089e-22
7.8864558e-22
7.8856525e-22
7.8853458e-22
7.8853091e-22
7.8854802e-22
7.8859223e-22
7.8868264e-22
7.8916565e-22
7.8853932e-22
7.881954e-22
7.8802044e-22
7.8794033e-22
7.8790998e-22
7.8790709e-22
7.8792629e-22
7.8797641e-22
7.8808461e-22
7.8882089e-22
7.881954e-22
7.8785199e-22
7.8767731e-22
7.8759743e-22
7.8756746e-22
7.8756542e-22
7.8758654e-22
7.8764048e-22
7.8775451e-22
7.8864558e-22
7.8802044e-22
7.8767731e-22
7.8750284e-22
7.8742314e-22
7.8739347e-22
7.8739203e-22
7.8741431e-22
7.8747015e-22
7.8758624e-22
7.8856525e-22
7.8794033e-22
7.8759743e-22
7.8742314e-22
7.8734361e-22
7.8731413e-22
7.8731303e-22
7.873359e-22
7.8739257e-22
7.8750941e-22
7.8853458e-22
7.8790998e-22
7.8756746e-22
7.8739347e-22
7.8731413e-22
7.872848e-22
7.8728389e-22
7.8730703e-22
7.8736403e-22
7.8748114e-22
7.8853091e-22
7.8790709e-22
7.8756542e-22
7.8739203e-22
7.8731303e-22
7.8728389e-22
7.872831e-22
7.8730636e-22
7.873635e-22
7.8748071e-22
7.8854802e-22
7.8792629e-22
7.8758654e-22
7.8741431e-22
7.873359e-22
7.8730703e-22
7.8730636e-22
7.873297e-22
7.8738691e-22
7.8750418e-22
7.8859223e-22
7.8797641e-22
7.8764048e-22
7.8747015e-22
7.8739257e-22
7.8736403e-22
7.873635e-22
7.8738691e-22
7.8744418e-22
7.8756154e-22
7.8868264e-22
7.8808461e-22
7.8775451e-22
7.8758624e-22
7.8750941e-22
7.8748114e-22
7.8748071e-22
7.8750418e-22
7.8756154e-22
7.8767918e-22
1.8632116e-21
1.8617869e-21
1.8610032e-21
1.8606038e-21
1.8604206e-21
1.8603506e-21
1.8603421e-21
1.8603809e-21
1.8604806e-21
1.8606823e-21
1.8617869e-21
1.8603676e-21
1.8595856e-21
1.8591871e-21
1.8590043e-21
1.8589351e-21
1.8589285e-21
1.8589721e-21
1.8590855e-21
1.8593286e-21
1.8610032e-21
1.8595856e-21
1.8588049e-21
1.8584069e-21
1.8582247e-21
1.8581563e-21
1.8581517e-21
1.8581998e-21
1.8583221e-21
1.8585788e-21
1.8606038e-21
1.8591871e-21
1.8584069e-21
1.8580095e-21
1.8578277e-21
1.85776e-21
1.8577567e-21
1.8578075e-21
1.8579342e-21
1.8581958e-21
1.8604206e-21
1.8590043e-21
1.8582247e-21
1.8578277e-21
1.8576463e-21
1.857579e-21
1.8575766e-21
1.8576287e-21
1.8577574e-21
1.8580206e-21
1.8603506e-21
1.8589351e-21
1.8581563e-21
1.85776e-21
1.857579e-21
1.8575121e-21
1.8575101e-21
1.8575629e-21
1.8576923e-21
1.8579562e-21
1.8603421e-21
1.8589285e-21
1.8581517e-21
1.8577567e-21
1.8575766e-21
1.8575101e-21
1.8575084e-21
1.8575615e-21
1.8576912e-21
1.8579553e-21
1.8603809e-21
1.8589721e-21
1.8581998e-21
1.8578075e-21
1.8576287e-21
1.8575629e-21
1.8575615e-21
1.8576147e-21
1.8577446e-21
1.8580089e-21
1.8604806e-21
1.8590855e-21
1.8583221e-21
1.8579342e-21
1.8577574e-21
1.8576923e-21
1.8576912e-21
1.8577446e-21
1.8578746e-21
1.8581391e-21
1.8606823e-21
1.8593286e-21
1.8585788e-21
1.8581958e-21
1.8580206e-21
1.8579562e-21
1.8579553e-21
1.8580089e-21
1.8581391e-21
1.8584041e-21
4.448473e-21
4.4452078e-21
4.4434056e-21
4.4424856e-21
4.442063e-21
4.4419014e-21
4.4418819e-21
4.4419708e-21
4.442198e-21
4.4426536e-21
4.4452078e-21
4.4419544e-21
4.4401566e-21
4.4392383e-21
4.4388169e-21
4.438657e-21
4.4386417e-21
4.4387421e-21
4.4390017e-21
4.4395547e-21
4.4434056e-21
4.4401566e-21
4.4383613e-21
4.4374445e-21
4.4370243e-21
4.4368665e-21
4.4368559e-21
4.4369667e-21
4.4372472e-21
4.4378322e-21
4.4424856e-21
4.4392383e-21
4.4374445e-21
4.4365288e-21
4.4361096e-21
4.4359534e-21
4.435946e-21
4.4360632e-21
4.4363541e-21
4.4369504e-21
4.442063e-21
4.4388169e-21
4.4370243e-21
4.4361096e-21
4.4356912e-21
4.4355361e-21
4.4355306e-21
4.435651e-21
4.4359464e-21
4.4365468e-21
4.4419014e-21
4.438657e-21
4.4368665e-21
4.4359534e-21
4.4355361e-21
4.4353818e-21
4.4353773e-21
4.4354991e-21
4.4357964e-21
4.4363983e-21
4.4418819e-21
4.4386417e-21
4.4368559e-21
4.435946e-21
4.4355306e-21
4.4353773e-21
4.4353735e-21
4.435496e-21
4.435794e-21
4.4363964e-21
4.4419708e-21
4.4387421e-21
4.4369667e-21
4.4360632e-21
4.435651e-21
4.4354991e-21
4.435496e-21
4.435619e-21
4.4359173e-21
4.43652e-21
4.442198e-21
4.4390017e-21
4.4372472e-21
4.4363541e-21
4.4359464e-21
4.4357964e-21
4.435794e-21
4.4359173e-21
4.436216e-21
4.4368191e-21
4.4426536e-21
4.4395547e-21
4.4378322e-21
4.4369504e-21
4.4365468e-21
4.4363983e-21
4.4363964e-21
4.43652e-21
4.4368191e-21
4.4374237e-21