/*--------------------------------*- C++ -*----------------------------------*\
| =========                 |                                                 |
| \\      /  F ield         | OpenFOAM: The Open Source CFD Toolbox           |
|  \\    /   O peration     | Version:  dev                                   |
|   \\  /    A nd           | Web:      www.OpenFOAM.org                      |
|    \\/     M anipulation  |                                                 |
\*---------------------------------------------------------------------------*/
FoamFile
{
    version     2.0;
    format      ascii;
    class       volScalarField;
    location    "50.995";
    object      A;
}
// * * * * * * * * * * * * * * * * * * * * * * * * * * * * * * * * * * * * * //

dimensions      [0 0 0 0 1 0 0];

internalField   nonuniform List<scalar> 
10000
(
1.5435313e-32
1.5403404e-32
1.5390497e-32
1.5385766e-32
1.538426e-32
1.5383871e-32
1.5383918e-32
1.5384428e-32
1.538605e-32
1.5390237e-32
1.5403404e-32
1.5371666e-32
1.5358812e-32
1.5354098e-32
1.5352598e-32
1.5352214e-32
1.5352275e-32
1.5352835e-32
1.5354621e-32
1.5359337e-32
1.5390497e-32
1.5358812e-32
1.5345982e-32
1.5341278e-32
1.5339782e-32
1.5339402e-32
1.5339475e-32
1.5340072e-32
1.534195e-32
1.5346828e-32
1.5385766e-32
1.5354098e-32
1.5341278e-32
1.5336578e-32
1.5335084e-32
1.5334706e-32
1.5334786e-32
1.53354e-32
1.5337315e-32
1.534224e-32
1.538426e-32
1.5352598e-32
1.5339782e-32
1.5335084e-32
1.533359e-32
1.5333214e-32
1.5333296e-32
1.5333917e-32
1.5335843e-32
1.5340781e-32
1.5383871e-32
1.5352214e-32
1.5339402e-32
1.5334706e-32
1.5333214e-32
1.5332838e-32
1.5332922e-32
1.5333544e-32
1.5335474e-32
1.5340415e-32
1.5383918e-32
1.5352275e-32
1.5339475e-32
1.5334786e-32
1.5333296e-32
1.5332922e-32
1.5333005e-32
1.5333628e-32
1.5335559e-32
1.5340502e-32
1.5384428e-32
1.5352835e-32
1.5340072e-32
1.53354e-32
1.5333917e-32
1.5333544e-32
1.5333628e-32
1.5334252e-32
1.5336183e-32
1.5341127e-32
1.538605e-32
1.5354621e-32
1.534195e-32
1.5337315e-32
1.5335843e-32
1.5335474e-32
1.5335559e-32
1.5336183e-32
1.5338117e-32
1.5343065e-32
1.5390237e-32
1.5359337e-32
1.5346828e-32
1.534224e-32
1.5340781e-32
1.5340415e-32
1.5340502e-32
1.5341127e-32
1.5343065e-32
1.5348027e-32
5.5690995e-32
5.5580139e-32
5.5534201e-32
5.5517331e-32
5.5511956e-32
5.5510567e-32
5.5510732e-32
5.5512543e-32
5.551831e-32
5.5533819e-32
5.5580139e-32
5.5469862e-32
5.5424109e-32
5.54073e-32
5.5401945e-32
5.5400574e-32
5.5400789e-32
5.5402777e-32
5.5409135e-32
5.5426561e-32
5.5534201e-32
5.5424109e-32
5.5378445e-32
5.5361669e-32
5.5356328e-32
5.5354972e-32
5.5355231e-32
5.5357352e-32
5.5364043e-32
5.5382049e-32
5.5517331e-32
5.54073e-32
5.5361669e-32
5.5344907e-32
5.5339573e-32
5.5338226e-32
5.5338508e-32
5.5340691e-32
5.5347513e-32
5.536569e-32
5.5511956e-32
5.5401945e-32
5.5356328e-32
5.5339573e-32
5.5334243e-32
5.5332899e-32
5.5333191e-32
5.5335397e-32
5.5342261e-32
5.5360485e-32
5.5510567e-32
5.5400574e-32
5.5354972e-32
5.5338226e-32
5.5332899e-32
5.5331558e-32
5.5331853e-32
5.5334066e-32
5.5340942e-32
5.5359178e-32
5.5510732e-32
5.5400789e-32
5.5355231e-32
5.5338508e-32
5.5333191e-32
5.5331853e-32
5.533215e-32
5.5334365e-32
5.5341245e-32
5.5359485e-32
5.5512543e-32
5.5402777e-32
5.5357352e-32
5.5340691e-32
5.5335397e-32
5.5334066e-32
5.5334365e-32
5.5336582e-32
5.5343465e-32
5.5361709e-32
5.551831e-32
5.5409135e-32
5.5364043e-32
5.5347513e-32
5.5342261e-32
5.5340942e-32
5.5341245e-32
5.5343465e-32
5.5350354e-32
5.5368613e-32
5.5533819e-32
5.5426561e-32
5.5382049e-32
5.536569e-32
5.5360485e-32
5.5359178e-32
5.5359485e-32
5.5361709e-32
5.5368613e-32
5.5386928e-32
1.3094343e-31
1.306911e-31
1.3058549e-31
1.3054661e-31
1.3053422e-31
1.3053101e-31
1.3053138e-31
1.3053551e-31
1.3054869e-31
1.305852e-31
1.306911e-31
1.3044008e-31
1.3033488e-31
1.3029615e-31
1.302838e-31
1.3028063e-31
1.3028112e-31
1.3028566e-31
1.3030022e-31
1.3034123e-31
1.3058549e-31
1.3033488e-31
1.3022988e-31
1.3019123e-31
1.3017891e-31
1.3017577e-31
1.3017637e-31
1.3018123e-31
1.3019656e-31
1.3023893e-31
1.3054661e-31
1.3029615e-31
1.3019123e-31
1.301526e-31
1.301403e-31
1.3013719e-31
1.3013783e-31
1.3014283e-31
1.3015848e-31
1.3020124e-31
1.3053422e-31
1.302838e-31
1.3017891e-31
1.301403e-31
1.30128e-31
1.301249e-31
1.3012556e-31
1.3013062e-31
1.3014637e-31
1.3018924e-31
1.3053101e-31
1.3028063e-31
1.3017577e-31
1.3013719e-31
1.301249e-31
1.301218e-31
1.3012247e-31
1.3012755e-31
1.3014332e-31
1.3018622e-31
1.3053138e-31
1.3028112e-31
1.3017637e-31
1.3013783e-31
1.3012556e-31
1.3012247e-31
1.3012315e-31
1.3012823e-31
1.3014401e-31
1.3018692e-31
1.3053551e-31
1.3028566e-31
1.3018123e-31
1.3014283e-31
1.3013062e-31
1.3012755e-31
1.3012823e-31
1.3013332e-31
1.3014911e-31
1.3019203e-31
1.3054869e-31
1.3030022e-31
1.3019656e-31
1.3015848e-31
1.3014637e-31
1.3014332e-31
1.3014401e-31
1.3014911e-31
1.3016491e-31
1.3020786e-31
1.305852e-31
1.3034123e-31
1.3023893e-31
1.3020124e-31
1.3018924e-31
1.3018622e-31
1.3018692e-31
1.3019203e-31
1.3020786e-31
1.3025095e-31
2.9113669e-31
2.9059342e-31
2.9036479e-31
2.9028047e-31
2.9025355e-31
2.9024657e-31
2.9024734e-31
2.9025621e-31
2.9028441e-31
2.9036291e-31
2.9059342e-31
2.900529e-31
2.8982517e-31
2.8974114e-31
2.8971432e-31
2.8970743e-31
2.8970846e-31
2.8971825e-31
2.897495e-31
2.8983796e-31
2.9036479e-31
2.8982517e-31
2.8959787e-31
2.8951401e-31
2.8948725e-31
2.8948044e-31
2.894817e-31
2.8949217e-31
2.8952514e-31
2.8961661e-31
2.9028047e-31
2.8974114e-31
2.8951401e-31
2.8943021e-31
2.8940349e-31
2.8939672e-31
2.893981e-31
2.8940889e-31
2.8944255e-31
2.895349e-31
2.9025355e-31
2.8971432e-31
2.8948725e-31
2.8940349e-31
2.8937679e-31
2.8937004e-31
2.8937147e-31
2.8938237e-31
2.8941625e-31
2.8950884e-31
2.9024657e-31
2.8970743e-31
2.8948044e-31
2.8939672e-31
2.8937004e-31
2.893633e-31
2.8936475e-31
2.8937569e-31
2.8940963e-31
2.8950228e-31
2.9024734e-31
2.8970846e-31
2.894817e-31
2.893981e-31
2.8937147e-31
2.8936475e-31
2.893662e-31
2.8937716e-31
2.8941111e-31
2.8950379e-31
2.9025621e-31
2.8971825e-31
2.8949217e-31
2.8940889e-31
2.8938237e-31
2.8937569e-31
2.8937716e-31
2.8938812e-31
2.8942209e-31
2.8951478e-31
2.9028441e-31
2.897495e-31
2.8952514e-31
2.8944255e-31
2.8941625e-31
2.8940963e-31
2.8941111e-31
2.8942209e-31
2.8945609e-31
2.8954885e-31
2.9036291e-31
2.8983796e-31
2.8961661e-31
2.895349e-31
2.8950884e-31
2.8950228e-31
2.8950379e-31
2.8951478e-31
2.8954885e-31
2.8964192e-31
6.4680906e-31
6.4564054e-31
6.4514694e-31
6.4496454e-31
6.4490622e-31
6.4489108e-31
6.448927e-31
6.4491165e-31
6.4497166e-31
6.4513805e-31
6.4564054e-31
6.4447788e-31
6.4398619e-31
6.4380441e-31
6.4374631e-31
6.4373137e-31
6.4373355e-31
6.4375452e-31
6.4382129e-31
6.4400969e-31
6.4514694e-31
6.4398619e-31
6.4349541e-31
6.4331399e-31
6.4325603e-31
6.4324126e-31
6.4324395e-31
6.4326642e-31
6.4333699e-31
6.4353202e-31
6.4496454e-31
6.4380441e-31
6.4331399e-31
6.4313272e-31
6.4307484e-31
6.4306016e-31
6.4306311e-31
6.4308629e-31
6.4315835e-31
6.4335534e-31
6.4490622e-31
6.4374631e-31
6.4325603e-31
6.4307484e-31
6.43017e-31
6.4300236e-31
6.4300541e-31
6.4302886e-31
6.431014e-31
6.4329893e-31
6.4489108e-31
6.4373137e-31
6.4324126e-31
6.4306016e-31
6.4300236e-31
6.4298775e-31
6.4299084e-31
6.4301437e-31
6.4308705e-31
6.4328471e-31
6.448927e-31
6.4373355e-31
6.4324395e-31
6.4306311e-31
6.4300541e-31
6.4299084e-31
6.4299396e-31
6.4301751e-31
6.4309023e-31
6.4328793e-31
6.4491165e-31
6.4375452e-31
6.4326642e-31
6.4308629e-31
6.4302886e-31
6.4301437e-31
6.4301751e-31
6.4304108e-31
6.4311383e-31
6.4331157e-31
6.4497166e-31
6.4382129e-31
6.4333699e-31
6.4315835e-31
6.431014e-31
6.4308705e-31
6.4309023e-31
6.4311383e-31
6.4318665e-31
6.4338454e-31
6.4513805e-31
6.4400969e-31
6.4353202e-31
6.4335534e-31
6.4329893e-31
6.4328471e-31
6.4328793e-31
6.4331157e-31
6.4338454e-31
6.4358307e-31
1.4520197e-30
1.449481e-30
1.4484052e-30
1.4480069e-30
1.4478794e-30
1.4478462e-30
1.4478496e-30
1.4478905e-30
1.4480193e-30
1.448374e-30
1.449481e-30
1.446955e-30
1.4458832e-30
1.4454863e-30
1.4453592e-30
1.4453265e-30
1.4453312e-30
1.4453765e-30
1.4455204e-30
1.4459243e-30
1.4484052e-30
1.4458832e-30
1.4448134e-30
1.4444172e-30
1.4442905e-30
1.4442582e-30
1.4442639e-30
1.4443127e-30
1.444465e-30
1.4448837e-30
1.4480069e-30
1.4454863e-30
1.4444172e-30
1.4440214e-30
1.4438948e-30
1.4438627e-30
1.443869e-30
1.4439193e-30
1.444075e-30
1.444498e-30
1.4478794e-30
1.4453592e-30
1.4442905e-30
1.4438948e-30
1.4437683e-30
1.4437363e-30
1.4437429e-30
1.4437937e-30
1.4439505e-30
1.4443747e-30
1.4478462e-30
1.4453265e-30
1.4442582e-30
1.4438627e-30
1.4437363e-30
1.4437043e-30
1.443711e-30
1.443762e-30
1.4439191e-30
1.4443436e-30
1.4478496e-30
1.4453312e-30
1.4442639e-30
1.443869e-30
1.4437429e-30
1.443711e-30
1.4437177e-30
1.4437688e-30
1.443926e-30
1.4443506e-30
1.4478905e-30
1.4453765e-30
1.4443127e-30
1.4439193e-30
1.4437937e-30
1.443762e-30
1.4437688e-30
1.44382e-30
1.4439772e-30
1.4444019e-30
1.4480193e-30
1.4455204e-30
1.444465e-30
1.444075e-30
1.4439505e-30
1.4439191e-30
1.443926e-30
1.4439772e-30
1.4441346e-30
1.4445596e-30
1.448374e-30
1.4459243e-30
1.4448837e-30
1.444498e-30
1.4443747e-30
1.4443436e-30
1.4443506e-30
1.4444019e-30
1.4445596e-30
1.4449859e-30
3.301548e-30
3.2959642e-30
3.2935904e-30
3.29271e-30
3.2924278e-30
3.2923543e-30
3.2923615e-30
3.2924507e-30
3.2927307e-30
3.2934954e-30
3.2959642e-30
3.2904077e-30
3.2880428e-30
3.2871653e-30
3.2868842e-30
3.2868116e-30
3.2868217e-30
3.286921e-30
3.287235e-30
3.2881109e-30
3.2935904e-30
3.2880428e-30
3.2856822e-30
3.2848064e-30
3.284526e-30
3.2844543e-30
3.2844668e-30
3.2845738e-30
3.2849068e-30
3.2858161e-30
3.29271e-30
3.2871653e-30
3.2848064e-30
3.2839313e-30
3.2836512e-30
3.28358e-30
3.2835939e-30
3.2837044e-30
3.2840449e-30
3.284964e-30
3.2924278e-30
3.2868842e-30
3.284526e-30
3.2836512e-30
3.2833713e-30
3.2833003e-30
3.2833147e-30
3.2834265e-30
3.2837695e-30
3.2846913e-30
3.2923543e-30
3.2868116e-30
3.2844543e-30
3.28358e-30
3.2833003e-30
3.2832294e-30
3.283244e-30
3.2833562e-30
3.2836999e-30
3.2846224e-30
3.2923615e-30
3.2868217e-30
3.2844668e-30
3.2835939e-30
3.2833147e-30
3.283244e-30
3.2832588e-30
3.2833711e-30
3.283715e-30
3.2846376e-30
3.2924507e-30
3.286921e-30
3.2845738e-30
3.2837044e-30
3.2834265e-30
3.2833562e-30
3.2833711e-30
3.2834835e-30
3.2838275e-30
3.2847504e-30
3.2927307e-30
3.287235e-30
3.2849068e-30
3.2840449e-30
3.2837695e-30
3.2836999e-30
3.283715e-30
3.2838275e-30
3.2841718e-30
3.2850954e-30
3.2934954e-30
3.2881109e-30
3.2858161e-30
3.284964e-30
3.2846913e-30
3.2846224e-30
3.2846376e-30
3.2847504e-30
3.2850954e-30
3.2860218e-30
7.6076013e-30
7.59516e-30
7.5898549e-30
7.5878839e-30
7.5872514e-30
7.5870864e-30
7.5871019e-30
7.5872991e-30
7.5879154e-30
7.589585e-30
7.59516e-30
7.5827792e-30
7.5774937e-30
7.575529e-30
7.5748988e-30
7.5747359e-30
7.574758e-30
7.5749784e-30
7.5756725e-30
7.5775966e-30
7.5898549e-30
7.5774937e-30
7.5722177e-30
7.5702567e-30
7.5696281e-30
7.5694671e-30
7.5694949e-30
7.5697327e-30
7.5704703e-30
7.5724708e-30
7.5878839e-30
7.575529e-30
7.5702567e-30
7.5682974e-30
7.5676695e-30
7.5675096e-30
7.5675404e-30
7.5677863e-30
7.5685411e-30
7.5705641e-30
7.5872514e-30
7.5748988e-30
7.5696281e-30
7.5676695e-30
7.5670421e-30
7.5668827e-30
7.5669147e-30
7.5671635e-30
7.5679238e-30
7.5699531e-30
7.5870864e-30
7.5747359e-30
7.5694671e-30
7.5675096e-30
7.5668827e-30
7.5667236e-30
7.5667561e-30
7.5670058e-30
7.5677677e-30
7.5697985e-30
7.5871019e-30
7.574758e-30
7.5694949e-30
7.5675404e-30
7.5669147e-30
7.5667561e-30
7.5667888e-30
7.5670388e-30
7.5678011e-30
7.5698324e-30
7.5872991e-30
7.5749784e-30
7.5697327e-30
7.5677863e-30
7.5671635e-30
7.5670058e-30
7.5670388e-30
7.567289e-30
7.5680517e-30
7.5700834e-30
7.5879154e-30
7.5756725e-30
7.5704703e-30
7.5685411e-30
7.5679238e-30
7.5677677e-30
7.5678011e-30
7.5680517e-30
7.568815e-30
7.5708482e-30
7.589585e-30
7.5775966e-30
7.5724708e-30
7.5705641e-30
7.5699531e-30
7.5697985e-30
7.5698324e-30
7.5700834e-30
7.5708482e-30
7.5728876e-30
1.7767857e-29
1.7739773e-29
1.7727762e-29
1.7723292e-29
1.7721855e-29
1.772148e-29
1.7721514e-29
1.7721956e-29
1.772333e-29
1.7727024e-29
1.7739773e-29
1.7711824e-29
1.7699857e-29
1.76954e-29
1.7693969e-29
1.7693599e-29
1.7693648e-29
1.7694144e-29
1.7695698e-29
1.7699982e-29
1.7727762e-29
1.7699857e-29
1.7687911e-29
1.7683463e-29
1.7682035e-29
1.7681669e-29
1.7681731e-29
1.7682267e-29
1.7683923e-29
1.7688384e-29
1.7723292e-29
1.76954e-29
1.7683463e-29
1.7679018e-29
1.7677593e-29
1.7677229e-29
1.7677298e-29
1.7677853e-29
1.7679548e-29
1.7684061e-29
1.7721855e-29
1.7693969e-29
1.7682035e-29
1.7677593e-29
1.7676168e-29
1.7675805e-29
1.7675877e-29
1.7676439e-29
1.7678147e-29
1.7682674e-29
1.772148e-29
1.7693599e-29
1.7681669e-29
1.7677229e-29
1.7675805e-29
1.7675444e-29
1.7675517e-29
1.767608e-29
1.7677792e-29
1.7682323e-29
1.7721514e-29
1.7693648e-29
1.7681731e-29
1.7677298e-29
1.7675877e-29
1.7675517e-29
1.767559e-29
1.7676155e-29
1.7677867e-29
1.7682399e-29
1.7721956e-29
1.7694144e-29
1.7682267e-29
1.7677853e-29
1.7676439e-29
1.767608e-29
1.7676155e-29
1.7676719e-29
1.7678433e-29
1.7682966e-29
1.772333e-29
1.7695698e-29
1.7683923e-29
1.7679548e-29
1.7678147e-29
1.7677792e-29
1.7677867e-29
1.7678433e-29
1.7680148e-29
1.7684684e-29
1.7727024e-29
1.7699982e-29
1.7688384e-29
1.7684061e-29
1.7682674e-29
1.7682323e-29
1.7682399e-29
1.7682966e-29
1.7684684e-29
1.7689234e-29
4.2064593e-29
4.2000361e-29
4.1972809e-29
4.1962537e-29
4.1959233e-29
4.1958368e-29
4.1958443e-29
4.1959447e-29
4.1962554e-29
4.1970833e-29
4.2000361e-29
4.1936434e-29
4.1908981e-29
4.1898741e-29
4.1895449e-29
4.1894596e-29
4.1894706e-29
4.1895836e-29
4.1899366e-29
4.1909032e-29
4.1972809e-29
4.1908981e-29
4.1881577e-29
4.1871355e-29
4.1868071e-29
4.1867228e-29
4.1867369e-29
4.1868593e-29
4.187236e-29
4.1882442e-29
4.1962537e-29
4.1898741e-29
4.1871355e-29
4.1861142e-29
4.1857862e-29
4.1857025e-29
4.1857183e-29
4.185845e-29
4.186231e-29
4.1872515e-29
4.1959233e-29
4.1895449e-29
4.1868071e-29
4.1857862e-29
4.1854584e-29
4.185375e-29
4.1853914e-29
4.1855197e-29
4.1859087e-29
4.1869326e-29
4.1958368e-29
4.1894596e-29
4.1867228e-29
4.1857025e-29
4.185375e-29
4.1852917e-29
4.1853084e-29
4.1854372e-29
4.185827e-29
4.1868517e-29
4.1958443e-29
4.1894706e-29
4.1867369e-29
4.1857183e-29
4.1853914e-29
4.1853084e-29
4.1853251e-29
4.1854542e-29
4.1858442e-29
4.1868692e-29
4.1959447e-29
4.1895836e-29
4.1868593e-29
4.185845e-29
4.1855197e-29
4.1854372e-29
4.1854542e-29
4.1855833e-29
4.1859735e-29
4.1869987e-29
4.1962554e-29
4.1899366e-29
4.187236e-29
4.186231e-29
4.1859087e-29
4.185827e-29
4.1858442e-29
4.1859735e-29
4.1863641e-29
4.18739e-29
4.1970833e-29
4.1909032e-29
4.1882442e-29
4.1872515e-29
4.1869326e-29
4.1868517e-29
4.1868692e-29
4.1869987e-29
4.18739e-29
4.1884189e-29
1.0095321e-28
1.0080436e-28
1.0074032e-28
1.0071641e-28
1.0070871e-28
1.0070669e-28
1.0070686e-28
1.0070917e-28
1.0071628e-28
1.0073509e-28
1.0080436e-28
1.006562e-28
1.005924e-28
1.0056855e-28
1.0056088e-28
1.0055889e-28
1.0055914e-28
1.0056175e-28
1.0056987e-28
1.0059198e-28
1.0074032e-28
1.005924e-28
1.005287e-28
1.005049e-28
1.0049725e-28
1.0049528e-28
1.004956e-28
1.0049844e-28
1.0050712e-28
1.0053022e-28
1.0071641e-28
1.0056855e-28
1.005049e-28
1.0048112e-28
1.0047348e-28
1.0047152e-28
1.0047189e-28
1.0047482e-28
1.0048373e-28
1.0050712e-28
1.0070871e-28
1.0056088e-28
1.0049725e-28
1.0047348e-28
1.0046584e-28
1.0046389e-28
1.0046427e-28
1.0046724e-28
1.0047622e-28
1.0049969e-28
1.0070669e-28
1.0055889e-28
1.0049528e-28
1.0047152e-28
1.0046389e-28
1.0046195e-28
1.0046233e-28
1.0046532e-28
1.0047432e-28
1.0049781e-28
1.0070686e-28
1.0055914e-28
1.004956e-28
1.0047189e-28
1.0046427e-28
1.0046233e-28
1.0046272e-28
1.0046571e-28
1.0047472e-28
1.0049821e-28
1.0070917e-28
1.0056175e-28
1.0049844e-28
1.0047482e-28
1.0046724e-28
1.0046532e-28
1.0046571e-28
1.004687e-28
1.0047771e-28
1.0050121e-28
1.0071628e-28
1.0056987e-28
1.0050712e-28
1.0048373e-28
1.0047622e-28
1.0047432e-28
1.0047472e-28
1.0047771e-28
1.0048673e-28
1.0051025e-28
1.0073509e-28
1.0059198e-28
1.0053022e-28
1.0050712e-28
1.0049969e-28
1.0049781e-28
1.0049821e-28
1.0050121e-28
1.0051025e-28
1.0053383e-28
2.4562239e-28
2.4527284e-28
2.4512204e-28
2.4506563e-28
2.4504744e-28
2.4504267e-28
2.4504305e-28
2.4504844e-28
2.4506497e-28
2.4510827e-28
2.4527284e-28
2.4492492e-28
2.4477465e-28
2.447184e-28
2.4470028e-28
2.4469557e-28
2.4469616e-28
2.4470227e-28
2.4472122e-28
2.4477248e-28
2.4512204e-28
2.4477465e-28
2.4462463e-28
2.4456849e-28
2.4455041e-28
2.4454576e-28
2.4454652e-28
2.4455317e-28
2.4457348e-28
2.4462713e-28
2.4506563e-28
2.447184e-28
2.4456849e-28
2.445124e-28
2.4449434e-28
2.4448973e-28
2.4449058e-28
2.4449748e-28
2.4451832e-28
2.4457267e-28
2.4504744e-28
2.4470028e-28
2.4455041e-28
2.4449434e-28
2.444763e-28
2.444717e-28
2.4447259e-28
2.4447958e-28
2.4450059e-28
2.4455514e-28
2.4504267e-28
2.4469557e-28
2.4454576e-28
2.4448973e-28
2.444717e-28
2.4446711e-28
2.4446801e-28
2.4447503e-28
2.4449609e-28
2.4455068e-28
2.4504305e-28
2.4469616e-28
2.4454652e-28
2.4449058e-28
2.4447259e-28
2.4446801e-28
2.4446892e-28
2.4447595e-28
2.4449702e-28
2.4455163e-28
2.4504844e-28
2.4470227e-28
2.4455317e-28
2.4449748e-28
2.4447958e-28
2.4447503e-28
2.4447595e-28
2.4448298e-28
2.4450406e-28
2.4455869e-28
2.4506497e-28
2.4472122e-28
2.4457348e-28
2.4451832e-28
2.4450059e-28
2.4449609e-28
2.4449702e-28
2.4450406e-28
2.4452516e-28
2.4457982e-28
2.4510827e-28
2.4477248e-28
2.4462713e-28
2.4457267e-28
2.4455514e-28
2.4455068e-28
2.4455163e-28
2.4455869e-28
2.4457982e-28
2.4463464e-28
6.0586847e-28
6.050367e-28
6.0467687e-28
6.0454204e-28
6.0449853e-28
6.0448709e-28
6.0448797e-28
6.0450072e-28
6.0453961e-28
6.0464064e-28
6.050367e-28
6.0420877e-28
6.0385018e-28
6.0371574e-28
6.0367238e-28
6.036611e-28
6.0366247e-28
6.0367698e-28
6.037218e-28
6.038423e-28
6.0467687e-28
6.0385018e-28
6.0349219e-28
6.03358e-28
6.0331474e-28
6.0330361e-28
6.0330541e-28
6.0332122e-28
6.0336935e-28
6.0349568e-28
6.0454204e-28
6.0371574e-28
6.03358e-28
6.0322391e-28
6.0318071e-28
6.0316966e-28
6.0317168e-28
6.0318811e-28
6.0323753e-28
6.0336559e-28
6.0449853e-28
6.0367238e-28
6.0331474e-28
6.0318071e-28
6.0313754e-28
6.0312652e-28
6.0312864e-28
6.0314529e-28
6.0319513e-28
6.0332366e-28
6.0448709e-28
6.036611e-28
6.0330361e-28
6.0316966e-28
6.0312652e-28
6.0311552e-28
6.0311767e-28
6.031344e-28
6.0318436e-28
6.03313e-28
6.0448797e-28
6.0366247e-28
6.0330541e-28
6.0317168e-28
6.0312864e-28
6.0311767e-28
6.0311984e-28
6.0313659e-28
6.0318658e-28
6.0331526e-28
6.0450072e-28
6.0367698e-28
6.0332122e-28
6.0318811e-28
6.0314529e-28
6.031344e-28
6.0313659e-28
6.0315335e-28
6.0320336e-28
6.0333207e-28
6.0453961e-28
6.037218e-28
6.0336935e-28
6.0323753e-28
6.0319513e-28
6.0318436e-28
6.0318658e-28
6.0320336e-28
6.0325342e-28
6.0338221e-28
6.0464064e-28
6.038423e-28
6.0349568e-28
6.0336559e-28
6.0332366e-28
6.03313e-28
6.0331526e-28
6.0333207e-28
6.0338221e-28
6.0351136e-28
1.5151834e-27
1.5131778e-27
1.5123078e-27
1.5119813e-27
1.5118758e-27
1.511848e-27
1.5118501e-27
1.5118806e-27
1.5119734e-27
1.5122124e-27
1.5131778e-27
1.5111814e-27
1.5103143e-27
1.5099887e-27
1.5098836e-27
1.5098562e-27
1.5098595e-27
1.5098944e-27
1.5100018e-27
1.510289e-27
1.5123078e-27
1.5103143e-27
1.5094487e-27
1.5091237e-27
1.5090188e-27
1.5089918e-27
1.5089961e-27
1.5090342e-27
1.5091499e-27
1.5094515e-27
1.5119813e-27
1.5099887e-27
1.5091237e-27
1.5087989e-27
1.5086942e-27
1.5086673e-27
1.5086722e-27
1.5087119e-27
1.5088307e-27
1.5091366e-27
1.5118758e-27
1.5098836e-27
1.5090188e-27
1.5086942e-27
1.5085895e-27
1.5085628e-27
1.5085679e-27
1.5086081e-27
1.508728e-27
1.509035e-27
1.511848e-27
1.5098562e-27
1.5089918e-27
1.5086673e-27
1.5085628e-27
1.5085361e-27
1.5085413e-27
1.5085817e-27
1.5087018e-27
1.5090092e-27
1.5118501e-27
1.5098595e-27
1.5089961e-27
1.5086722e-27
1.5085679e-27
1.5085413e-27
1.5085465e-27
1.5085869e-27
1.5087072e-27
1.5090146e-27
1.5118806e-27
1.5098944e-27
1.5090342e-27
1.5087119e-27
1.5086081e-27
1.5085817e-27
1.5085869e-27
1.5086274e-27
1.5087477e-27
1.5090552e-27
1.5119734e-27
1.5100018e-27
1.5091499e-27
1.5088307e-27
1.508728e-27
1.5087018e-27
1.5087072e-27
1.5087477e-27
1.5088681e-27
1.5091758e-27
1.5122124e-27
1.510289e-27
1.5094515e-27
1.5091366e-27
1.509035e-27
1.5090092e-27
1.5090146e-27
1.5090552e-27
1.5091758e-27
1.5094843e-27
3.8418273e-27
3.8369267e-27
3.8347951e-27
3.8339938e-27
3.8337347e-27
3.8336664e-27
3.8336712e-27
3.8337455e-27
3.8339699e-27
3.8345427e-27
3.8369267e-27
3.8320483e-27
3.8299238e-27
3.8291248e-27
3.8288665e-27
3.8287992e-27
3.8288071e-27
3.8288923e-27
3.8291534e-27
3.8298473e-27
3.8347951e-27
3.8299238e-27
3.8278028e-27
3.8270052e-27
3.8267476e-27
3.8266812e-27
3.8266917e-27
3.826785e-27
3.8270666e-27
3.8277967e-27
3.8339938e-27
3.8291248e-27
3.8270052e-27
3.8262083e-27
3.825951e-27
3.825885e-27
3.825897e-27
3.8259941e-27
3.8262838e-27
3.8270245e-27
3.8337347e-27
3.8288665e-27
3.8267476e-27
3.825951e-27
3.8256938e-27
3.8256281e-27
3.8256406e-27
3.8257391e-27
3.8260314e-27
3.8267751e-27
3.8336664e-27
3.8287992e-27
3.8266812e-27
3.825885e-27
3.8256281e-27
3.8255625e-27
3.8255752e-27
3.8256741e-27
3.8259672e-27
3.8267116e-27
3.8336712e-27
3.8288071e-27
3.8266917e-27
3.825897e-27
3.8256406e-27
3.8255752e-27
3.8255881e-27
3.8256871e-27
3.8259803e-27
3.826725e-27
3.8337455e-27
3.8288923e-27
3.826785e-27
3.8259941e-27
3.8257391e-27
3.8256741e-27
3.8256871e-27
3.8257862e-27
3.8260796e-27
3.8268244e-27
3.8339699e-27
3.8291534e-27
3.8270666e-27
3.8262838e-27
3.8260314e-27
3.8259672e-27
3.8259803e-27
3.8260796e-27
3.8263732e-27
3.8271185e-27
3.8345427e-27
3.8298473e-27
3.8277967e-27
3.8270245e-27
3.8267751e-27
3.8267116e-27
3.826725e-27
3.8268244e-27
3.8271185e-27
3.8278657e-27
9.8764451e-27
9.8643112e-27
9.8590193e-27
9.8570269e-27
9.856382e-27
9.8562119e-27
9.8562235e-27
9.8564065e-27
9.8569565e-27
9.8583484e-27
9.8643112e-27
9.8522316e-27
9.8469571e-27
9.8449704e-27
9.8443276e-27
9.8441599e-27
9.8441792e-27
9.8443899e-27
9.8450334e-27
9.8467332e-27
9.8590193e-27
9.8469571e-27
9.8416913e-27
9.8397081e-27
9.8390668e-27
9.8389013e-27
9.8389274e-27
9.8391587e-27
9.8398542e-27
9.8416461e-27
9.8570269e-27
9.8449704e-27
9.8397081e-27
9.8377264e-27
9.8370859e-27
9.8369216e-27
9.8369513e-27
9.8371922e-27
9.8379082e-27
9.8397271e-27
9.856382e-27
9.8443276e-27
9.8390668e-27
9.8370859e-27
9.8364459e-27
9.8362822e-27
9.8363133e-27
9.8365577e-27
9.8372803e-27
9.8391067e-27
9.8562119e-27
9.8441599e-27
9.8389013e-27
9.8369216e-27
9.8362822e-27
9.8361188e-27
9.8361504e-27
9.8363959e-27
9.8371204e-27
9.8389487e-27
9.8562235e-27
9.8441792e-27
9.8389274e-27
9.8369513e-27
9.8363133e-27
9.8361504e-27
9.8361823e-27
9.8364282e-27
9.8371532e-27
9.838982e-27
9.8564065e-27
9.8443899e-27
9.8391587e-27
9.8371922e-27
9.8365577e-27
9.8363959e-27
9.8364282e-27
9.8366743e-27
9.8373996e-27
9.8392287e-27
9.8569565e-27
9.8450334e-27
9.8398542e-27
9.8379082e-27
9.8372803e-27
9.8371204e-27
9.8371532e-27
9.8373996e-27
9.8381255e-27
9.8399558e-27
9.8583484e-27
9.8467332e-27
9.8416461e-27
9.8397271e-27
9.8391067e-27
9.8389487e-27
9.838982e-27
9.8392287e-27
9.8399558e-27
9.841791e-27
2.5742634e-26
2.5712191e-26
2.5698879e-26
2.569386e-26
2.5692233e-26
2.5691804e-26
2.5691832e-26
2.5692289e-26
2.5693656e-26
2.5697084e-26
2.5712191e-26
2.5681882e-26
2.5668614e-26
2.5663608e-26
2.5661987e-26
2.5661564e-26
2.5661612e-26
2.566214e-26
2.5663748e-26
2.566797e-26
2.5698879e-26
2.5668614e-26
2.5655367e-26
2.565037e-26
2.5648753e-26
2.5648335e-26
2.5648401e-26
2.5648982e-26
2.5650723e-26
2.5655182e-26
2.569386e-26
2.5663608e-26
2.565037e-26
2.5645377e-26
2.5643762e-26
2.5643347e-26
2.5643422e-26
2.5644028e-26
2.5645822e-26
2.5650351e-26
2.5692233e-26
2.5661987e-26
2.5648753e-26
2.5643762e-26
2.5642148e-26
2.5641735e-26
2.5641813e-26
2.5642428e-26
2.5644239e-26
2.5648787e-26
2.5691804e-26
2.5661564e-26
2.5648335e-26
2.5643347e-26
2.5641735e-26
2.5641323e-26
2.5641402e-26
2.564202e-26
2.5643836e-26
2.5648389e-26
2.5691832e-26
2.5661612e-26
2.5648401e-26
2.5643422e-26
2.5641813e-26
2.5641402e-26
2.5641483e-26
2.5642101e-26
2.5643919e-26
2.5648473e-26
2.5692289e-26
2.566214e-26
2.5648982e-26
2.5644028e-26
2.5642428e-26
2.564202e-26
2.5642101e-26
2.5642721e-26
2.5644539e-26
2.5649094e-26
2.5693656e-26
2.5663748e-26
2.5650723e-26
2.5645822e-26
2.5644239e-26
2.5643836e-26
2.5643919e-26
2.5644539e-26
2.5646359e-26
2.5650917e-26
2.5697084e-26
2.566797e-26
2.5655182e-26
2.5650351e-26
2.5648787e-26
2.5648389e-26
2.5648473e-26
2.5649094e-26
2.5650917e-26
2.5655486e-26
6.8028166e-26
6.795077e-26
6.7916842e-26
6.7904029e-26
6.7899874e-26
6.7898775e-26
6.7898845e-26
6.7900002e-26
6.7903446e-26
6.7912005e-26
6.795077e-26
6.7873714e-26
6.7839894e-26
6.7827117e-26
6.7822974e-26
6.7821892e-26
6.7822013e-26
6.7823356e-26
6.7827428e-26
6.783806e-26
6.7916842e-26
6.7839894e-26
6.7806129e-26
6.7793373e-26
6.7789241e-26
6.7788173e-26
6.778834e-26
6.7789821e-26
6.7794242e-26
6.7805493e-26
6.7904029e-26
6.7827117e-26
6.7793373e-26
6.7780628e-26
6.77765e-26
6.7775441e-26
6.7775632e-26
6.7777177e-26
6.7781736e-26
6.7793168e-26
6.7899874e-26
6.7822974e-26
6.7789241e-26
6.77765e-26
6.7772376e-26
6.777132e-26
6.7771521e-26
6.777309e-26
6.7777693e-26
6.7789175e-26
6.7898775e-26
6.7821892e-26
6.7788173e-26
6.7775441e-26
6.777132e-26
6.7770267e-26
6.7770471e-26
6.7772047e-26
6.7776662e-26
6.7788158e-26
6.7898845e-26
6.7822013e-26
6.778834e-26
6.7775632e-26
6.7771521e-26
6.7770471e-26
6.7770676e-26
6.7772255e-26
6.7776874e-26
6.7788373e-26
6.7900002e-26
6.7823356e-26
6.7789821e-26
6.7777177e-26
6.777309e-26
6.7772047e-26
6.7772255e-26
6.7773836e-26
6.7778456e-26
6.7789958e-26
6.7903446e-26
6.7827428e-26
6.7794242e-26
6.7781736e-26
6.7777693e-26
6.7776662e-26
6.7776874e-26
6.7778456e-26
6.7783081e-26
6.7794589e-26
6.7912005e-26
6.783806e-26
6.7805493e-26
6.7793168e-26
6.7789175e-26
6.7788158e-26
6.7788373e-26
6.7789958e-26
6.7794589e-26
6.7806127e-26
1.8226202e-25
1.8206266e-25
1.8197504e-25
1.8194191e-25
1.8193115e-25
1.8192831e-25
1.8192848e-25
1.8193145e-25
1.8194024e-25
1.8196191e-25
1.8206266e-25
1.8186416e-25
1.8177682e-25
1.8174378e-25
1.8173305e-25
1.8173025e-25
1.8173056e-25
1.8173402e-25
1.8174448e-25
1.8177162e-25
1.8197504e-25
1.8177682e-25
1.8168962e-25
1.8165663e-25
1.8164594e-25
1.8164317e-25
1.816436e-25
1.8164743e-25
1.8165881e-25
1.8168759e-25
1.8194191e-25
1.8174378e-25
1.8165663e-25
1.8162367e-25
1.8161299e-25
1.8161024e-25
1.8161074e-25
1.8161473e-25
1.8162647e-25
1.8165574e-25
1.8193115e-25
1.8173305e-25
1.8164594e-25
1.8161299e-25
1.8160231e-25
1.8159957e-25
1.816001e-25
1.8160415e-25
1.8161601e-25
1.8164541e-25
1.8192831e-25
1.8173025e-25
1.8164317e-25
1.8161024e-25
1.8159957e-25
1.8159685e-25
1.8159738e-25
1.8160145e-25
1.8161335e-25
1.8164277e-25
1.8192848e-25
1.8173056e-25
1.816436e-25
1.8161074e-25
1.816001e-25
1.8159738e-25
1.8159791e-25
1.8160199e-25
1.816139e-25
1.8164333e-25
1.8193145e-25
1.8173402e-25
1.8164743e-25
1.8161473e-25
1.8160415e-25
1.8160145e-25
1.8160199e-25
1.8160608e-25
1.8161799e-25
1.8164743e-25
1.8194024e-25
1.8174448e-25
1.8165881e-25
1.8162647e-25
1.8161601e-25
1.8161335e-25
1.816139e-25
1.8161799e-25
1.816299e-25
1.8165937e-25
1.8196191e-25
1.8177162e-25
1.8168759e-25
1.8165574e-25
1.8164541e-25
1.8164277e-25
1.8164333e-25
1.8164743e-25
1.8165937e-25
1.816889e-25
4.9505954e-25
4.9453923e-25
4.9431001e-25
4.942232e-25
4.9419499e-25
4.9418752e-25
4.9418797e-25
4.9419569e-25
4.9421846e-25
4.9427403e-25
4.9453923e-25
4.9402117e-25
4.9379266e-25
4.9370608e-25
4.9367796e-25
4.936706e-25
4.9367142e-25
4.9368046e-25
4.9370767e-25
4.9377793e-25
4.9431001e-25
4.9379266e-25
4.9356452e-25
4.9347809e-25
4.9345003e-25
4.9344277e-25
4.9344391e-25
4.9345393e-25
4.9348362e-25
4.9355827e-25
4.942232e-25
4.9370608e-25
4.9347809e-25
4.9339172e-25
4.933637e-25
4.933565e-25
4.933578e-25
4.9336828e-25
4.9339894e-25
4.9347488e-25
4.9419499e-25
4.9367796e-25
4.9345003e-25
4.933637e-25
4.933357e-25
4.9332853e-25
4.933299e-25
4.9334054e-25
4.9337151e-25
4.9344781e-25
4.9418752e-25
4.936706e-25
4.9344277e-25
4.933565e-25
4.9332853e-25
4.9332137e-25
4.9332277e-25
4.9333346e-25
4.9336452e-25
4.9344091e-25
4.9418797e-25
4.9367142e-25
4.9344391e-25
4.933578e-25
4.933299e-25
4.9332277e-25
4.9332417e-25
4.9333488e-25
4.9336597e-25
4.9344238e-25
4.9419569e-25
4.9368046e-25
4.9345393e-25
4.9336828e-25
4.9334054e-25
4.9333346e-25
4.9333488e-25
4.933456e-25
4.933767e-25
4.9345313e-25
4.9421846e-25
4.9370767e-25
4.9348362e-25
4.9339894e-25
4.9337151e-25
4.9336452e-25
4.9336597e-25
4.933767e-25
4.9340782e-25
4.934843e-25
4.9427403e-25
4.9377793e-25
4.9355827e-25
4.9347488e-25
4.9344781e-25
4.9344091e-25
4.9344238e-25
4.9345313e-25
4.934843e-25
4.9356095e-25
1.3631646e-24
1.3617889e-24
1.3611815e-24
1.3609511e-24
1.3608761e-24
1.3608563e-24
1.3608574e-24
1.3608778e-24
1.3609375e-24
1.361082e-24
1.3617889e-24
1.3604192e-24
1.3598135e-24
1.3595837e-24
1.359509e-24
1.3594895e-24
1.3594916e-24
1.3595156e-24
1.3595874e-24
1.3597718e-24
1.3611815e-24
1.3598135e-24
1.3592089e-24
1.3589795e-24
1.3589049e-24
1.3588856e-24
1.3588887e-24
1.3589153e-24
1.3589938e-24
1.3591901e-24
1.3609511e-24
1.3595837e-24
1.3589795e-24
1.3587502e-24
1.3586758e-24
1.3586567e-24
1.3586601e-24
1.358688e-24
1.3587691e-24
1.3589689e-24
1.3608761e-24
1.359509e-24
1.3589049e-24
1.3586758e-24
1.3586014e-24
1.3585823e-24
1.358586e-24
1.3586143e-24
1.3586963e-24
1.3588971e-24
1.3608563e-24
1.3594895e-24
1.3588856e-24
1.3586567e-24
1.3585823e-24
1.3585633e-24
1.3585671e-24
1.3585955e-24
1.3586777e-24
1.3588787e-24
1.3608574e-24
1.3594916e-24
1.3588887e-24
1.3586601e-24
1.358586e-24
1.3585671e-24
1.3585708e-24
1.3585993e-24
1.3586816e-24
1.3588827e-24
1.3608778e-24
1.3595156e-24
1.3589153e-24
1.358688e-24
1.3586143e-24
1.3585955e-24
1.3585993e-24
1.3586278e-24
1.3587101e-24
1.3589112e-24
1.3609375e-24
1.3595874e-24
1.3589938e-24
1.3587691e-24
1.3586963e-24
1.3586777e-24
1.3586816e-24
1.3587101e-24
1.3587925e-24
1.3589938e-24
1.361082e-24
1.3597718e-24
1.3591901e-24
1.3589689e-24
1.3588971e-24
1.3588787e-24
1.3588827e-24
1.3589112e-24
1.3589938e-24