/*--------------------------------*- C++ -*----------------------------------*\
| =========                 |                                                 |
| \\      /  F ield         | OpenFOAM: The Open Source CFD Toolbox           |
|  \\    /   O peration     | Version:  dev                                   |
|   \\  /    A nd           | Web:      www.OpenFOAM.org                      |
|    \\/     M anipulation  |                                                 |
\*---------------------------------------------------------------------------*/
FoamFile
{
    version     2.0;
    format      ascii;
    class       volScalarField;
    location    "50.995";
    object      A_0;
}
// * * * * * * * * * * * * * * * * * * * * * * * * * * * * * * * * * * * * * //

dimensions      [0 0 0 0 1 0 0];

internalField   nonuniform List<scalar> 
10000
(
1.4763092e-32
1.4732542e-32
1.47202e-32
1.4715684e-32
1.4714249e-32
1.4713879e-32
1.4713924e-32
1.4714412e-32
1.4715961e-32
1.4719966e-32
1.4732542e-32
1.4702156e-32
1.4689864e-32
1.4685365e-32
1.4683936e-32
1.468357e-32
1.4683629e-32
1.4684163e-32
1.468587e-32
1.4690381e-32
1.47202e-32
1.4689864e-32
1.4677596e-32
1.4673106e-32
1.467168e-32
1.4671319e-32
1.467139e-32
1.4671959e-32
1.4673754e-32
1.467842e-32
1.4715684e-32
1.4685365e-32
1.4673106e-32
1.466862e-32
1.4667196e-32
1.4666837e-32
1.4666913e-32
1.4667499e-32
1.4669329e-32
1.467404e-32
1.4714249e-32
1.4683936e-32
1.467168e-32
1.4667196e-32
1.4665773e-32
1.4665415e-32
1.4665494e-32
1.4666086e-32
1.4667927e-32
1.4672651e-32
1.4713879e-32
1.468357e-32
1.4671319e-32
1.4666837e-32
1.4665415e-32
1.4665058e-32
1.4665138e-32
1.4665731e-32
1.4667576e-32
1.4672303e-32
1.4713924e-32
1.4683629e-32
1.467139e-32
1.4666913e-32
1.4665494e-32
1.4665138e-32
1.4665218e-32
1.4665812e-32
1.4667657e-32
1.4672385e-32
1.4714412e-32
1.4684163e-32
1.4671959e-32
1.4667499e-32
1.4666086e-32
1.4665731e-32
1.4665812e-32
1.4666407e-32
1.4668253e-32
1.4672982e-32
1.4715961e-32
1.468587e-32
1.4673754e-32
1.4669329e-32
1.4667927e-32
1.4667576e-32
1.4667657e-32
1.4668253e-32
1.4670101e-32
1.4674834e-32
1.4719966e-32
1.4690381e-32
1.467842e-32
1.467404e-32
1.4672651e-32
1.4672303e-32
1.4672385e-32
1.4672982e-32
1.4674834e-32
1.4679581e-32
5.3276962e-32
5.3170804e-32
5.3126869e-32
5.3110762e-32
5.310564e-32
5.3104319e-32
5.3104477e-32
5.3106206e-32
5.3111717e-32
5.3126556e-32
5.3170804e-32
5.30652e-32
5.3021443e-32
5.3005394e-32
5.3000292e-32
5.2998988e-32
5.2999194e-32
5.3001092e-32
5.3007168e-32
5.3023842e-32
5.3126869e-32
5.3021443e-32
5.297777e-32
5.2961753e-32
5.2956664e-32
5.2955374e-32
5.2955622e-32
5.2957647e-32
5.2964041e-32
5.298127e-32
5.3110762e-32
5.3005394e-32
5.2961753e-32
5.2945749e-32
5.2940667e-32
5.2939385e-32
5.2939655e-32
5.2941739e-32
5.2948259e-32
5.2965652e-32
5.310564e-32
5.3000292e-32
5.2956664e-32
5.2940667e-32
5.2935587e-32
5.2934309e-32
5.2934588e-32
5.2936694e-32
5.2943254e-32
5.2960692e-32
5.3104319e-32
5.2998988e-32
5.2955374e-32
5.2939385e-32
5.2934309e-32
5.2933033e-32
5.2933316e-32
5.2935428e-32
5.2942e-32
5.2959449e-32
5.3104477e-32
5.2999194e-32
5.2955622e-32
5.2939655e-32
5.2934588e-32
5.2933316e-32
5.29336e-32
5.2935714e-32
5.294229e-32
5.2959742e-32
5.3106206e-32
5.3001092e-32
5.2957647e-32
5.2941739e-32
5.2936694e-32
5.2935428e-32
5.2935714e-32
5.293783e-32
5.2944409e-32
5.2961865e-32
5.3111717e-32
5.3007168e-32
5.2964041e-32
5.2948259e-32
5.2943254e-32
5.2942e-32
5.294229e-32
5.2944409e-32
5.2950993e-32
5.2968463e-32
5.3126556e-32
5.3023842e-32
5.298127e-32
5.2965652e-32
5.2960692e-32
5.2959449e-32
5.2959742e-32
5.2961865e-32
5.2968463e-32
5.2985988e-32
1.2531343e-31
1.2507171e-31
1.2497066e-31
1.2493354e-31
1.2492172e-31
1.2491866e-31
1.2491902e-31
1.2492297e-31
1.2493557e-31
1.2497051e-31
1.2507171e-31
1.2483124e-31
1.2473059e-31
1.2469359e-31
1.2468182e-31
1.2467881e-31
1.2467927e-31
1.2468362e-31
1.2469754e-31
1.2473679e-31
1.2497066e-31
1.2473059e-31
1.2463014e-31
1.2459321e-31
1.2458147e-31
1.2457849e-31
1.2457906e-31
1.245837e-31
1.2459836e-31
1.2463891e-31
1.2493354e-31
1.2469359e-31
1.2459321e-31
1.2455632e-31
1.2454459e-31
1.2454163e-31
1.2454225e-31
1.2454703e-31
1.2456199e-31
1.2460292e-31
1.2492172e-31
1.2468182e-31
1.2458147e-31
1.2454459e-31
1.2453287e-31
1.2452992e-31
1.2453056e-31
1.2453539e-31
1.2455044e-31
1.2459148e-31
1.2491866e-31
1.2467881e-31
1.2457849e-31
1.2454163e-31
1.2452992e-31
1.2452697e-31
1.2452762e-31
1.2453246e-31
1.2454754e-31
1.2458861e-31
1.2491902e-31
1.2467927e-31
1.2457906e-31
1.2454225e-31
1.2453056e-31
1.2452762e-31
1.2452827e-31
1.2453312e-31
1.2454821e-31
1.2458928e-31
1.2492297e-31
1.2468362e-31
1.245837e-31
1.2454703e-31
1.2453539e-31
1.2453246e-31
1.2453312e-31
1.2453797e-31
1.2455307e-31
1.2459415e-31
1.2493557e-31
1.2469754e-31
1.2459836e-31
1.2456199e-31
1.2455044e-31
1.2454754e-31
1.2454821e-31
1.2455307e-31
1.2456818e-31
1.2460929e-31
1.2497051e-31
1.2473679e-31
1.2463891e-31
1.2460292e-31
1.2459148e-31
1.2458861e-31
1.2458928e-31
1.2459415e-31
1.2460929e-31
1.2465053e-31
2.7874335e-31
2.7822267e-31
2.7800384e-31
2.7792327e-31
2.778976e-31
2.7789095e-31
2.778917e-31
2.7790017e-31
2.7792714e-31
2.780023e-31
2.7822267e-31
2.7770464e-31
2.7748667e-31
2.7740638e-31
2.773808e-31
2.7737424e-31
2.7737524e-31
2.7738458e-31
2.7741448e-31
2.7749919e-31
2.7800384e-31
2.7748667e-31
2.7726911e-31
2.7718898e-31
2.7716346e-31
2.7715698e-31
2.7715819e-31
2.7716819e-31
2.7719973e-31
2.7728731e-31
2.7792327e-31
2.7740638e-31
2.7718898e-31
2.7710891e-31
2.7708343e-31
2.7707699e-31
2.7707831e-31
2.7708862e-31
2.7712081e-31
2.7720924e-31
2.778976e-31
2.773808e-31
2.7716346e-31
2.7708343e-31
2.7705796e-31
2.7705154e-31
2.7705291e-31
2.7706332e-31
2.7709572e-31
2.7718439e-31
2.7789095e-31
2.7737424e-31
2.7715698e-31
2.7707699e-31
2.7705154e-31
2.7704513e-31
2.7704651e-31
2.7705696e-31
2.7708942e-31
2.7717814e-31
2.778917e-31
2.7737524e-31
2.7715819e-31
2.7707831e-31
2.7705291e-31
2.7704651e-31
2.770479e-31
2.7705837e-31
2.7709085e-31
2.7717958e-31
2.7790017e-31
2.7738458e-31
2.7716819e-31
2.7708862e-31
2.7706332e-31
2.7705696e-31
2.7705837e-31
2.7706884e-31
2.7710133e-31
2.7719009e-31
2.7792714e-31
2.7741448e-31
2.7719973e-31
2.7712081e-31
2.7709572e-31
2.7708942e-31
2.7709085e-31
2.7710133e-31
2.7713385e-31
2.7722268e-31
2.780023e-31
2.7749919e-31
2.7728731e-31
2.7720924e-31
2.7718439e-31
2.7717814e-31
2.7717958e-31
2.7719009e-31
2.7722268e-31
2.7731179e-31
6.1957232e-31
6.1845188e-31
6.179792e-31
6.1780483e-31
6.1774919e-31
6.1773478e-31
6.1773633e-31
6.1775443e-31
6.1781186e-31
6.1797124e-31
6.1845188e-31
6.1733706e-31
6.1686621e-31
6.1669244e-31
6.16637e-31
6.1662277e-31
6.1662487e-31
6.1664491e-31
6.1670881e-31
6.168893e-31
6.179792e-31
6.1686621e-31
6.1639624e-31
6.162228e-31
6.1616751e-31
6.1615344e-31
6.1615601e-31
6.161775e-31
6.1624503e-31
6.1643187e-31
6.1780483e-31
6.1669244e-31
6.162228e-31
6.1604952e-31
6.1599429e-31
6.1598031e-31
6.1598314e-31
6.160053e-31
6.1607425e-31
6.1626297e-31
6.1774919e-31
6.16637e-31
6.1616751e-31
6.1599429e-31
6.159391e-31
6.1592516e-31
6.1592809e-31
6.1595049e-31
6.1601992e-31
6.1620915e-31
6.1773478e-31
6.1662277e-31
6.1615344e-31
6.1598031e-31
6.1592516e-31
6.1591125e-31
6.1591421e-31
6.1593669e-31
6.1600625e-31
6.1619561e-31
6.1773633e-31
6.1662487e-31
6.1615601e-31
6.1598314e-31
6.1592809e-31
6.1591421e-31
6.159172e-31
6.159397e-31
6.1600929e-31
6.1619869e-31
6.1775443e-31
6.1664491e-31
6.161775e-31
6.160053e-31
6.1595049e-31
6.1593669e-31
6.159397e-31
6.1596222e-31
6.1603184e-31
6.1622129e-31
6.1781186e-31
6.1670881e-31
6.1624503e-31
6.1607425e-31
6.1601992e-31
6.1600625e-31
6.1600929e-31
6.1603184e-31
6.1610153e-31
6.1629111e-31
6.1797124e-31
6.168893e-31
6.1643187e-31
6.1626297e-31
6.1620915e-31
6.1619561e-31
6.1619869e-31
6.1622129e-31
6.1629111e-31
6.164813e-31
1.3915648e-30
1.3891294e-30
1.3880986e-30
1.3877176e-30
1.3875959e-30
1.3875643e-30
1.3875676e-30
1.3876067e-30
1.38773e-30
1.3880699e-30
1.3891294e-30
1.386706e-30
1.3856792e-30
1.3852995e-30
1.3851783e-30
1.3851471e-30
1.3851516e-30
1.3851949e-30
1.3853327e-30
1.3857198e-30
1.3880986e-30
1.3856792e-30
1.3846543e-30
1.3842753e-30
1.3841544e-30
1.3841235e-30
1.3841291e-30
1.3841757e-30
1.3843215e-30
1.3847228e-30
1.3877176e-30
1.3852995e-30
1.3842753e-30
1.3838967e-30
1.3837759e-30
1.3837453e-30
1.3837514e-30
1.3837995e-30
1.3839485e-30
1.384354e-30
1.3875959e-30
1.3851783e-30
1.3841544e-30
1.3837759e-30
1.3836552e-30
1.3836246e-30
1.3836309e-30
1.3836796e-30
1.3838297e-30
1.3842363e-30
1.3875643e-30
1.3851471e-30
1.3841235e-30
1.3837453e-30
1.3836246e-30
1.3835942e-30
1.3836006e-30
1.3836494e-30
1.3837997e-30
1.3842066e-30
1.3875676e-30
1.3851516e-30
1.3841291e-30
1.3837514e-30
1.3836309e-30
1.3836006e-30
1.383607e-30
1.3836559e-30
1.3838063e-30
1.3842133e-30
1.3876067e-30
1.3851949e-30
1.3841757e-30
1.3837995e-30
1.3836796e-30
1.3836494e-30
1.3836559e-30
1.3837048e-30
1.3838553e-30
1.3842624e-30
1.38773e-30
1.3853327e-30
1.3843215e-30
1.3839485e-30
1.3838297e-30
1.3837997e-30
1.3838063e-30
1.3838553e-30
1.384006e-30
1.3844134e-30
1.3880699e-30
1.3857198e-30
1.3847228e-30
1.384354e-30
1.3842363e-30
1.3842066e-30
1.3842133e-30
1.3842624e-30
1.3844134e-30
1.384822e-30
3.1656842e-30
3.1603247e-30
3.1580493e-30
3.1572068e-30
3.1569373e-30
3.1568673e-30
3.1568742e-30
3.1569595e-30
3.1572277e-30
3.1579609e-30
3.1603247e-30
3.1549915e-30
3.1527247e-30
3.151885e-30
3.1516165e-30
3.1515473e-30
3.151557e-30
3.151652e-30
3.1519528e-30
3.1527927e-30
3.1580493e-30
3.1527247e-30
3.1504619e-30
3.1496238e-30
3.149356e-30
3.1492876e-30
3.1492997e-30
3.149402e-30
3.149721e-30
3.150593e-30
3.1572068e-30
3.151885e-30
3.1496238e-30
3.1487864e-30
3.1485189e-30
3.148451e-30
3.1484644e-30
3.14857e-30
3.1488963e-30
3.1497777e-30
3.1569373e-30
3.1516165e-30
3.149356e-30
3.1485189e-30
3.1482516e-30
3.1481839e-30
3.1481977e-30
3.1483047e-30
3.1486332e-30
3.1495172e-30
3.1568673e-30
3.1515473e-30
3.1492876e-30
3.148451e-30
3.1481839e-30
3.1481164e-30
3.1481304e-30
3.1482377e-30
3.1485669e-30
3.1494515e-30
3.1568742e-30
3.151557e-30
3.1492997e-30
3.1484644e-30
3.1481977e-30
3.1481304e-30
3.1481445e-30
3.1482519e-30
3.1485813e-30
3.1494661e-30
3.1569595e-30
3.151652e-30
3.149402e-30
3.14857e-30
3.1483047e-30
3.1482377e-30
3.1482519e-30
3.1483594e-30
3.1486889e-30
3.149574e-30
3.1572277e-30
3.1519528e-30
3.149721e-30
3.1488963e-30
3.1486332e-30
3.1485669e-30
3.1485813e-30
3.1486889e-30
3.1490188e-30
3.1499044e-30
3.1579609e-30
3.1527927e-30
3.150593e-30
3.1497777e-30
3.1495172e-30
3.1494515e-30
3.1494661e-30
3.149574e-30
3.1499044e-30
3.1507928e-30
7.2982728e-30
7.2863252e-30
7.2812374e-30
7.2793503e-30
7.278746e-30
7.2785886e-30
7.2786036e-30
7.2787923e-30
7.2793828e-30
7.2809846e-30
7.2863252e-30
7.2744358e-30
7.2693668e-30
7.2674859e-30
7.2668837e-30
7.2667284e-30
7.2667496e-30
7.2669605e-30
7.2676257e-30
7.2694718e-30
7.2812374e-30
7.2693668e-30
7.264307e-30
7.2624295e-30
7.2618288e-30
7.2616753e-30
7.261702e-30
7.2619296e-30
7.2626365e-30
7.264556e-30
7.2793503e-30
7.2674859e-30
7.2624295e-30
7.2605536e-30
7.2599537e-30
7.2598013e-30
7.2598308e-30
7.2600661e-30
7.2607895e-30
7.2627305e-30
7.278746e-30
7.2668837e-30
7.2618288e-30
7.2599537e-30
7.2593542e-30
7.2592022e-30
7.2592329e-30
7.259471e-30
7.2601996e-30
7.2621466e-30
7.2785886e-30
7.2667284e-30
7.2616753e-30
7.2598013e-30
7.2592022e-30
7.2590505e-30
7.2590816e-30
7.2593206e-30
7.2600507e-30
7.2619992e-30
7.2786036e-30
7.2667496e-30
7.261702e-30
7.2598308e-30
7.2592329e-30
7.2590816e-30
7.2591129e-30
7.2593522e-30
7.2600828e-30
7.2620317e-30
7.2787923e-30
7.2669605e-30
7.2619296e-30
7.2600661e-30
7.259471e-30
7.2593206e-30
7.2593522e-30
7.2595917e-30
7.2603226e-30
7.2622719e-30
7.2793828e-30
7.2676257e-30
7.2626365e-30
7.2607895e-30
7.2601996e-30
7.2600507e-30
7.2600828e-30
7.2603226e-30
7.2610541e-30
7.2630049e-30
7.2809846e-30
7.2694718e-30
7.264556e-30
7.2627305e-30
7.2621466e-30
7.2619992e-30
7.2620317e-30
7.2622719e-30
7.2630049e-30
7.2649615e-30
1.7054262e-29
1.7027278e-29
1.7015753e-29
1.7011471e-29
1.7010098e-29
1.700974e-29
1.7009772e-29
1.7010195e-29
1.7011513e-29
1.7015058e-29
1.7027278e-29
1.7000424e-29
1.6988941e-29
1.6984673e-29
1.6983305e-29
1.6982951e-29
1.6982998e-29
1.6983473e-29
1.6984964e-29
1.6989076e-29
1.7015753e-29
1.6988941e-29
1.6977479e-29
1.6973218e-29
1.6971853e-29
1.6971504e-29
1.6971564e-29
1.6972077e-29
1.6973664e-29
1.6977947e-29
1.7011471e-29
1.6984673e-29
1.6973218e-29
1.6968961e-29
1.6967598e-29
1.6967251e-29
1.6967317e-29
1.6967848e-29
1.6969474e-29
1.6973806e-29
1.7010098e-29
1.6983305e-29
1.6971853e-29
1.6967598e-29
1.6966236e-29
1.696589e-29
1.6965959e-29
1.6966496e-29
1.6968134e-29
1.697248e-29
1.700974e-29
1.6982951e-29
1.6971504e-29
1.6967251e-29
1.696589e-29
1.6965545e-29
1.6965615e-29
1.6966154e-29
1.6967796e-29
1.6972145e-29
1.7009772e-29
1.6982998e-29
1.6971564e-29
1.6967317e-29
1.6965959e-29
1.6965615e-29
1.6965685e-29
1.6966226e-29
1.6967868e-29
1.6972218e-29
1.7010195e-29
1.6983473e-29
1.6972077e-29
1.6967848e-29
1.6966496e-29
1.6966154e-29
1.6966226e-29
1.6966766e-29
1.6968409e-29
1.6972761e-29
1.7011513e-29
1.6984964e-29
1.6973664e-29
1.6969474e-29
1.6968134e-29
1.6967796e-29
1.6967868e-29
1.6968409e-29
1.6970054e-29
1.6974408e-29
1.7015058e-29
1.6989076e-29
1.6977947e-29
1.6973806e-29
1.697248e-29
1.6972145e-29
1.6972218e-29
1.6972761e-29
1.6974408e-29
1.6978776e-29
4.0396447e-29
4.03347e-29
4.0308249e-29
4.0298404e-29
4.0295244e-29
4.0294418e-29
4.029449e-29
4.0295452e-29
4.0298432e-29
4.0306383e-29
4.03347e-29
4.0273246e-29
4.024689e-29
4.0237076e-29
4.0233927e-29
4.0233113e-29
4.0233219e-29
4.0234301e-29
4.0237688e-29
4.0246972e-29
4.0308249e-29
4.024689e-29
4.0220581e-29
4.0210785e-29
4.0207643e-29
4.0206839e-29
4.0206975e-29
4.0208147e-29
4.0211761e-29
4.0221444e-29
4.0298404e-29
4.0237076e-29
4.0210785e-29
4.0200997e-29
4.019786e-29
4.019706e-29
4.0197212e-29
4.0198426e-29
4.0202129e-29
4.021193e-29
4.0295244e-29
4.0233927e-29
4.0207643e-29
4.019786e-29
4.0194724e-29
4.0193928e-29
4.0194085e-29
4.0195315e-29
4.0199046e-29
4.020888e-29
4.0294418e-29
4.0233113e-29
4.0206839e-29
4.019706e-29
4.0193928e-29
4.0193133e-29
4.0193292e-29
4.0194527e-29
4.0198267e-29
4.0208108e-29
4.029449e-29
4.0233219e-29
4.0206975e-29
4.0197212e-29
4.0194085e-29
4.0193292e-29
4.0193453e-29
4.0194689e-29
4.0198431e-29
4.0208275e-29
4.0295452e-29
4.0234301e-29
4.0208147e-29
4.0198426e-29
4.0195315e-29
4.0194527e-29
4.0194689e-29
4.0195926e-29
4.019967e-29
4.0209516e-29
4.0298432e-29
4.0237688e-29
4.0211761e-29
4.0202129e-29
4.0199046e-29
4.0198267e-29
4.0198431e-29
4.019967e-29
4.0203417e-29
4.021327e-29
4.0306383e-29
4.0246972e-29
4.0221444e-29
4.021193e-29
4.020888e-29
4.0208108e-29
4.0208275e-29
4.0209516e-29
4.021327e-29
4.0223152e-29
9.7001473e-29
9.68583e-29
9.6796791e-29
9.6773859e-29
9.676649e-29
9.6764562e-29
9.6764724e-29
9.6766939e-29
9.6773769e-29
9.6791839e-29
9.68583e-29
9.6715802e-29
9.6654511e-29
9.663165e-29
9.6624305e-29
9.6622404e-29
9.6622646e-29
9.6625148e-29
9.6632946e-29
9.6654192e-29
9.6796791e-29
9.6654511e-29
9.6593327e-29
9.6570507e-29
9.6563181e-29
9.6561303e-29
9.6561615e-29
9.6564331e-29
9.6572669e-29
9.6594867e-29
9.6773859e-29
9.663165e-29
9.6570507e-29
9.6547706e-29
9.6540389e-29
9.6538524e-29
9.6538873e-29
9.6541689e-29
9.6550239e-29
9.6572716e-29
9.676649e-29
9.6624305e-29
9.6563181e-29
9.6540389e-29
9.6533077e-29
9.6531218e-29
9.6531582e-29
9.6534434e-29
9.6543052e-29
9.6565607e-29
9.6764562e-29
9.6622404e-29
9.6561303e-29
9.6538524e-29
9.6531218e-29
9.6529362e-29
9.6529732e-29
9.6532595e-29
9.6541233e-29
9.6563807e-29
9.6764724e-29
9.6622646e-29
9.6561615e-29
9.6538873e-29
9.6531582e-29
9.6529732e-29
9.6530105e-29
9.6532972e-29
9.6541614e-29
9.6564194e-29
9.6766939e-29
9.6625148e-29
9.6564331e-29
9.6541689e-29
9.6534434e-29
9.6532595e-29
9.6532972e-29
9.6535841e-29
9.6544487e-29
9.6567072e-29
9.6773769e-29
9.6632946e-29
9.6572669e-29
9.6550239e-29
9.6543052e-29
9.6541233e-29
9.6541614e-29
9.6544487e-29
9.6553141e-29
9.6575742e-29
9.6791839e-29
9.6654192e-29
9.6594867e-29
9.6572716e-29
9.6565607e-29
9.6563807e-29
9.6564194e-29
9.6567072e-29
9.6575742e-29
9.6598407e-29
2.361353e-28
2.3579891e-28
2.3565399e-28
2.3559986e-28
2.3558245e-28
2.3557789e-28
2.3557826e-28
2.3558343e-28
2.355993e-28
2.3564092e-28
2.3579891e-28
2.3546409e-28
2.3531967e-28
2.3526572e-28
2.3524836e-28
2.3524386e-28
2.3524443e-28
2.3525029e-28
2.3526849e-28
2.3531778e-28
2.3565399e-28
2.3531967e-28
2.351755e-28
2.3512164e-28
2.3510433e-28
2.3509989e-28
2.3510062e-28
2.3510699e-28
2.351265e-28
2.3517808e-28
2.3559986e-28
2.3526572e-28
2.3512164e-28
2.3506782e-28
2.3505053e-28
2.3504612e-28
2.3504694e-28
2.3505356e-28
2.3507357e-28
2.3512583e-28
2.3558245e-28
2.3524836e-28
2.3510433e-28
2.3505053e-28
2.3503326e-28
2.3502886e-28
2.3502971e-28
2.3503642e-28
2.350566e-28
2.3510904e-28
2.3557789e-28
2.3524386e-28
2.3509989e-28
2.3504612e-28
2.3502886e-28
2.3502447e-28
2.3502534e-28
2.3503207e-28
2.3505229e-28
2.3510479e-28
2.3557826e-28
2.3524443e-28
2.3510062e-28
2.3504694e-28
2.3502971e-28
2.3502534e-28
2.3502621e-28
2.3503296e-28
2.3505319e-28
2.351057e-28
2.3558343e-28
2.3525029e-28
2.3510699e-28
2.3505356e-28
2.3503642e-28
2.3503207e-28
2.3503296e-28
2.350397e-28
2.3505995e-28
2.3511246e-28
2.355993e-28
2.3526849e-28
2.351265e-28
2.3507357e-28
2.350566e-28
2.3505229e-28
2.3505319e-28
2.3505995e-28
2.3508021e-28
2.3513276e-28
2.3564092e-28
2.3531778e-28
2.3517808e-28
2.3512583e-28
2.3510904e-28
2.3510479e-28
2.351057e-28
2.3511246e-28
2.3513276e-28
2.3518546e-28
5.8278609e-28
5.819852e-28
5.8163919e-28
5.8150977e-28
5.8146808e-28
5.8145715e-28
5.8145799e-28
5.8147023e-28
5.8150759e-28
5.8160477e-28
5.819852e-28
5.8118802e-28
5.808432e-28
5.8071415e-28
5.8067261e-28
5.8066183e-28
5.8066315e-28
5.8067707e-28
5.8072013e-28
5.8083606e-28
5.8163919e-28
5.808432e-28
5.8049896e-28
5.8037015e-28
5.8032871e-28
5.8031806e-28
5.8031979e-28
5.8033497e-28
5.8038121e-28
5.8050275e-28
5.8150977e-28
5.8071415e-28
5.8037015e-28
5.8024144e-28
5.8020005e-28
5.8018948e-28
5.8019143e-28
5.802072e-28
5.8025468e-28
5.8037787e-28
5.8146808e-28
5.8067261e-28
5.8032871e-28
5.8020005e-28
5.8015869e-28
5.8014815e-28
5.8015019e-28
5.8016617e-28
5.8021406e-28
5.803377e-28
5.8145715e-28
5.8066183e-28
5.8031806e-28
5.8018948e-28
5.8014815e-28
5.8013764e-28
5.801397e-28
5.8015575e-28
5.8020375e-28
5.8032751e-28
5.8145799e-28
5.8066315e-28
5.8031979e-28
5.8019143e-28
5.8015019e-28
5.801397e-28
5.8014179e-28
5.8015786e-28
5.8020589e-28
5.8032968e-28
5.8147023e-28
5.8067707e-28
5.8033497e-28
5.802072e-28
5.8016617e-28
5.8015575e-28
5.8015786e-28
5.8017394e-28
5.80222e-28
5.8034581e-28
5.8150759e-28
5.8072013e-28
5.8038121e-28
5.8025468e-28
5.8021406e-28
5.8020375e-28
5.8020589e-28
5.80222e-28
5.8027009e-28
5.8039399e-28
5.8160477e-28
5.8083606e-28
5.8050275e-28
5.8037787e-28
5.803377e-28
5.8032751e-28
5.8032968e-28
5.8034581e-28
5.8039399e-28
5.8051823e-28
1.4582667e-27
1.4563345e-27
1.4554974e-27
1.4551838e-27
1.4550827e-27
1.4550562e-27
1.4550581e-27
1.4550875e-27
1.4551767e-27
1.4554066e-27
1.4563345e-27
1.4544111e-27
1.4535769e-27
1.4532642e-27
1.4531634e-27
1.4531372e-27
1.4531404e-27
1.4531739e-27
1.4532772e-27
1.4535536e-27
1.4554974e-27
1.4535769e-27
1.4527441e-27
1.4524319e-27
1.4523314e-27
1.4523055e-27
1.4523097e-27
1.4523463e-27
1.4524575e-27
1.4527478e-27
1.4551838e-27
1.4532642e-27
1.4524319e-27
1.45212e-27
1.4520196e-27
1.4519939e-27
1.4519986e-27
1.4520367e-27
1.452151e-27
1.4524454e-27
1.4550827e-27
1.4531634e-27
1.4523314e-27
1.4520196e-27
1.4519193e-27
1.4518937e-27
1.4518986e-27
1.4519372e-27
1.4520525e-27
1.452348e-27
1.4550562e-27
1.4531372e-27
1.4523055e-27
1.4519939e-27
1.4518937e-27
1.4518682e-27
1.4518732e-27
1.4519119e-27
1.4520275e-27
1.4523233e-27
1.4550581e-27
1.4531404e-27
1.4523097e-27
1.4519986e-27
1.4518986e-27
1.4518732e-27
1.4518782e-27
1.451917e-27
1.4520326e-27
1.4523285e-27
1.4550875e-27
1.4531739e-27
1.4523463e-27
1.4520367e-27
1.4519372e-27
1.4519119e-27
1.451917e-27
1.4519559e-27
1.4520715e-27
1.4523675e-27
1.4551767e-27
1.4532772e-27
1.4524575e-27
1.452151e-27
1.4520525e-27
1.4520275e-27
1.4520326e-27
1.4520715e-27
1.4521873e-27
1.4524834e-27
1.4554066e-27
1.4535536e-27
1.4527478e-27
1.4524454e-27
1.452348e-27
1.4523233e-27
1.4523285e-27
1.4523675e-27
1.4524834e-27
1.4527804e-27
3.6995898e-27
3.6948659e-27
3.6928139e-27
3.6920439e-27
3.6917954e-27
3.69173e-27
3.6917347e-27
3.691806e-27
3.6920218e-27
3.6925734e-27
3.6948659e-27
3.6901634e-27
3.6881182e-27
3.6873504e-27
3.6871027e-27
3.6870383e-27
3.6870459e-27
3.6871277e-27
3.687379e-27
3.6880472e-27
3.6928139e-27
3.6881182e-27
3.6860765e-27
3.68531e-27
3.6850629e-27
3.6849993e-27
3.6850095e-27
3.6850991e-27
3.6853701e-27
3.6860732e-27
3.6920439e-27
3.6873504e-27
3.68531e-27
3.6845442e-27
3.6842974e-27
3.6842343e-27
3.6842458e-27
3.684339e-27
3.6846177e-27
3.6853311e-27
3.6917954e-27
3.6871027e-27
3.6850629e-27
3.6842974e-27
3.6840508e-27
3.6839879e-27
3.6839999e-27
3.6840945e-27
3.6843756e-27
3.6850918e-27
3.69173e-27
3.6870383e-27
3.6849993e-27
3.6842343e-27
3.6839879e-27
3.6839251e-27
3.6839373e-27
3.6840323e-27
3.6843142e-27
3.6850311e-27
3.6917347e-27
3.6870459e-27
3.6850095e-27
3.6842458e-27
3.6839999e-27
3.6839373e-27
3.6839497e-27
3.6840448e-27
3.6843269e-27
3.685044e-27
3.691806e-27
3.6871277e-27
3.6850991e-27
3.684339e-27
3.6840945e-27
3.6840323e-27
3.6840448e-27
3.68414e-27
3.6844222e-27
3.6851394e-27
3.6920218e-27
3.687379e-27
3.6853701e-27
3.6846177e-27
3.6843756e-27
3.6843142e-27
3.6843269e-27
3.6844222e-27
3.6847046e-27
3.6854223e-27
3.6925734e-27
3.6880472e-27
3.6860732e-27
3.6853311e-27
3.6850918e-27
3.6850311e-27
3.685044e-27
3.6851394e-27
3.6854223e-27
3.686142e-27
9.516197e-27
9.5044939e-27
9.4993967e-27
9.497481e-27
9.4968621e-27
9.4966992e-27
9.4967104e-27
9.4968863e-27
9.4974156e-27
9.4987566e-27
9.5044939e-27
9.4928432e-27
9.4877628e-27
9.4858526e-27
9.4852357e-27
9.4850751e-27
9.4850937e-27
9.4852962e-27
9.4859156e-27
9.4875535e-27
9.4993967e-27
9.4877628e-27
9.4826909e-27
9.4807839e-27
9.4801685e-27
9.48001e-27
9.4800352e-27
9.4802575e-27
9.480927e-27
9.4826537e-27
9.497481e-27
9.4858526e-27
9.4807839e-27
9.4788785e-27
9.4782639e-27
9.4781065e-27
9.4781351e-27
9.4783667e-27
9.4790558e-27
9.4808086e-27
9.4968621e-27
9.4852357e-27
9.4801685e-27
9.4782639e-27
9.4776497e-27
9.4774929e-27
9.4775228e-27
9.4777577e-27
9.4784532e-27
9.4802131e-27
9.4966992e-27
9.4850751e-27
9.48001e-27
9.4781065e-27
9.4774929e-27
9.4773364e-27
9.4773669e-27
9.4776028e-27
9.4783001e-27
9.4800618e-27
9.4967104e-27
9.4850937e-27
9.4800352e-27
9.4781351e-27
9.4775228e-27
9.4773669e-27
9.4773976e-27
9.4776339e-27
9.4783316e-27
9.4800938e-27
9.4968863e-27
9.4852962e-27
9.4802575e-27
9.4783667e-27
9.4777577e-27
9.4776028e-27
9.4776339e-27
9.4778704e-27
9.4785684e-27
9.480331e-27
9.4974156e-27
9.4859156e-27
9.480927e-27
9.4790558e-27
9.4784532e-27
9.4783001e-27
9.4783316e-27
9.4785684e-27
9.4792671e-27
9.4810308e-27
9.4987566e-27
9.4875535e-27
9.4826537e-27
9.4808086e-27
9.4802131e-27
9.4800618e-27
9.4800938e-27
9.480331e-27
9.4810308e-27
9.4827991e-27
2.4817945e-26
2.4788565e-26
2.4775736e-26
2.4770907e-26
2.4769346e-26
2.4768934e-26
2.4768961e-26
2.4769401e-26
2.4770717e-26
2.4774022e-26
2.4788565e-26
2.4759316e-26
2.4746529e-26
2.4741713e-26
2.4740156e-26
2.4739751e-26
2.4739797e-26
2.4740305e-26
2.4741854e-26
2.4745924e-26
2.4775736e-26
2.4746529e-26
2.4733762e-26
2.4728955e-26
2.4727402e-26
2.4727002e-26
2.4727065e-26
2.4727624e-26
2.4729301e-26
2.4733601e-26
2.4770907e-26
2.4741713e-26
2.4728955e-26
2.4724151e-26
2.47226e-26
2.4722203e-26
2.4722275e-26
2.4722858e-26
2.4724586e-26
2.4728952e-26
2.4769346e-26
2.4740156e-26
2.4727402e-26
2.47226e-26
2.4721051e-26
2.4720655e-26
2.472073e-26
2.4721322e-26
2.4723066e-26
2.4727451e-26
2.4768934e-26
2.4739751e-26
2.4727002e-26
2.4722203e-26
2.4720655e-26
2.472026e-26
2.4720337e-26
2.4720931e-26
2.472268e-26
2.4727069e-26
2.4768961e-26
2.4739797e-26
2.4727065e-26
2.4722275e-26
2.472073e-26
2.4720337e-26
2.4720414e-26
2.4721009e-26
2.4722759e-26
2.472715e-26
2.4769401e-26
2.4740305e-26
2.4727624e-26
2.4722858e-26
2.4721322e-26
2.4720931e-26
2.4721009e-26
2.4721605e-26
2.4723356e-26
2.4727747e-26
2.4770717e-26
2.4741854e-26
2.4729301e-26
2.4724586e-26
2.4723066e-26
2.472268e-26
2.4722759e-26
2.4723356e-26
2.4725108e-26
2.4729502e-26
2.4774022e-26
2.4745924e-26
2.4733601e-26
2.4728952e-26
2.4727451e-26
2.4727069e-26
2.472715e-26
2.4727747e-26
2.4729502e-26
2.4733908e-26
6.5622787e-26
6.5548052e-26
6.5515335e-26
6.5503002e-26
6.5499009e-26
6.5497956e-26
6.5498023e-26
6.5499136e-26
6.5502454e-26
6.551071e-26
6.5548052e-26
6.5473646e-26
6.5441033e-26
6.5428734e-26
6.5424754e-26
6.5423716e-26
6.5423833e-26
6.5425126e-26
6.5429049e-26
6.5439306e-26
6.5515335e-26
6.5441033e-26
6.5408473e-26
6.5396195e-26
6.5392224e-26
6.53912e-26
6.5391362e-26
6.5392787e-26
6.5397047e-26
6.5407901e-26
6.5503002e-26
6.5428734e-26
6.5396195e-26
6.5383926e-26
6.537996e-26
6.5378944e-26
6.5379129e-26
6.5380616e-26
6.5385008e-26
6.5396038e-26
6.5499009e-26
6.5424754e-26
6.5392224e-26
6.537996e-26
6.5375998e-26
6.5374986e-26
6.5375179e-26
6.5376689e-26
6.5381124e-26
6.5392201e-26
6.5497956e-26
6.5423716e-26
6.53912e-26
6.5378944e-26
6.5374986e-26
6.5373975e-26
6.5374172e-26
6.5375689e-26
6.5380136e-26
6.5391226e-26
6.5498023e-26
6.5423833e-26
6.5391362e-26
6.5379129e-26
6.5375179e-26
6.5374172e-26
6.537437e-26
6.5375889e-26
6.538034e-26
6.5391433e-26
6.5499136e-26
6.5425126e-26
6.5392787e-26
6.5380616e-26
6.5376689e-26
6.5375689e-26
6.5375889e-26
6.537741e-26
6.5381862e-26
6.5392958e-26
6.5502454e-26
6.5429049e-26
6.5397047e-26
6.5385008e-26
6.5381124e-26
6.5380136e-26
6.538034e-26
6.5381862e-26
6.5386318e-26
6.539742e-26
6.551071e-26
6.5439306e-26
6.5407901e-26
6.5396038e-26
6.5392201e-26
6.5391226e-26
6.5391433e-26
6.5392958e-26
6.539742e-26
6.5408551e-26
1.759212e-25
1.7572857e-25
1.7564404e-25
1.7561212e-25
1.7560178e-25
1.7559905e-25
1.7559922e-25
1.7560208e-25
1.7561055e-25
1.7563146e-25
1.7572857e-25
1.7553679e-25
1.7545252e-25
1.7542069e-25
1.7541038e-25
1.7540769e-25
1.7540799e-25
1.7541132e-25
1.754214e-25
1.7544761e-25
1.7564404e-25
1.7545252e-25
1.7536838e-25
1.7533661e-25
1.7532632e-25
1.7532367e-25
1.7532409e-25
1.7532777e-25
1.7533874e-25
1.7536653e-25
1.7561212e-25
1.7542069e-25
1.7533661e-25
1.7530486e-25
1.7529459e-25
1.7529195e-25
1.7529243e-25
1.7529628e-25
1.753076e-25
1.7533585e-25
1.7560178e-25
1.7541038e-25
1.7532632e-25
1.7529459e-25
1.7528432e-25
1.752817e-25
1.752822e-25
1.7528611e-25
1.7529754e-25
1.7532592e-25
1.7559905e-25
1.7540769e-25
1.7532367e-25
1.7529195e-25
1.752817e-25
1.7527908e-25
1.7527959e-25
1.7528352e-25
1.7529498e-25
1.7532339e-25
1.7559922e-25
1.7540799e-25
1.7532409e-25
1.7529243e-25
1.752822e-25
1.7527959e-25
1.7528011e-25
1.7528404e-25
1.7529551e-25
1.7532393e-25
1.7560208e-25
1.7541132e-25
1.7532777e-25
1.7529628e-25
1.7528611e-25
1.7528352e-25
1.7528404e-25
1.7528798e-25
1.7529945e-25
1.7532788e-25
1.7561055e-25
1.754214e-25
1.7533874e-25
1.753076e-25
1.7529754e-25
1.7529498e-25
1.7529551e-25
1.7529945e-25
1.7531094e-25
1.7533938e-25
1.7563146e-25
1.7544761e-25
1.7536653e-25
1.7533585e-25
1.7532592e-25
1.7532339e-25
1.7532393e-25
1.7532788e-25
1.7533938e-25
1.7536789e-25
4.7812171e-25
4.776187e-25
4.7739741e-25
4.7731374e-25
4.7728661e-25
4.7727944e-25
4.7727987e-25
4.7728731e-25
4.7730927e-25
4.7736292e-25
4.776187e-25
4.7711786e-25
4.7689725e-25
4.7681381e-25
4.7678676e-25
4.767797e-25
4.7678049e-25
4.767892e-25
4.7681545e-25
4.7688332e-25
4.7739741e-25
4.7689725e-25
4.76677e-25
4.765937e-25
4.7656671e-25
4.7655974e-25
4.7656084e-25
4.7657049e-25
4.7659913e-25
4.7667124e-25
4.7731374e-25
4.7681381e-25
4.765937e-25
4.7651046e-25
4.7648351e-25
4.764766e-25
4.7647786e-25
4.7648795e-25
4.7651752e-25
4.7659087e-25
4.7728661e-25
4.7678676e-25
4.7656671e-25
4.7648351e-25
4.7645658e-25
4.7644969e-25
4.7645101e-25
4.7646127e-25
4.7649114e-25
4.7656484e-25
4.7727944e-25
4.767797e-25
4.7655974e-25
4.764766e-25
4.7644969e-25
4.7644282e-25
4.7644417e-25
4.7645447e-25
4.7648443e-25
4.7655821e-25
4.7727987e-25
4.7678049e-25
4.7656084e-25
4.7647786e-25
4.7645101e-25
4.7644417e-25
4.7644553e-25
4.7645584e-25
4.7648583e-25
4.7655963e-25
4.7728731e-25
4.767892e-25
4.7657049e-25
4.7648795e-25
4.7646127e-25
4.7645447e-25
4.7645584e-25
4.7646617e-25
4.7649617e-25
4.7656999e-25
4.7730927e-25
4.7681545e-25
4.7659913e-25
4.7651752e-25
4.7649114e-25
4.7648443e-25
4.7648583e-25
4.7649617e-25
4.7652619e-25
4.7660005e-25
4.7736292e-25
4.7688332e-25
4.7667124e-25
4.7659087e-25
4.7656484e-25
4.7655821e-25
4.7655963e-25
4.7656999e-25
4.7660005e-25
4.7667409e-25
1.3173202e-24
1.3159894e-24
1.3154026e-24
1.3151804e-24
1.3151083e-24
1.3150892e-24
1.3150903e-24
1.31511e-24
1.3151676e-24
1.3153072e-24
1.3159894e-24
1.3146644e-24
1.3140794e-24
1.3138578e-24
1.3137859e-24
1.3137671e-24
1.3137692e-24
1.3137922e-24
1.3138616e-24
1.3140398e-24
1.3154026e-24
1.3140794e-24
1.3134952e-24
1.313274e-24
1.3132023e-24
1.3131838e-24
1.3131867e-24
1.3132123e-24
1.3132881e-24
1.3134778e-24
1.3151804e-24
1.3138578e-24
1.313274e-24
1.313053e-24
1.3129813e-24
1.3129629e-24
1.3129663e-24
1.3129931e-24
1.3130715e-24
1.3132646e-24
1.3151083e-24
1.3137859e-24
1.3132023e-24
1.3129813e-24
1.3129097e-24
1.3128914e-24
1.312895e-24
1.3129222e-24
1.3130014e-24
1.3131954e-24
1.3150892e-24
1.3137671e-24
1.3131838e-24
1.3129629e-24
1.3128914e-24
1.3128732e-24
1.3128768e-24
1.3129042e-24
1.3129835e-24
1.3131778e-24
1.3150903e-24
1.3137692e-24
1.3131867e-24
1.3129663e-24
1.312895e-24
1.3128768e-24
1.3128804e-24
1.3129078e-24
1.3129873e-24
1.3131816e-24
1.31511e-24
1.3137922e-24
1.3132123e-24
1.3129931e-24
1.3129222e-24
1.3129042e-24
1.3129078e-24
1.3129353e-24
1.3130148e-24
1.3132091e-24
1.3151676e-24
1.3138616e-24
1.3132881e-24
1.3130715e-24
1.3130014e-24
1.3129835e-24
1.3129873e-24
1.3130148e-24
1.3130943e-24
1.3132888e-24
1.3153072e-24
1.3140398e-24
1.3134778e-24
1.3132646e-24
1.3131954e-24
1.3131778e-24
1.3131816e-24
1.3132091e-24
1.3132888e-24