/*--------------------------------*- C++ -*----------------------------------*\
| =========                 |                                                 |
| \\      /  F ield         | OpenFOAM: The Open Source CFD Toolbox           |
|  \\    /   O peration     | Version:  dev                                   |
|   \\  /    A nd           | Web:      www.OpenFOAM.org                      |
|    \\/     M anipulation  |                                                 |
\*---------------------------------------------------------------------------*/
FoamFile
{
    version     2.0;
    format      ascii;
    class       volScalarField;
    location    "44.995";
    object      A;
}
// * * * * * * * * * * * * * * * * * * * * * * * * * * * * * * * * * * * * * //

dimensions      [0 0 0 0 1 0 0];

internalField   nonuniform List<scalar> 
10000
(
4.6679672e-35
4.6573621e-35
4.6539248e-35
4.6529732e-35
4.6527474e-35
4.6527017e-35
4.6527125e-35
4.6528116e-35
4.6532105e-35
4.6544517e-35
4.6573621e-35
4.6468193e-35
4.6433988e-35
4.6424515e-35
4.6422268e-35
4.6421817e-35
4.6421949e-35
4.6423057e-35
4.6427528e-35
4.6441721e-35
4.6539248e-35
4.6433988e-35
4.6399848e-35
4.6390393e-35
4.6388152e-35
4.6387705e-35
4.6387855e-35
4.6389031e-35
4.6393725e-35
4.640839e-35
4.6529732e-35
4.6424515e-35
4.6390393e-35
4.6380945e-35
4.6378705e-35
4.6378261e-35
4.6378418e-35
4.6379619e-35
4.638438e-35
4.6399157e-35
4.6527474e-35
4.6422268e-35
4.6388152e-35
4.6378705e-35
4.6376467e-35
4.6376023e-35
4.6376182e-35
4.637739e-35
4.6382168e-35
4.6396969e-35
4.6527017e-35
4.6421817e-35
4.6387705e-35
4.6378261e-35
4.6376023e-35
4.637558e-35
4.637574e-35
4.637695e-35
4.6381732e-35
4.6396537e-35
4.6527125e-35
4.6421949e-35
4.6387855e-35
4.6378418e-35
4.6376182e-35
4.637574e-35
4.6375901e-35
4.6377111e-35
4.6381894e-35
4.63967e-35
4.6528116e-35
4.6423057e-35
4.6389031e-35
4.6379619e-35
4.637739e-35
4.637695e-35
4.6377111e-35
4.6378322e-35
4.6383106e-35
4.6397915e-35
4.6532105e-35
4.6427528e-35
4.6393725e-35
4.638438e-35
4.6382168e-35
4.6381732e-35
4.6381894e-35
4.6383106e-35
4.6387895e-35
4.6402715e-35
4.6544517e-35
4.6441721e-35
4.640839e-35
4.6399157e-35
4.6396969e-35
4.6396537e-35
4.63967e-35
4.6397915e-35
4.6402715e-35
4.6417583e-35
1.7334955e-34
1.7297087e-34
1.7284514e-34
1.7281026e-34
1.7280198e-34
1.728003e-34
1.7280069e-34
1.728043e-34
1.7281887e-34
1.728663e-34
1.7297087e-34
1.7259438e-34
1.7246925e-34
1.7243452e-34
1.7242628e-34
1.7242462e-34
1.724251e-34
1.7242914e-34
1.724455e-34
1.7249957e-34
1.7284514e-34
1.7246925e-34
1.7234436e-34
1.723097e-34
1.7230148e-34
1.7229984e-34
1.7230038e-34
1.7230468e-34
1.7232186e-34
1.7237768e-34
1.7281026e-34
1.7243452e-34
1.723097e-34
1.7227507e-34
1.7226685e-34
1.7226522e-34
1.7226579e-34
1.7227017e-34
1.7228761e-34
1.7234384e-34
1.7280198e-34
1.7242628e-34
1.7230148e-34
1.7226685e-34
1.7225863e-34
1.7225701e-34
1.7225759e-34
1.72262e-34
1.7227949e-34
1.7233581e-34
1.728003e-34
1.7242462e-34
1.7229984e-34
1.7226522e-34
1.7225701e-34
1.7225538e-34
1.7225596e-34
1.7226038e-34
1.7227789e-34
1.7233423e-34
1.7280069e-34
1.724251e-34
1.7230038e-34
1.7226579e-34
1.7225759e-34
1.7225596e-34
1.7225655e-34
1.7226097e-34
1.7227848e-34
1.7233482e-34
1.728043e-34
1.7242914e-34
1.7230468e-34
1.7227017e-34
1.72262e-34
1.7226038e-34
1.7226097e-34
1.7226539e-34
1.7228291e-34
1.7233926e-34
1.7281887e-34
1.724455e-34
1.7232186e-34
1.7228761e-34
1.7227949e-34
1.7227789e-34
1.7227848e-34
1.7228291e-34
1.7230044e-34
1.7235684e-34
1.728663e-34
1.7249957e-34
1.7237768e-34
1.7234384e-34
1.7233581e-34
1.7233423e-34
1.7233482e-34
1.7233926e-34
1.7235684e-34
1.7241342e-34
4.2808158e-34
4.2717684e-34
4.2687374e-34
4.2678947e-34
4.2676944e-34
4.2676537e-34
4.2676629e-34
4.2677491e-34
4.2680976e-34
4.2692682e-34
4.2717684e-34
4.2627724e-34
4.2597557e-34
4.2589167e-34
4.2587173e-34
4.2586771e-34
4.2586886e-34
4.2587853e-34
4.2591778e-34
4.2605119e-34
4.2687374e-34
4.2597557e-34
4.2567446e-34
4.2559072e-34
4.2557083e-34
4.2556686e-34
4.2556816e-34
4.2557846e-34
4.2561973e-34
4.2575744e-34
4.2678947e-34
4.2589167e-34
4.2559072e-34
4.2550704e-34
4.2548717e-34
4.2548321e-34
4.2548458e-34
4.254951e-34
4.2553699e-34
4.2567572e-34
4.2676944e-34
4.2587173e-34
4.2557083e-34
4.2548717e-34
4.254673e-34
4.2546336e-34
4.2546474e-34
4.2547533e-34
4.2551737e-34
4.2565631e-34
4.2676537e-34
4.2586771e-34
4.2556686e-34
4.2548321e-34
4.2546336e-34
4.2545942e-34
4.2546081e-34
4.2547141e-34
4.2551349e-34
4.2565247e-34
4.2676629e-34
4.2586886e-34
4.2556816e-34
4.2548458e-34
4.2546474e-34
4.2546081e-34
4.2546221e-34
4.2547282e-34
4.255149e-34
4.2565389e-34
4.2677491e-34
4.2587853e-34
4.2557846e-34
4.254951e-34
4.2547533e-34
4.2547141e-34
4.2547282e-34
4.2548343e-34
4.2552552e-34
4.2566454e-34
4.2680976e-34
4.2591778e-34
4.2561973e-34
4.2553699e-34
4.2551737e-34
4.2551349e-34
4.255149e-34
4.2552552e-34
4.2556766e-34
4.2570678e-34
4.2692682e-34
4.2605119e-34
4.2575744e-34
4.2567572e-34
4.2565631e-34
4.2565247e-34
4.2565389e-34
4.2566454e-34
4.2570678e-34
4.2584636e-34
1.0095586e-33
1.0074929e-33
1.0067979e-33
1.0066043e-33
1.0065582e-33
1.0065488e-33
1.0065509e-33
1.0065704e-33
1.0066492e-33
1.0069152e-33
1.0074929e-33
1.0054389e-33
1.004747e-33
1.0045543e-33
1.0045084e-33
1.0044992e-33
1.0045017e-33
1.0045237e-33
1.0046128e-33
1.0049172e-33
1.0067979e-33
1.004747e-33
1.0040565e-33
1.0038641e-33
1.0038184e-33
1.0038092e-33
1.0038122e-33
1.0038356e-33
1.0039295e-33
1.0042439e-33
1.0066043e-33
1.0045543e-33
1.0038641e-33
1.0036719e-33
1.0036262e-33
1.0036171e-33
1.0036201e-33
1.0036441e-33
1.0037394e-33
1.0040563e-33
1.0065582e-33
1.0045084e-33
1.0038184e-33
1.0036262e-33
1.0035805e-33
1.0035714e-33
1.0035745e-33
1.0035986e-33
1.0036943e-33
1.0040117e-33
1.0065488e-33
1.0044992e-33
1.0038092e-33
1.0036171e-33
1.0035714e-33
1.0035623e-33
1.0035655e-33
1.0035896e-33
1.0036854e-33
1.0040028e-33
1.0065509e-33
1.0045017e-33
1.0038122e-33
1.0036201e-33
1.0035745e-33
1.0035655e-33
1.0035686e-33
1.0035928e-33
1.0036886e-33
1.004006e-33
1.0065704e-33
1.0045237e-33
1.0038356e-33
1.0036441e-33
1.0035986e-33
1.0035896e-33
1.0035928e-33
1.003617e-33
1.0037128e-33
1.0040303e-33
1.0066492e-33
1.0046128e-33
1.0039295e-33
1.0037394e-33
1.0036943e-33
1.0036854e-33
1.0036886e-33
1.0037128e-33
1.0038086e-33
1.0041264e-33
1.0069152e-33
1.0049172e-33
1.0042439e-33
1.0040563e-33
1.0040117e-33
1.0040028e-33
1.004006e-33
1.0040303e-33
1.0041264e-33
1.0044452e-33
2.3887061e-33
2.3839752e-33
2.3823786e-33
2.3819332e-33
2.3818271e-33
2.3818054e-33
2.38181e-33
2.3818542e-33
2.3820321e-33
2.3826307e-33
2.3839752e-33
2.3792705e-33
2.3776813e-33
2.3772378e-33
2.3771321e-33
2.3771107e-33
2.3771165e-33
2.3771666e-33
2.3773688e-33
2.3780578e-33
2.3823786e-33
2.3776813e-33
2.3760949e-33
2.3756523e-33
2.3755469e-33
2.3755257e-33
2.3755324e-33
2.3755859e-33
2.3757992e-33
2.376512e-33
2.3819332e-33
2.3772378e-33
2.3756523e-33
2.3752099e-33
2.3751046e-33
2.3750836e-33
2.3750906e-33
2.3751453e-33
2.3753621e-33
2.3760804e-33
2.3818271e-33
2.3771321e-33
2.3755469e-33
2.3751046e-33
2.3749993e-33
2.3749783e-33
2.3749855e-33
2.3750405e-33
2.3752581e-33
2.3759776e-33
2.3818054e-33
2.3771107e-33
2.3755257e-33
2.3750836e-33
2.3749783e-33
2.3749574e-33
2.3749646e-33
2.3750197e-33
2.3752375e-33
2.3759572e-33
2.38181e-33
2.3771165e-33
2.3755324e-33
2.3750906e-33
2.3749855e-33
2.3749646e-33
2.3749718e-33
2.3750269e-33
2.3752448e-33
2.3759646e-33
2.3818542e-33
2.3771666e-33
2.3755859e-33
2.3751453e-33
2.3750405e-33
2.3750197e-33
2.3750269e-33
2.3750821e-33
2.3753e-33
2.3760199e-33
2.3820321e-33
2.3773688e-33
2.3757992e-33
2.3753621e-33
2.3752581e-33
2.3752375e-33
2.3752448e-33
2.3753e-33
2.3755181e-33
2.3762385e-33
2.3826307e-33
2.3780578e-33
2.376512e-33
2.3760804e-33
2.3759776e-33
2.3759572e-33
2.3759646e-33
2.3760199e-33
2.3762385e-33
2.3769614e-33
5.7213918e-33
5.7104275e-33
5.7067177e-33
5.7056813e-33
5.705434e-33
5.7053834e-33
5.7053937e-33
5.7054949e-33
5.7059011e-33
5.7072593e-33
5.7104275e-33
5.6995234e-33
5.6958304e-33
5.6947983e-33
5.6945521e-33
5.6945022e-33
5.6945154e-33
5.6946305e-33
5.6950945e-33
5.6966682e-33
5.7067177e-33
5.6958304e-33
5.6921442e-33
5.691114e-33
5.6908684e-33
5.690819e-33
5.6908343e-33
5.6909575e-33
5.691448e-33
5.6930783e-33
5.7056813e-33
5.6947983e-33
5.691114e-33
5.6900845e-33
5.6898391e-33
5.68979e-33
5.6898061e-33
5.6899322e-33
5.6904308e-33
5.6920744e-33
5.705434e-33
5.6945521e-33
5.6908684e-33
5.6898391e-33
5.6895938e-33
5.6895448e-33
5.6895611e-33
5.6896881e-33
5.6901887e-33
5.6918351e-33
5.7053834e-33
5.6945022e-33
5.690819e-33
5.68979e-33
5.6895448e-33
5.6894958e-33
5.6895123e-33
5.6896395e-33
5.6901405e-33
5.6917874e-33
5.7053937e-33
5.6945154e-33
5.6908343e-33
5.6898061e-33
5.6895611e-33
5.6895123e-33
5.6895289e-33
5.6896561e-33
5.6901572e-33
5.6918043e-33
5.7054949e-33
5.6946305e-33
5.6909575e-33
5.6899322e-33
5.6896881e-33
5.6896395e-33
5.6896561e-33
5.6897835e-33
5.6902847e-33
5.6919321e-33
5.7059011e-33
5.6950945e-33
5.691448e-33
5.6904308e-33
5.6901887e-33
5.6901405e-33
5.6901572e-33
5.6902847e-33
5.6907864e-33
5.6924349e-33
5.7072593e-33
5.6966682e-33
5.6930783e-33
5.6920744e-33
5.6918351e-33
5.6917874e-33
5.6918043e-33
5.6919321e-33
5.6924349e-33
5.6940888e-33
1.3895867e-32
1.3870111e-32
1.3861375e-32
1.3858931e-32
1.3858347e-32
1.3858227e-32
1.3858251e-32
1.3858486e-32
1.3859425e-32
1.3862546e-32
1.3870111e-32
1.3844495e-32
1.3835798e-32
1.3833363e-32
1.3832782e-32
1.3832664e-32
1.3832695e-32
1.3832963e-32
1.3834042e-32
1.3837684e-32
1.3861375e-32
1.3835798e-32
1.3827116e-32
1.3824687e-32
1.3824107e-32
1.382399e-32
1.3824025e-32
1.3824313e-32
1.3825456e-32
1.3829234e-32
1.3858931e-32
1.3833363e-32
1.3824687e-32
1.3822258e-32
1.3821679e-32
1.3821563e-32
1.38216e-32
1.3821895e-32
1.3823058e-32
1.3826868e-32
1.3858347e-32
1.3832782e-32
1.3824107e-32
1.3821679e-32
1.38211e-32
1.3820984e-32
1.3821022e-32
1.3821319e-32
1.3822486e-32
1.3826303e-32
1.3858227e-32
1.3832664e-32
1.382399e-32
1.3821563e-32
1.3820984e-32
1.3820868e-32
1.3820906e-32
1.3821204e-32
1.3822372e-32
1.382619e-32
1.3858251e-32
1.3832695e-32
1.3824025e-32
1.38216e-32
1.3821022e-32
1.3820906e-32
1.3820945e-32
1.3821243e-32
1.3822411e-32
1.382623e-32
1.3858486e-32
1.3832963e-32
1.3824313e-32
1.3821895e-32
1.3821319e-32
1.3821204e-32
1.3821243e-32
1.3821541e-32
1.3822709e-32
1.3826529e-32
1.3859425e-32
1.3834042e-32
1.3825456e-32
1.3823058e-32
1.3822486e-32
1.3822372e-32
1.3822411e-32
1.3822709e-32
1.3823879e-32
1.3827701e-32
1.3862546e-32
1.3837684e-32
1.3829234e-32
1.3826868e-32
1.3826303e-32
1.382619e-32
1.382623e-32
1.3826529e-32
1.3827701e-32
1.3831535e-32
3.4235306e-32
3.4173957e-32
3.4153099e-32
3.4147254e-32
3.4145857e-32
3.4145569e-32
3.4145623e-32
3.4146177e-32
3.414838e-32
3.4155653e-32
3.4173957e-32
3.411294e-32
3.4092173e-32
3.4086352e-32
3.408496e-32
3.4084677e-32
3.4084748e-32
3.4085383e-32
3.4087927e-32
3.4096474e-32
3.4153099e-32
3.4092173e-32
3.4071443e-32
3.4065633e-32
3.4064244e-32
3.4063964e-32
3.4064048e-32
3.4064731e-32
3.4067431e-32
3.4076312e-32
3.4147254e-32
3.4086352e-32
3.4065633e-32
3.4059826e-32
3.4058439e-32
3.405816e-32
3.4058249e-32
3.4058949e-32
3.4061697e-32
3.4070656e-32
3.4145857e-32
3.408496e-32
3.4064244e-32
3.4058439e-32
3.4057052e-32
3.4056774e-32
3.4056864e-32
3.4057569e-32
3.4060329e-32
3.4069304e-32
3.4145569e-32
3.4084677e-32
3.4063964e-32
3.405816e-32
3.4056774e-32
3.4056496e-32
3.4056587e-32
3.4057293e-32
3.4060056e-32
3.4069034e-32
3.4145623e-32
3.4084748e-32
3.4064048e-32
3.4058249e-32
3.4056864e-32
3.4056587e-32
3.4056678e-32
3.4057385e-32
3.4060148e-32
3.4069127e-32
3.4146177e-32
3.4085383e-32
3.4064731e-32
3.4058949e-32
3.4057569e-32
3.4057293e-32
3.4057385e-32
3.4058092e-32
3.4060856e-32
3.4069836e-32
3.414838e-32
3.4087927e-32
3.4067431e-32
3.4061697e-32
3.4060329e-32
3.4060056e-32
3.4060148e-32
3.4060856e-32
3.4063622e-32
3.4072609e-32
3.4155653e-32
3.4096474e-32
3.4076312e-32
3.4070656e-32
3.4069304e-32
3.4069034e-32
3.4069127e-32
3.4069836e-32
3.4072609e-32
3.4081625e-32
8.5569959e-32
8.542178e-32
8.537128e-32
8.5357109e-32
8.5353716e-32
8.5353017e-32
8.5353144e-32
8.5354465e-32
8.5359707e-32
8.537689e-32
8.542178e-32
8.5274391e-32
8.5224111e-32
8.5209996e-32
8.5206617e-32
8.5205928e-32
8.5206098e-32
8.5207621e-32
8.5213708e-32
8.5234054e-32
8.537128e-32
8.5224111e-32
8.5173918e-32
8.5159829e-32
8.5156458e-32
8.5155777e-32
8.5155977e-32
8.5157619e-32
8.5164093e-32
8.5185267e-32
8.5357109e-32
8.5209996e-32
8.5159829e-32
8.514575e-32
8.5142381e-32
8.5141704e-32
8.5141916e-32
8.5143601e-32
8.5150193e-32
8.5171562e-32
8.5353716e-32
8.5206617e-32
8.5156458e-32
8.5142381e-32
8.5139015e-32
8.5138339e-32
8.5138555e-32
8.5140251e-32
8.5146872e-32
8.5168283e-32
8.5353017e-32
8.5205928e-32
8.5155777e-32
8.5141704e-32
8.5138339e-32
8.5137663e-32
8.5137881e-32
8.5139581e-32
8.5146208e-32
8.5167626e-32
8.5353144e-32
8.5206098e-32
8.5155977e-32
8.5141916e-32
8.5138555e-32
8.5137881e-32
8.51381e-32
8.5139801e-32
8.5146429e-32
8.5167849e-32
8.5354465e-32
8.5207621e-32
8.5157619e-32
8.5143601e-32
8.5140251e-32
8.5139581e-32
8.5139801e-32
8.5141502e-32
8.5148133e-32
8.5169556e-32
8.5359707e-32
8.5213708e-32
8.5164093e-32
8.5150193e-32
8.5146872e-32
8.5146208e-32
8.5146429e-32
8.5148133e-32
8.5154769e-32
8.5176207e-32
8.537689e-32
8.5234054e-32
8.5185267e-32
8.5171562e-32
8.5168283e-32
8.5167626e-32
8.5167849e-32
8.5169556e-32
8.5176207e-32
8.5197712e-32
2.1700005e-31
2.1663709e-31
2.165131e-31
2.1647826e-31
2.1646991e-31
2.1646818e-31
2.1646849e-31
2.1647169e-31
2.1648433e-31
2.1652551e-31
2.1663709e-31
2.1627604e-31
2.1615259e-31
2.1611788e-31
2.1610956e-31
2.1610786e-31
2.1610828e-31
2.1611198e-31
2.1612675e-31
2.1617589e-31
2.165131e-31
2.1615259e-31
2.1602935e-31
2.159947e-31
2.159864e-31
2.1598472e-31
2.1598521e-31
2.1598922e-31
2.1600496e-31
2.1605618e-31
2.1647826e-31
2.1611788e-31
2.159947e-31
2.1596008e-31
2.1595179e-31
2.1595012e-31
2.1595064e-31
2.1595475e-31
2.1597079e-31
2.1602251e-31
2.1646991e-31
2.1610956e-31
2.159864e-31
2.1595179e-31
2.159435e-31
2.1594184e-31
2.1594236e-31
2.1594651e-31
2.1596262e-31
2.1601444e-31
2.1646818e-31
2.1610786e-31
2.1598472e-31
2.1595012e-31
2.1594184e-31
2.1594017e-31
2.159407e-31
2.1594485e-31
2.1596098e-31
2.1601282e-31
2.1646849e-31
2.1610828e-31
2.1598521e-31
2.1595064e-31
2.1594236e-31
2.159407e-31
2.1594123e-31
2.1594539e-31
2.1596152e-31
2.1601336e-31
2.1647169e-31
2.1611198e-31
2.1598922e-31
2.1595475e-31
2.1594651e-31
2.1594485e-31
2.1594539e-31
2.1594954e-31
2.1596568e-31
2.1601753e-31
2.1648433e-31
2.1612675e-31
2.1600496e-31
2.1597079e-31
2.1596262e-31
2.1596098e-31
2.1596152e-31
2.1596568e-31
2.1598183e-31
2.1603372e-31
2.1652551e-31
2.1617589e-31
2.1605618e-31
2.1602251e-31
2.1601444e-31
2.1601282e-31
2.1601336e-31
2.1601753e-31
2.1603372e-31
2.1608576e-31
5.5836197e-31
5.574603e-31
5.5715158e-31
5.5706471e-31
5.5704386e-31
5.5703954e-31
5.5704028e-31
5.5704813e-31
5.5707909e-31
5.5717917e-31
5.574603e-31
5.5656333e-31
5.5625592e-31
5.5616938e-31
5.5614862e-31
5.5614437e-31
5.5614537e-31
5.5615453e-31
5.561909e-31
5.5631131e-31
5.5715158e-31
5.5625592e-31
5.5594904e-31
5.5586266e-31
5.5584194e-31
5.5583774e-31
5.5583893e-31
5.5584885e-31
5.558877e-31
5.5601343e-31
5.5706471e-31
5.5616938e-31
5.5586266e-31
5.5577633e-31
5.5575563e-31
5.5575145e-31
5.5575272e-31
5.5576291e-31
5.5580252e-31
5.5592951e-31
5.5704386e-31
5.5614862e-31
5.5584194e-31
5.5575563e-31
5.5573494e-31
5.5573077e-31
5.5573207e-31
5.5574234e-31
5.5578213e-31
5.5590938e-31
5.5703954e-31
5.5614437e-31
5.5583774e-31
5.5575145e-31
5.5573077e-31
5.5572661e-31
5.5572792e-31
5.557382e-31
5.5577804e-31
5.5590533e-31
5.5704028e-31
5.5614537e-31
5.5583893e-31
5.5575272e-31
5.5573207e-31
5.5572792e-31
5.5572923e-31
5.5573952e-31
5.5577937e-31
5.5590668e-31
5.5704813e-31
5.5615453e-31
5.5584885e-31
5.5576291e-31
5.5574234e-31
5.557382e-31
5.5573952e-31
5.5574982e-31
5.5578968e-31
5.55917e-31
5.5707909e-31
5.561909e-31
5.558877e-31
5.5580252e-31
5.5578213e-31
5.5577804e-31
5.5577937e-31
5.5578968e-31
5.5582957e-31
5.5595698e-31
5.5717917e-31
5.5631131e-31
5.5601343e-31
5.5592951e-31
5.5590938e-31
5.5590533e-31
5.5590668e-31
5.55917e-31
5.5595698e-31
5.5608477e-31
1.4578432e-30
1.4555714e-30
1.4547918e-30
1.4545722e-30
1.4545194e-30
1.4545085e-30
1.4545102e-30
1.4545298e-30
1.4546067e-30
1.4548535e-30
1.4555714e-30
1.4533114e-30
1.452535e-30
1.4523162e-30
1.4522636e-30
1.4522529e-30
1.4522554e-30
1.4522783e-30
1.4523692e-30
1.4526686e-30
1.4547918e-30
1.452535e-30
1.4517601e-30
1.4515416e-30
1.4514892e-30
1.4514785e-30
1.4514815e-30
1.4515064e-30
1.4516037e-30
1.4519168e-30
1.4545722e-30
1.4523162e-30
1.4515416e-30
1.4513233e-30
1.4512709e-30
1.4512603e-30
1.4512635e-30
1.4512891e-30
1.4513884e-30
1.4517048e-30
1.4545194e-30
1.4522636e-30
1.4514892e-30
1.4512709e-30
1.4512185e-30
1.451208e-30
1.4512112e-30
1.451237e-30
1.4513367e-30
1.4516538e-30
1.4545085e-30
1.4522529e-30
1.4514785e-30
1.4512603e-30
1.451208e-30
1.4511974e-30
1.4512007e-30
1.4512266e-30
1.4513264e-30
1.4516436e-30
1.4545102e-30
1.4522554e-30
1.4514815e-30
1.4512635e-30
1.4512112e-30
1.4512007e-30
1.451204e-30
1.4512299e-30
1.4513297e-30
1.4516469e-30
1.4545298e-30
1.4522783e-30
1.4515064e-30
1.4512891e-30
1.451237e-30
1.4512266e-30
1.4512299e-30
1.4512558e-30
1.4513556e-30
1.4516729e-30
1.4546067e-30
1.4523692e-30
1.4516037e-30
1.4513884e-30
1.4513367e-30
1.4513264e-30
1.4513297e-30
1.4513556e-30
1.4514556e-30
1.4517731e-30
1.4548535e-30
1.4526686e-30
1.4519168e-30
1.4517048e-30
1.4516538e-30
1.4516436e-30
1.4516469e-30
1.4516729e-30
1.4517731e-30
1.4520915e-30
3.8624413e-30
3.856636e-30
3.8546395e-30
3.8540762e-30
3.8539407e-30
3.8539126e-30
3.853917e-30
3.8539665e-30
3.8541601e-30
3.8547773e-30
3.856636e-30
3.8508604e-30
3.8488721e-30
3.8483109e-30
3.848176e-30
3.8481482e-30
3.8481545e-30
3.8482128e-30
3.8484432e-30
3.8491986e-30
3.8546395e-30
3.8488721e-30
3.8468872e-30
3.846327e-30
3.8461924e-30
3.846165e-30
3.8461726e-30
3.846236e-30
3.8464832e-30
3.8472747e-30
3.8540762e-30
3.8483109e-30
3.846327e-30
3.8457671e-30
3.8456326e-30
3.8456054e-30
3.8456135e-30
3.8456788e-30
3.8459311e-30
3.8467311e-30
3.8539407e-30
3.848176e-30
3.8461924e-30
3.8456326e-30
3.8454981e-30
3.845471e-30
3.8454793e-30
3.8455451e-30
3.8457986e-30
3.8466004e-30
3.8539126e-30
3.8481482e-30
3.846165e-30
3.8456054e-30
3.845471e-30
3.8454438e-30
3.8454522e-30
3.8455181e-30
3.845772e-30
3.8465741e-30
3.853917e-30
3.8481545e-30
3.8461726e-30
3.8456135e-30
3.8454793e-30
3.8454522e-30
3.8454606e-30
3.8455266e-30
3.8457805e-30
3.8465827e-30
3.8539665e-30
3.8482128e-30
3.846236e-30
3.8456788e-30
3.8455451e-30
3.8455181e-30
3.8455266e-30
3.8455926e-30
3.8458466e-30
3.8466489e-30
3.8541601e-30
3.8484432e-30
3.8464832e-30
3.8459311e-30
3.8457986e-30
3.845772e-30
3.8457805e-30
3.8458466e-30
3.8461008e-30
3.8469036e-30
3.8547773e-30
3.8491986e-30
3.8472747e-30
3.8467311e-30
3.8466004e-30
3.8465741e-30
3.8465827e-30
3.8466489e-30
3.8469036e-30
3.8477088e-30
1.0384405e-29
1.0369358e-29
1.0364173e-29
1.0362708e-29
1.0362355e-29
1.0362281e-29
1.0362293e-29
1.036242e-29
1.0362914e-29
1.036448e-29
1.0369358e-29
1.0354388e-29
1.0349224e-29
1.0347764e-29
1.0347413e-29
1.034734e-29
1.0347357e-29
1.0347507e-29
1.03481e-29
1.0350033e-29
1.0364173e-29
1.0349224e-29
1.0344068e-29
1.0342611e-29
1.034226e-29
1.0342189e-29
1.0342208e-29
1.0342372e-29
1.034301e-29
1.034504e-29
1.0362708e-29
1.0347764e-29
1.0342611e-29
1.0341154e-29
1.0340804e-29
1.0340733e-29
1.0340754e-29
1.0340923e-29
1.0341574e-29
1.0343627e-29
1.0362355e-29
1.0347413e-29
1.034226e-29
1.0340804e-29
1.0340454e-29
1.0340383e-29
1.0340405e-29
1.0340575e-29
1.0341229e-29
1.0343287e-29
1.0362281e-29
1.034734e-29
1.0342189e-29
1.0340733e-29
1.0340383e-29
1.0340312e-29
1.0340334e-29
1.0340505e-29
1.034116e-29
1.0343218e-29
1.0362293e-29
1.0347357e-29
1.0342208e-29
1.0340754e-29
1.0340405e-29
1.0340334e-29
1.0340356e-29
1.0340527e-29
1.0341182e-29
1.034324e-29
1.036242e-29
1.0347507e-29
1.0342372e-29
1.0340923e-29
1.0340575e-29
1.0340505e-29
1.0340527e-29
1.0340698e-29
1.0341353e-29
1.0343412e-29
1.0362914e-29
1.03481e-29
1.034301e-29
1.0341574e-29
1.0341229e-29
1.034116e-29
1.0341182e-29
1.0341353e-29
1.0342009e-29
1.0344069e-29
1.036448e-29
1.0350033e-29
1.034504e-29
1.0343627e-29
1.0343287e-29
1.0343218e-29
1.034324e-29
1.0343412e-29
1.0344069e-29
1.0346135e-29
2.8332028e-29
2.8292475e-29
2.8278814e-29
2.827495e-29
2.8274018e-29
2.8273824e-29
2.8273853e-29
2.8274183e-29
2.8275466e-29
2.8279497e-29
2.8292475e-29
2.825312e-29
2.8239514e-29
2.8235664e-29
2.8234736e-29
2.8234545e-29
2.8234587e-29
2.8234981e-29
2.8236527e-29
2.8241552e-29
2.8278814e-29
2.8239514e-29
2.8225931e-29
2.8222088e-29
2.8221162e-29
2.8220973e-29
2.8221024e-29
2.8221455e-29
2.8223122e-29
2.8228407e-29
2.827495e-29
2.8235664e-29
2.8222088e-29
2.8218246e-29
2.8217321e-29
2.8217133e-29
2.8217188e-29
2.8217632e-29
2.8219337e-29
2.8224682e-29
2.8274018e-29
2.8234736e-29
2.8221162e-29
2.8217321e-29
2.8216397e-29
2.8216209e-29
2.8216266e-29
2.8216713e-29
2.8218426e-29
2.8223785e-29
2.8273824e-29
2.8234545e-29
2.8220973e-29
2.8217133e-29
2.8216209e-29
2.8216022e-29
2.8216079e-29
2.8216528e-29
2.8218243e-29
2.8223604e-29
2.8273853e-29
2.8234587e-29
2.8221024e-29
2.8217188e-29
2.8216266e-29
2.8216079e-29
2.8216136e-29
2.8216585e-29
2.82183e-29
2.8223662e-29
2.8274183e-29
2.8234981e-29
2.8221455e-29
2.8217632e-29
2.8216713e-29
2.8216528e-29
2.8216585e-29
2.8217034e-29
2.821875e-29
2.8224112e-29
2.8275466e-29
2.8236527e-29
2.8223122e-29
2.8219337e-29
2.8218426e-29
2.8218243e-29
2.82183e-29
2.821875e-29
2.8220468e-29
2.8225833e-29
2.8279497e-29
2.8241552e-29
2.8228407e-29
2.8224682e-29
2.8223785e-29
2.8223604e-29
2.8223662e-29
2.8224112e-29
2.8225833e-29
2.8231214e-29
7.8442727e-29
7.8337272e-29
7.8300775e-29
7.8290437e-29
7.8287943e-29
7.8287422e-29
7.8287496e-29
7.8288369e-29
7.8291744e-29
7.8302271e-29
7.8337272e-29
7.8232341e-29
7.8195989e-29
7.8185688e-29
7.8183203e-29
7.818269e-29
7.8182801e-29
7.8183847e-29
7.8187944e-29
7.8201194e-29
7.8300775e-29
7.8195989e-29
7.8159696e-29
7.8149413e-29
7.8146934e-29
7.8146427e-29
7.8146563e-29
7.814771e-29
7.8152138e-29
7.8166098e-29
7.8290437e-29
7.8185688e-29
7.8149413e-29
7.8139136e-29
7.813666e-29
7.8136156e-29
7.8136302e-29
7.8137485e-29
7.8142013e-29
7.8156142e-29
7.8287943e-29
7.8183203e-29
7.8146934e-29
7.813666e-29
7.8134184e-29
7.8133681e-29
7.8133831e-29
7.8135024e-29
7.8139577e-29
7.815374e-29
7.8287422e-29
7.818269e-29
7.8146427e-29
7.8136156e-29
7.8133681e-29
7.8133179e-29
7.813333e-29
7.8134526e-29
7.8139084e-29
7.8153254e-29
7.8287496e-29
7.8182801e-29
7.8146563e-29
7.8136302e-29
7.8133831e-29
7.813333e-29
7.8133482e-29
7.8134679e-29
7.8139238e-29
7.815341e-29
7.8288369e-29
7.8183847e-29
7.814771e-29
7.8137485e-29
7.8135024e-29
7.8134526e-29
7.8134679e-29
7.8135876e-29
7.8140437e-29
7.815461e-29
7.8291744e-29
7.8187944e-29
7.8152138e-29
7.8142013e-29
7.8139577e-29
7.8139084e-29
7.8139238e-29
7.8140437e-29
7.8145001e-29
7.8159183e-29
7.8302271e-29
7.8201194e-29
7.8166098e-29
7.8156142e-29
7.815374e-29
7.8153254e-29
7.815341e-29
7.815461e-29
7.8159183e-29
7.8173404e-29
2.2039613e-28
2.2011097e-28
2.2001208e-28
2.1998404e-28
2.1997726e-28
2.1997585e-28
2.1997604e-28
2.1997838e-28
2.1998739e-28
2.2001528e-28
2.2011097e-28
2.1982722e-28
2.1972871e-28
2.1970077e-28
2.1969402e-28
2.1969263e-28
2.1969292e-28
2.1969574e-28
2.1970675e-28
2.1974221e-28
2.2001208e-28
2.1972871e-28
2.1963037e-28
2.1960247e-28
2.1959574e-28
2.1959436e-28
2.1959473e-28
2.1959783e-28
2.1960976e-28
2.1964719e-28
2.1998404e-28
2.1970077e-28
2.1960247e-28
2.1957459e-28
2.1956787e-28
2.195665e-28
2.1956689e-28
2.1957009e-28
2.195823e-28
2.196202e-28
2.1997726e-28
2.1969402e-28
2.1959574e-28
2.1956787e-28
2.1956114e-28
2.1955977e-28
2.1956018e-28
2.1956341e-28
2.1957569e-28
2.1961368e-28
2.1997585e-28
2.1969263e-28
2.1959436e-28
2.195665e-28
2.1955977e-28
2.1955841e-28
2.1955882e-28
2.1956205e-28
2.1957435e-28
2.1961236e-28
2.1997604e-28
2.1969292e-28
2.1959473e-28
2.1956689e-28
2.1956018e-28
2.1955882e-28
2.1955923e-28
2.1956247e-28
2.1957476e-28
2.1961278e-28
2.1997838e-28
2.1969574e-28
2.1959783e-28
2.1957009e-28
2.1956341e-28
2.1956205e-28
2.1956247e-28
2.1956571e-28
2.1957801e-28
2.1961603e-28
2.1998739e-28
2.1970675e-28
2.1960976e-28
2.195823e-28
2.1957569e-28
2.1957435e-28
2.1957476e-28
2.1957801e-28
2.1959031e-28
2.1962836e-28
2.2001528e-28
2.1974221e-28
2.1964719e-28
2.196202e-28
2.1961368e-28
2.1961236e-28
2.1961278e-28
2.1961603e-28
2.1962836e-28
2.196665e-28
6.2838113e-28
6.2759912e-28
6.2732738e-28
6.2725023e-28
6.2723158e-28
6.2722767e-28
6.2722819e-28
6.2723455e-28
6.2725894e-28
6.2733392e-28
6.2759912e-28
6.2682092e-28
6.2655024e-28
6.2647335e-28
6.2645477e-28
6.2645092e-28
6.2645172e-28
6.2645943e-28
6.2648948e-28
6.2658576e-28
6.2732738e-28
6.2655024e-28
6.2627999e-28
6.2620323e-28
6.2618469e-28
6.2618089e-28
6.2618189e-28
6.2619039e-28
6.2622302e-28
6.2632486e-28
6.2725023e-28
6.2647335e-28
6.2620323e-28
6.2612652e-28
6.2610799e-28
6.2610422e-28
6.261053e-28
6.2611408e-28
6.2614749e-28
6.2625065e-28
6.2723158e-28
6.2645477e-28
6.2618469e-28
6.2610799e-28
6.2608948e-28
6.2608571e-28
6.2608682e-28
6.2609568e-28
6.2612928e-28
6.2623271e-28
6.2722767e-28
6.2645092e-28
6.2618089e-28
6.2610422e-28
6.2608571e-28
6.2608195e-28
6.2608307e-28
6.2609195e-28
6.2612559e-28
6.2622907e-28
6.2722819e-28
6.2645172e-28
6.2618189e-28
6.261053e-28
6.2608682e-28
6.2608307e-28
6.2608419e-28
6.2609308e-28
6.2612674e-28
6.2623023e-28
6.2723455e-28
6.2645943e-28
6.2619039e-28
6.2611408e-28
6.2609568e-28
6.2609195e-28
6.2609308e-28
6.2610198e-28
6.2613564e-28
6.2623915e-28
6.2725894e-28
6.2648948e-28
6.2622302e-28
6.2614749e-28
6.2612928e-28
6.2612559e-28
6.2612674e-28
6.2613564e-28
6.2616933e-28
6.2627289e-28
6.2733392e-28
6.2658576e-28
6.2632486e-28
6.2625065e-28
6.2623271e-28
6.2622907e-28
6.2623023e-28
6.2623915e-28
6.2627289e-28
6.2637674e-28
1.8180084e-27
1.8158336e-27
1.8150764e-27
1.8148612e-27
1.8148091e-27
1.8147981e-27
1.8147995e-27
1.8148171e-27
1.8148841e-27
1.8150886e-27
1.8158336e-27
1.8136692e-27
1.8129149e-27
1.8127004e-27
1.8126485e-27
1.8126378e-27
1.81264e-27
1.8126614e-27
1.8127445e-27
1.8130099e-27
1.8150764e-27
1.8129149e-27
1.8121618e-27
1.8119477e-27
1.8118959e-27
1.8118853e-27
1.8118881e-27
1.8119117e-27
1.8120023e-27
1.8122835e-27
1.8148612e-27
1.8127004e-27
1.8119477e-27
1.8117337e-27
1.8116819e-27
1.8116714e-27
1.8116744e-27
1.8116988e-27
1.8117916e-27
1.8120766e-27
1.8148091e-27
1.8126485e-27
1.8118959e-27
1.8116819e-27
1.8116302e-27
1.8116197e-27
1.8116228e-27
1.8116475e-27
1.8117408e-27
1.8120265e-27
1.8147981e-27
1.8126378e-27
1.8118853e-27
1.8116714e-27
1.8116197e-27
1.8116092e-27
1.8116123e-27
1.811637e-27
1.8117305e-27
1.8120164e-27
1.8147995e-27
1.81264e-27
1.8118881e-27
1.8116744e-27
1.8116228e-27
1.8116123e-27
1.8116154e-27
1.8116402e-27
1.8117337e-27
1.8120196e-27
1.8148171e-27
1.8126614e-27
1.8119117e-27
1.8116988e-27
1.8116475e-27
1.811637e-27
1.8116402e-27
1.811665e-27
1.8117585e-27
1.8120444e-27
1.8148841e-27
1.8127445e-27
1.8120023e-27
1.8117916e-27
1.8117408e-27
1.8117305e-27
1.8117337e-27
1.8117585e-27
1.811852e-27
1.8121382e-27
1.8150886e-27
1.8130099e-27
1.8122835e-27
1.8120766e-27
1.8120265e-27
1.8120164e-27
1.8120196e-27
1.8120444e-27
1.8121382e-27
1.812425e-27
5.3370548e-27
5.3309213e-27
5.3287819e-27
5.328173e-27
5.3280255e-27
5.3279945e-27
5.3279984e-27
5.3280475e-27
5.3282343e-27
5.3287999e-27
5.3309213e-27
5.3248172e-27
5.3226858e-27
5.322079e-27
5.3219321e-27
5.3219015e-27
5.3219078e-27
5.321968e-27
5.3222016e-27
5.3229437e-27
5.3287819e-27
5.3226858e-27
5.3205578e-27
5.319952e-27
5.3198054e-27
5.3197753e-27
5.3197831e-27
5.3198499e-27
5.3201048e-27
5.3208929e-27
5.328173e-27
5.322079e-27
5.319952e-27
5.3193465e-27
5.3192e-27
5.3191701e-27
5.3191786e-27
5.3192478e-27
5.3195092e-27
5.3203081e-27
5.3280255e-27
5.3219321e-27
5.3198054e-27
5.3192e-27
5.3190536e-27
5.3190238e-27
5.3190325e-27
5.3191023e-27
5.3193652e-27
5.3201664e-27
5.3279945e-27
5.3219015e-27
5.3197753e-27
5.3191701e-27
5.3190238e-27
5.318994e-27
5.3190028e-27
5.3190727e-27
5.319336e-27
5.3201377e-27
5.3279984e-27
5.3219078e-27
5.3197831e-27
5.3191786e-27
5.3190325e-27
5.3190028e-27
5.3190117e-27
5.3190817e-27
5.3193451e-27
5.3201468e-27
5.3280475e-27
5.321968e-27
5.3198499e-27
5.3192478e-27
5.3191023e-27
5.3190727e-27
5.3190817e-27
5.3191517e-27
5.3194152e-27
5.320217e-27
5.3282343e-27
5.3222016e-27
5.3201048e-27
5.3195092e-27
5.3193652e-27
5.319336e-27
5.3193451e-27
5.3194152e-27
5.3196788e-27
5.3204811e-27
5.3287999e-27
5.3229437e-27
5.3208929e-27
5.3203081e-27
5.3201664e-27
5.3201377e-27
5.3201468e-27
5.320217e-27
5.3204811e-27
5.3212854e-27
1.5896929e-26
1.587939e-26
1.5873261e-26
1.5871515e-26
1.5871092e-26
1.5871002e-26
1.5871013e-26
1.5871153e-26
1.5871681e-26
1.5873268e-26
1.587939e-26
1.5861935e-26
1.5855829e-26
1.5854088e-26
1.5853666e-26
1.5853578e-26
1.5853596e-26
1.5853768e-26
1.5854434e-26
1.585654e-26
1.5873261e-26
1.5855829e-26
1.5849732e-26
1.5847994e-26
1.5847573e-26
1.5847487e-26
1.5847509e-26
1.5847701e-26
1.5848429e-26
1.585067e-26
1.5871515e-26
1.5854088e-26
1.5847994e-26
1.5846258e-26
1.5845837e-26
1.5845751e-26
1.5845775e-26
1.5845974e-26
1.5846721e-26
1.5848994e-26
1.5871092e-26
1.5853666e-26
1.5847573e-26
1.5845837e-26
1.5845417e-26
1.5845331e-26
1.5845356e-26
1.5845556e-26
1.5846308e-26
1.5848587e-26
1.5871002e-26
1.5853578e-26
1.5847487e-26
1.5845751e-26
1.5845331e-26
1.5845245e-26
1.5845271e-26
1.5845471e-26
1.5846224e-26
1.5848505e-26
1.5871013e-26
1.5853596e-26
1.5847509e-26
1.5845775e-26
1.5845356e-26
1.5845271e-26
1.5845296e-26
1.5845497e-26
1.584625e-26
1.5848531e-26
1.5871153e-26
1.5853768e-26
1.5847701e-26
1.5845974e-26
1.5845556e-26
1.5845471e-26
1.5845497e-26
1.5845698e-26
1.5846451e-26
1.5848732e-26
1.5871681e-26
1.5854434e-26
1.5848429e-26
1.5846721e-26
1.5846308e-26
1.5846224e-26
1.584625e-26
1.5846451e-26
1.5847205e-26
1.5849488e-26
1.5873268e-26
1.585654e-26
1.585067e-26
1.5848994e-26
1.5848587e-26
1.5848505e-26
1.5848531e-26