/*--------------------------------*- C++ -*----------------------------------*\
| =========                 |                                                 |
| \\      /  F ield         | OpenFOAM: The Open Source CFD Toolbox           |
|  \\    /   O peration     | Version:  dev                                   |
|   \\  /    A nd           | Web:      www.OpenFOAM.org                      |
|    \\/     M anipulation  |                                                 |
\*---------------------------------------------------------------------------*/
FoamFile
{
    version     2.0;
    format      ascii;
    class       volScalarField;
    location    "44.995";
    object      A_0;
}
// * * * * * * * * * * * * * * * * * * * * * * * * * * * * * * * * * * * * * //

dimensions      [0 0 0 0 1 0 0];

internalField   nonuniform List<scalar> 
10000
(
4.4288312e-35
4.4187654e-35
4.4155117e-35
4.4146137e-35
4.4144013e-35
4.4143584e-35
4.4143685e-35
4.4144621e-35
4.4148395e-35
4.4160163e-35
4.4187654e-35
4.4087589e-35
4.405521e-35
4.4046271e-35
4.4044158e-35
4.4043734e-35
4.4043859e-35
4.4044904e-35
4.4049135e-35
4.4062595e-35
4.4155117e-35
4.405521e-35
4.4022893e-35
4.4013972e-35
4.4011863e-35
4.4011444e-35
4.4011585e-35
4.4012695e-35
4.4017136e-35
4.4031044e-35
4.4146137e-35
4.4046271e-35
4.4013972e-35
4.4005057e-35
4.400295e-35
4.4002533e-35
4.400268e-35
4.4003813e-35
4.4008318e-35
4.4022332e-35
4.4144013e-35
4.4044158e-35
4.4011863e-35
4.400295e-35
4.4000844e-35
4.4000427e-35
4.4000577e-35
4.4001716e-35
4.4006237e-35
4.4020273e-35
4.4143584e-35
4.4043734e-35
4.4011444e-35
4.4002533e-35
4.4000427e-35
4.4000011e-35
4.4000162e-35
4.4001303e-35
4.4005827e-35
4.4019867e-35
4.4143685e-35
4.4043859e-35
4.4011585e-35
4.400268e-35
4.4000577e-35
4.4000162e-35
4.4000313e-35
4.4001455e-35
4.400598e-35
4.4020021e-35
4.4144621e-35
4.4044904e-35
4.4012695e-35
4.4003813e-35
4.4001716e-35
4.4001303e-35
4.4001455e-35
4.4002597e-35
4.4007124e-35
4.4021167e-35
4.4148395e-35
4.4049135e-35
4.4017136e-35
4.4008318e-35
4.4006237e-35
4.4005827e-35
4.400598e-35
4.4007124e-35
4.4011654e-35
4.4025708e-35
4.4160163e-35
4.4062595e-35
4.4031044e-35
4.4022332e-35
4.4020273e-35
4.4019867e-35
4.4020021e-35
4.4021167e-35
4.4025708e-35
4.4039807e-35
1.6451361e-34
1.6415411e-34
1.6403506e-34
1.6400214e-34
1.6399435e-34
1.6399277e-34
1.6399313e-34
1.6399654e-34
1.6401033e-34
1.6405532e-34
1.6415411e-34
1.6379667e-34
1.636782e-34
1.6364542e-34
1.6363767e-34
1.6363611e-34
1.6363656e-34
1.6364037e-34
1.6365586e-34
1.6370715e-34
1.6403506e-34
1.636782e-34
1.6355995e-34
1.6352724e-34
1.635195e-34
1.6351796e-34
1.6351847e-34
1.6352252e-34
1.6353879e-34
1.6359174e-34
1.6400214e-34
1.6364542e-34
1.6352724e-34
1.6349455e-34
1.6348681e-34
1.6348528e-34
1.6348582e-34
1.6348996e-34
1.6350646e-34
1.635598e-34
1.6399435e-34
1.6363767e-34
1.635195e-34
1.6348681e-34
1.6347909e-34
1.6347756e-34
1.634781e-34
1.6348226e-34
1.6349882e-34
1.6355225e-34
1.6399277e-34
1.6363611e-34
1.6351796e-34
1.6348528e-34
1.6347756e-34
1.6347603e-34
1.6347658e-34
1.6348074e-34
1.6349731e-34
1.6355076e-34
1.6399313e-34
1.6363656e-34
1.6351847e-34
1.6348582e-34
1.634781e-34
1.6347658e-34
1.6347713e-34
1.634813e-34
1.6349787e-34
1.6355132e-34
1.6399654e-34
1.6364037e-34
1.6352252e-34
1.6348996e-34
1.6348226e-34
1.6348074e-34
1.634813e-34
1.6348547e-34
1.6350205e-34
1.635555e-34
1.6401033e-34
1.6365586e-34
1.6353879e-34
1.6350646e-34
1.6349882e-34
1.6349731e-34
1.6349787e-34
1.6350205e-34
1.6351864e-34
1.6357214e-34
1.6405532e-34
1.6370715e-34
1.6359174e-34
1.635598e-34
1.6355225e-34
1.6355076e-34
1.6355132e-34
1.635555e-34
1.6357214e-34
1.6362581e-34
4.0644669e-34
4.0558737e-34
4.0530025e-34
4.0522068e-34
4.0520183e-34
4.05198e-34
4.0519886e-34
4.05207e-34
4.0523999e-34
4.0535108e-34
4.0558737e-34
4.0473293e-34
4.0444717e-34
4.0436795e-34
4.0434918e-34
4.0434541e-34
4.0434648e-34
4.0435562e-34
4.0439278e-34
4.045194e-34
4.0530025e-34
4.0444717e-34
4.0416195e-34
4.0408288e-34
4.0406415e-34
4.0406042e-34
4.0406164e-34
4.0407137e-34
4.0411044e-34
4.0424115e-34
4.0522068e-34
4.0436795e-34
4.0408288e-34
4.0400386e-34
4.0398515e-34
4.0398144e-34
4.0398272e-34
4.0399266e-34
4.0403232e-34
4.0416398e-34
4.0520183e-34
4.0434918e-34
4.0406415e-34
4.0398515e-34
4.0396645e-34
4.0396274e-34
4.0396405e-34
4.0397404e-34
4.0401384e-34
4.041457e-34
4.05198e-34
4.0434541e-34
4.0406042e-34
4.0398144e-34
4.0396274e-34
4.0395904e-34
4.0396035e-34
4.0397036e-34
4.0401019e-34
4.0414209e-34
4.0519886e-34
4.0434648e-34
4.0406164e-34
4.0398272e-34
4.0396405e-34
4.0396035e-34
4.0396167e-34
4.0397168e-34
4.0401152e-34
4.0414343e-34
4.05207e-34
4.0435562e-34
4.0407137e-34
4.0399266e-34
4.0397404e-34
4.0397036e-34
4.0397168e-34
4.039817e-34
4.0402156e-34
4.0415349e-34
4.0523999e-34
4.0439278e-34
4.0411044e-34
4.0403232e-34
4.0401384e-34
4.0401019e-34
4.0401152e-34
4.0402156e-34
4.0406145e-34
4.0419347e-34
4.0535108e-34
4.045194e-34
4.0424115e-34
4.0416398e-34
4.041457e-34
4.0414209e-34
4.0414343e-34
4.0415349e-34
4.0419347e-34
4.0432595e-34
9.590555e-34
9.5709248e-34
9.5643373e-34
9.5625085e-34
9.5620747e-34
9.5619863e-34
9.5620056e-34
9.5621899e-34
9.5629363e-34
9.5654616e-34
9.5709248e-34
9.5514049e-34
9.5448482e-34
9.5430272e-34
9.5425952e-34
9.5425082e-34
9.5425325e-34
9.5427402e-34
9.5435844e-34
9.5464748e-34
9.5643373e-34
9.5448482e-34
9.5383036e-34
9.5364861e-34
9.5360552e-34
9.5359691e-34
9.5359968e-34
9.5362183e-34
9.5371075e-34
9.5400936e-34
9.5625085e-34
9.5430272e-34
9.5364861e-34
9.5346699e-34
9.5342393e-34
9.5341536e-34
9.5341827e-34
9.5344092e-34
9.535312e-34
9.5383207e-34
9.5620747e-34
9.5425952e-34
9.5360552e-34
9.5342393e-34
9.5338089e-34
9.5337234e-34
9.533753e-34
9.5339808e-34
9.5348869e-34
9.5379003e-34
9.5619863e-34
9.5425082e-34
9.5359691e-34
9.5341536e-34
9.5337234e-34
9.533638e-34
9.5336678e-34
9.533896e-34
9.5348028e-34
9.5378171e-34
9.5620056e-34
9.5425325e-34
9.5359968e-34
9.5341827e-34
9.533753e-34
9.5336678e-34
9.5336976e-34
9.5339259e-34
9.534833e-34
9.5378475e-34
9.5621899e-34
9.5427402e-34
9.5362183e-34
9.5344092e-34
9.5339808e-34
9.533896e-34
9.5339259e-34
9.5341544e-34
9.5350617e-34
9.5380767e-34
9.5629363e-34
9.5435844e-34
9.5371075e-34
9.535312e-34
9.5348869e-34
9.5348028e-34
9.534833e-34
9.5350617e-34
9.5359699e-34
9.538987e-34
9.5654616e-34
9.5464748e-34
9.5400936e-34
9.5383207e-34
9.5379003e-34
9.5378171e-34
9.5378475e-34
9.5380767e-34
9.538987e-34
9.5420143e-34
2.2705167e-33
2.2660183e-33
2.2645043e-33
2.2640833e-33
2.2639833e-33
2.2639629e-33
2.2639672e-33
2.2640089e-33
2.2641776e-33
2.2647462e-33
2.2660183e-33
2.2615449e-33
2.2600378e-33
2.2596186e-33
2.259519e-33
2.2594989e-33
2.2595044e-33
2.2595517e-33
2.2597434e-33
2.260398e-33
2.2645043e-33
2.2600378e-33
2.2585335e-33
2.2581151e-33
2.2580158e-33
2.2579959e-33
2.2580021e-33
2.2580527e-33
2.2582549e-33
2.2589321e-33
2.2640833e-33
2.2596186e-33
2.2581151e-33
2.2576969e-33
2.2575977e-33
2.2575779e-33
2.2575845e-33
2.2576362e-33
2.2578417e-33
2.2585241e-33
2.2639833e-33
2.259519e-33
2.2580158e-33
2.2575977e-33
2.2574985e-33
2.2574787e-33
2.2574855e-33
2.2575375e-33
2.2577437e-33
2.2584273e-33
2.2639629e-33
2.2594989e-33
2.2579959e-33
2.2575779e-33
2.2574787e-33
2.257459e-33
2.2574658e-33
2.2575179e-33
2.2577243e-33
2.2584081e-33
2.2639672e-33
2.2595044e-33
2.2580021e-33
2.2575845e-33
2.2574855e-33
2.2574658e-33
2.2574726e-33
2.2575247e-33
2.2577311e-33
2.258415e-33
2.2640089e-33
2.2595517e-33
2.2580527e-33
2.2576362e-33
2.2575375e-33
2.2575179e-33
2.2575247e-33
2.2575768e-33
2.2577834e-33
2.2584673e-33
2.2641776e-33
2.2597434e-33
2.2582549e-33
2.2578417e-33
2.2577437e-33
2.2577243e-33
2.2577311e-33
2.2577834e-33
2.2579901e-33
2.2586745e-33
2.2647462e-33
2.260398e-33
2.2589321e-33
2.2585241e-33
2.2584273e-33
2.2584081e-33
2.258415e-33
2.2584673e-33
2.2586745e-33
2.2593612e-33
5.4415168e-33
5.4310852e-33
5.4275652e-33
5.4265849e-33
5.4263518e-33
5.4263041e-33
5.4263138e-33
5.4264095e-33
5.4267947e-33
5.4280857e-33
5.4310852e-33
5.4207111e-33
5.417207e-33
5.4162308e-33
5.4159986e-33
5.4159517e-33
5.4159642e-33
5.416073e-33
5.416513e-33
5.4180091e-33
5.4275652e-33
5.417207e-33
5.4137093e-33
5.412735e-33
5.4125034e-33
5.4124569e-33
5.4124713e-33
5.4125878e-33
5.413053e-33
5.4146028e-33
5.4265849e-33
5.4162308e-33
5.412735e-33
5.4117612e-33
5.4115298e-33
5.4114836e-33
5.4114988e-33
5.4116181e-33
5.4120909e-33
5.4136533e-33
5.4263518e-33
5.4159986e-33
5.4125034e-33
5.4115298e-33
5.4112985e-33
5.4112524e-33
5.4112678e-33
5.4113879e-33
5.4118626e-33
5.4134276e-33
5.4263041e-33
5.4159517e-33
5.4124569e-33
5.4114836e-33
5.4112524e-33
5.4112063e-33
5.4112218e-33
5.4113421e-33
5.4118172e-33
5.4133827e-33
5.4263138e-33
5.4159642e-33
5.4124713e-33
5.4114988e-33
5.4112678e-33
5.4112218e-33
5.4112374e-33
5.4113578e-33
5.411833e-33
5.4133987e-33
5.4264095e-33
5.416073e-33
5.4125878e-33
5.4116181e-33
5.4113879e-33
5.4113421e-33
5.4113578e-33
5.4114782e-33
5.4119535e-33
5.4135194e-33
5.4267947e-33
5.416513e-33
5.413053e-33
5.4120909e-33
5.4118626e-33
5.4118172e-33
5.411833e-33
5.4119535e-33
5.4124293e-33
5.4139963e-33
5.4280857e-33
5.4180091e-33
5.4146028e-33
5.4136533e-33
5.4134276e-33
5.4133827e-33
5.4133987e-33
5.4135194e-33
5.4139963e-33
5.4155685e-33
1.322405e-32
1.3199531e-32
1.3191237e-32
1.3188924e-32
1.3188373e-32
1.318826e-32
1.3188282e-32
1.3188504e-32
1.3189396e-32
1.3192364e-32
1.3199531e-32
1.3175145e-32
1.3166888e-32
1.3164584e-32
1.3164036e-32
1.3163924e-32
1.3163953e-32
1.3164207e-32
1.3165231e-32
1.3168695e-32
1.3191237e-32
1.3166888e-32
1.3158646e-32
1.3156346e-32
1.3155799e-32
1.3155689e-32
1.3155723e-32
1.3155995e-32
1.315708e-32
1.3160673e-32
1.3188924e-32
1.3164584e-32
1.3156346e-32
1.3154048e-32
1.3153502e-32
1.3153392e-32
1.3153427e-32
1.3153707e-32
1.315481e-32
1.3158434e-32
1.3188373e-32
1.3164036e-32
1.3155799e-32
1.3153502e-32
1.3152955e-32
1.3152846e-32
1.3152882e-32
1.3153163e-32
1.315427e-32
1.3157901e-32
1.318826e-32
1.3163924e-32
1.3155689e-32
1.3153392e-32
1.3152846e-32
1.3152737e-32
1.3152773e-32
1.3153054e-32
1.3154163e-32
1.3157795e-32
1.3188282e-32
1.3163953e-32
1.3155723e-32
1.3153427e-32
1.3152882e-32
1.3152773e-32
1.3152809e-32
1.3153091e-32
1.31542e-32
1.3157832e-32
1.3188504e-32
1.3164207e-32
1.3155995e-32
1.3153707e-32
1.3153163e-32
1.3153054e-32
1.3153091e-32
1.3153373e-32
1.3154482e-32
1.3158114e-32
1.3189396e-32
1.3165231e-32
1.315708e-32
1.315481e-32
1.315427e-32
1.3154163e-32
1.31542e-32
1.3154482e-32
1.3155592e-32
1.3159227e-32
1.3192364e-32
1.3168695e-32
1.3160673e-32
1.3158434e-32
1.3157901e-32
1.3157795e-32
1.3157832e-32
1.3158114e-32
1.3159227e-32
1.3162874e-32
3.2599976e-32
3.2541539e-32
3.2521724e-32
3.2516189e-32
3.251487e-32
3.2514599e-32
3.251465e-32
3.2515173e-32
3.2517265e-32
3.2524186e-32
3.2541539e-32
3.2483416e-32
3.2463689e-32
3.2458176e-32
3.2456862e-32
3.2456595e-32
3.2456663e-32
3.2457264e-32
3.245968e-32
3.2467814e-32
3.2521724e-32
3.2463689e-32
3.2443996e-32
3.2438494e-32
3.2437183e-32
3.2436919e-32
3.2436998e-32
3.2437644e-32
3.2440209e-32
3.2448661e-32
3.2516189e-32
3.2458176e-32
3.2438494e-32
3.2432995e-32
3.2431686e-32
3.2431423e-32
3.2431506e-32
3.2432169e-32
3.2434778e-32
3.2443305e-32
3.251487e-32
3.2456862e-32
3.2437183e-32
3.2431686e-32
3.2430376e-32
3.2430114e-32
3.2430199e-32
3.2430867e-32
3.2433487e-32
3.2442029e-32
3.2514599e-32
3.2456595e-32
3.2436919e-32
3.2431423e-32
3.2430114e-32
3.2429852e-32
3.2429938e-32
3.2430607e-32
3.2433229e-32
3.2441774e-32
3.251465e-32
3.2456663e-32
3.2436998e-32
3.2431506e-32
3.2430199e-32
3.2429938e-32
3.2430024e-32
3.2430693e-32
3.2433316e-32
3.2441862e-32
3.2515173e-32
3.2457264e-32
3.2437644e-32
3.2432169e-32
3.2430867e-32
3.2430607e-32
3.2430693e-32
3.2431362e-32
3.2433986e-32
3.2442533e-32
3.2517265e-32
3.245968e-32
3.2440209e-32
3.2434778e-32
3.2433487e-32
3.2433229e-32
3.2433316e-32
3.2433986e-32
3.2436612e-32
3.2445165e-32
3.2524186e-32
3.2467814e-32
3.2448661e-32
3.2443305e-32
3.2442029e-32
3.2441774e-32
3.2441862e-32
3.2442533e-32
3.2445165e-32
3.2453746e-32
8.1532773e-32
8.1391538e-32
8.1343535e-32
8.1330108e-32
8.1326903e-32
8.1326243e-32
8.1326363e-32
8.1327614e-32
8.1332593e-32
8.1348954e-32
8.1391538e-32
8.1251057e-32
8.1203263e-32
8.1189889e-32
8.1186697e-32
8.1186047e-32
8.1186208e-32
8.1187651e-32
8.1193434e-32
8.121281e-32
8.1343535e-32
8.1203263e-32
8.1155553e-32
8.1142203e-32
8.1139019e-32
8.1138376e-32
8.1138565e-32
8.1140121e-32
8.1146271e-32
8.1166436e-32
8.1330108e-32
8.1189889e-32
8.1142203e-32
8.1128862e-32
8.1125681e-32
8.1125041e-32
8.1125242e-32
8.1126837e-32
8.11331e-32
8.115345e-32
8.1326903e-32
8.1186697e-32
8.1139019e-32
8.1125681e-32
8.11225e-32
8.1121862e-32
8.1122067e-32
8.1123673e-32
8.1129963e-32
8.1150352e-32
8.1326243e-32
8.1186047e-32
8.1138376e-32
8.1125041e-32
8.1121862e-32
8.1121226e-32
8.1121431e-32
8.1123041e-32
8.1129336e-32
8.1149733e-32
8.1326363e-32
8.1186208e-32
8.1138565e-32
8.1125242e-32
8.1122067e-32
8.1121431e-32
8.1121638e-32
8.1123248e-32
8.1129545e-32
8.1149943e-32
8.1327614e-32
8.1187651e-32
8.1140121e-32
8.1126837e-32
8.1123673e-32
8.1123041e-32
8.1123248e-32
8.112486e-32
8.1131159e-32
8.115156e-32
8.1332593e-32
8.1193434e-32
8.1146271e-32
8.11331e-32
8.1129963e-32
8.1129336e-32
8.1129545e-32
8.1131159e-32
8.1137463e-32
8.1157878e-32
8.1348954e-32
8.121281e-32
8.1166436e-32
8.115345e-32
8.1150352e-32
8.1149733e-32
8.1149943e-32
8.115156e-32
8.1157878e-32
8.1178357e-32
2.0689123e-31
2.0654506e-31
2.0642713e-31
2.063941e-31
2.0638621e-31
2.0638458e-31
2.0638486e-31
2.063879e-31
2.0639992e-31
2.0643915e-31
2.0654506e-31
2.0620072e-31
2.060833e-31
2.060504e-31
2.0604253e-31
2.0604093e-31
2.0604132e-31
2.0604483e-31
2.0605888e-31
2.061057e-31
2.0642713e-31
2.060833e-31
2.0596608e-31
2.0593324e-31
2.0592539e-31
2.0592381e-31
2.0592427e-31
2.0592806e-31
2.0594303e-31
2.0599184e-31
2.063941e-31
2.060504e-31
2.0593324e-31
2.0590041e-31
2.0589258e-31
2.05891e-31
2.0589149e-31
2.0589538e-31
2.0591063e-31
2.0595991e-31
2.0638621e-31
2.0604253e-31
2.0592539e-31
2.0589258e-31
2.0588474e-31
2.0588317e-31
2.0588367e-31
2.0588759e-31
2.0590291e-31
2.0595228e-31
2.0638458e-31
2.0604093e-31
2.0592381e-31
2.05891e-31
2.0588317e-31
2.058816e-31
2.058821e-31
2.0588603e-31
2.0590136e-31
2.0595076e-31
2.0638486e-31
2.0604132e-31
2.0592427e-31
2.0589149e-31
2.0588367e-31
2.058821e-31
2.058826e-31
2.0588654e-31
2.0590187e-31
2.0595127e-31
2.063879e-31
2.0604483e-31
2.0592806e-31
2.0589538e-31
2.0588759e-31
2.0588603e-31
2.0588654e-31
2.0589047e-31
2.0590582e-31
2.0595522e-31
2.0639992e-31
2.0605888e-31
2.0594303e-31
2.0591063e-31
2.0590291e-31
2.0590136e-31
2.0590187e-31
2.0590582e-31
2.0592117e-31
2.0597061e-31
2.0643915e-31
2.061057e-31
2.0599184e-31
2.0595991e-31
2.0595228e-31
2.0595076e-31
2.0595127e-31
2.0595522e-31
2.0597061e-31
2.060202e-31
5.3268806e-31
5.3182756e-31
5.3153375e-31
5.3145133e-31
5.3143162e-31
5.3142754e-31
5.3142823e-31
5.3143568e-31
5.3146512e-31
5.3156053e-31
5.3182756e-31
5.3097156e-31
5.3067899e-31
5.3059689e-31
5.3057726e-31
5.3057324e-31
5.3057419e-31
5.3058287e-31
5.3061748e-31
5.3073229e-31
5.3153375e-31
5.3067899e-31
5.3038692e-31
5.3030498e-31
5.3028538e-31
5.3028141e-31
5.3028255e-31
5.3029195e-31
5.3032891e-31
5.3044879e-31
5.3145133e-31
5.3059689e-31
5.3030498e-31
5.3022308e-31
5.302035e-31
5.3019955e-31
5.3020076e-31
5.3021042e-31
5.302481e-31
5.3036917e-31
5.3143162e-31
5.3057726e-31
5.3028538e-31
5.302035e-31
5.3018393e-31
5.3018e-31
5.3018122e-31
5.3019096e-31
5.3022881e-31
5.3035013e-31
5.3142754e-31
5.3057324e-31
5.3028141e-31
5.3019955e-31
5.3018e-31
5.3017606e-31
5.301773e-31
5.3018705e-31
5.3022494e-31
5.3034631e-31
5.3142823e-31
5.3057419e-31
5.3028255e-31
5.3020076e-31
5.3018122e-31
5.301773e-31
5.3017854e-31
5.301883e-31
5.302262e-31
5.3034758e-31
5.3143568e-31
5.3058287e-31
5.3029195e-31
5.3021042e-31
5.3019096e-31
5.3018705e-31
5.301883e-31
5.3019807e-31
5.3023598e-31
5.3035737e-31
5.3146512e-31
5.3061748e-31
5.3032891e-31
5.302481e-31
5.3022881e-31
5.3022494e-31
5.302262e-31
5.3023598e-31
5.3027392e-31
5.3039539e-31
5.3156053e-31
5.3073229e-31
5.3044879e-31
5.3036917e-31
5.3035013e-31
5.3034631e-31
5.3034758e-31
5.3035737e-31
5.3039539e-31
5.3051724e-31
1.3917023e-30
1.3895329e-30
1.3887905e-30
1.3885819e-30
1.388532e-30
1.3885217e-30
1.3885233e-30
1.3885419e-30
1.3886151e-30
1.3888504e-30
1.3895329e-30
1.3873747e-30
1.3866354e-30
1.3864276e-30
1.3863779e-30
1.3863677e-30
1.3863701e-30
1.3863918e-30
1.3864783e-30
1.386764e-30
1.3887905e-30
1.3866354e-30
1.3858973e-30
1.38569e-30
1.3856403e-30
1.3856303e-30
1.3856331e-30
1.3856567e-30
1.3857493e-30
1.3860481e-30
1.3885819e-30
1.3864276e-30
1.38569e-30
1.3854827e-30
1.3854331e-30
1.3854231e-30
1.3854261e-30
1.3854504e-30
1.3855449e-30
1.3858468e-30
1.388532e-30
1.3863779e-30
1.3856403e-30
1.3854331e-30
1.3853836e-30
1.3853736e-30
1.3853767e-30
1.3854012e-30
1.3854961e-30
1.3857986e-30
1.3885217e-30
1.3863677e-30
1.3856303e-30
1.3854231e-30
1.3853736e-30
1.3853636e-30
1.3853667e-30
1.3853912e-30
1.3854862e-30
1.3857889e-30
1.3885233e-30
1.3863701e-30
1.3856331e-30
1.3854261e-30
1.3853767e-30
1.3853667e-30
1.3853698e-30
1.3853944e-30
1.3854894e-30
1.3857921e-30
1.3885419e-30
1.3863918e-30
1.3856567e-30
1.3854504e-30
1.3854012e-30
1.3853912e-30
1.3853944e-30
1.3854189e-30
1.385514e-30
1.3858167e-30
1.3886151e-30
1.3864783e-30
1.3857493e-30
1.3855449e-30
1.3854961e-30
1.3854862e-30
1.3854894e-30
1.385514e-30
1.3856091e-30
1.385912e-30
1.3888504e-30
1.386764e-30
1.3860481e-30
1.3858468e-30
1.3857986e-30
1.3857889e-30
1.3857921e-30
1.3858167e-30
1.385912e-30
1.3862158e-30
3.6896004e-30
3.6840531e-30
3.6821505e-30
3.6816154e-30
3.6814871e-30
3.6814605e-30
3.6814647e-30
3.6815117e-30
3.681696e-30
3.6822851e-30
3.6840531e-30
3.6785342e-30
3.6766395e-30
3.6761064e-30
3.6759786e-30
3.6759524e-30
3.6759583e-30
3.6760137e-30
3.6762331e-30
3.6769543e-30
3.6821505e-30
3.6766395e-30
3.674748e-30
3.6742159e-30
3.6740883e-30
3.6740624e-30
3.6740696e-30
3.6741299e-30
3.6743653e-30
3.6751209e-30
3.6816154e-30
3.6761064e-30
3.6742159e-30
3.673684e-30
3.6735566e-30
3.6735309e-30
3.6735385e-30
3.6736006e-30
3.6738408e-30
3.6746046e-30
3.6814871e-30
3.6759786e-30
3.6740883e-30
3.6735566e-30
3.6734293e-30
3.6734036e-30
3.6734114e-30
3.6734739e-30
3.6737154e-30
3.6744808e-30
3.6814605e-30
3.6759524e-30
3.6740624e-30
3.6735309e-30
3.6734036e-30
3.6733779e-30
3.6733858e-30
3.6734484e-30
3.6736902e-30
3.6744559e-30
3.6814647e-30
3.6759583e-30
3.6740696e-30
3.6735385e-30
3.6734114e-30
3.6733858e-30
3.6733938e-30
3.6734564e-30
3.6736982e-30
3.674464e-30
3.6815117e-30
3.6760137e-30
3.6741299e-30
3.6736006e-30
3.6734739e-30
3.6734484e-30
3.6734564e-30
3.6735191e-30
3.673761e-30
3.6745269e-30
3.681696e-30
3.6762331e-30
3.6743653e-30
3.6738408e-30
3.6737154e-30
3.6736902e-30
3.6736982e-30
3.673761e-30
3.674003e-30
3.6747695e-30
3.6822851e-30
3.6769543e-30
3.6751209e-30
3.6746046e-30
3.6744808e-30
3.6744559e-30
3.674464e-30
3.6745269e-30
3.6747695e-30
3.6755381e-30
9.9262323e-30
9.9118453e-30
9.9069004e-30
9.9055079e-30
9.9051736e-30
9.9051041e-30
9.9051147e-30
9.9052353e-30
9.9057067e-30
9.9072024e-30
9.9118453e-30
9.8975312e-30
9.8926065e-30
9.8912191e-30
9.8908861e-30
9.8908177e-30
9.890833e-30
9.8909759e-30
9.8915407e-30
9.8933883e-30
9.9069004e-30
9.8926065e-30
9.8876901e-30
9.8863051e-30
9.8859729e-30
9.8859052e-30
9.8859238e-30
9.8860797e-30
9.8866871e-30
9.8886265e-30
9.9055079e-30
9.8912191e-30
9.8863051e-30
9.8849209e-30
9.884589e-30
9.8845218e-30
9.8845416e-30
9.8847022e-30
9.8853225e-30
9.8872836e-30
9.9051736e-30
9.8908861e-30
9.8859729e-30
9.884589e-30
9.8842572e-30
9.8841901e-30
9.8842104e-30
9.8843723e-30
9.8849958e-30
9.8869613e-30
9.9051041e-30
9.8908177e-30
9.8859052e-30
9.8845218e-30
9.8841901e-30
9.8841232e-30
9.8841436e-30
9.8843058e-30
9.88493e-30
9.8868964e-30
9.9051147e-30
9.890833e-30
9.8859238e-30
9.8845416e-30
9.8842104e-30
9.8841436e-30
9.8841642e-30
9.8843265e-30
9.8849508e-30
9.8869174e-30
9.9052353e-30
9.8909759e-30
9.8860797e-30
9.8847022e-30
9.8843723e-30
9.8843058e-30
9.8843265e-30
9.8844889e-30
9.8851134e-30
9.8870803e-30
9.9057067e-30
9.8915407e-30
9.8866871e-30
9.8853225e-30
9.8849958e-30
9.88493e-30
9.8849508e-30
9.8851134e-30
9.8857384e-30
9.8877065e-30
9.9072024e-30
9.8933883e-30
9.8886265e-30
9.8872836e-30
9.8869613e-30
9.8868964e-30
9.8869174e-30
9.8870803e-30
9.8877065e-30
9.8896803e-30
2.7100004e-29
2.7062159e-29
2.7049124e-29
2.7045449e-29
2.7044565e-29
2.7044381e-29
2.7044408e-29
2.7044723e-29
2.7045946e-29
2.7049798e-29
2.7062159e-29
2.7024504e-29
2.7011522e-29
2.700786e-29
2.700698e-29
2.7006799e-29
2.7006839e-29
2.7007213e-29
2.7008688e-29
2.7013492e-29
2.7049124e-29
2.7011522e-29
2.6998561e-29
2.6994905e-29
2.6994027e-29
2.6993848e-29
2.6993897e-29
2.6994306e-29
2.6995897e-29
2.7000948e-29
2.7045449e-29
2.700786e-29
2.6994905e-29
2.6991252e-29
2.6990374e-29
2.6990197e-29
2.6990249e-29
2.6990671e-29
2.6992296e-29
2.6997406e-29
2.7044565e-29
2.700698e-29
2.6994027e-29
2.6990374e-29
2.6989498e-29
2.698932e-29
2.6989374e-29
2.6989799e-29
2.6991433e-29
2.6996555e-29
2.7044381e-29
2.7006799e-29
2.6993848e-29
2.6990197e-29
2.698932e-29
2.6989143e-29
2.6989197e-29
2.6989623e-29
2.6991259e-29
2.6996383e-29
2.7044408e-29
2.7006839e-29
2.6993897e-29
2.6990249e-29
2.6989374e-29
2.6989197e-29
2.6989251e-29
2.6989677e-29
2.6991313e-29
2.6996438e-29
2.7044723e-29
2.7007213e-29
2.6994306e-29
2.6990671e-29
2.6989799e-29
2.6989623e-29
2.6989677e-29
2.6990104e-29
2.6991741e-29
2.6996867e-29
2.7045946e-29
2.7008688e-29
2.6995897e-29
2.6992296e-29
2.6991433e-29
2.6991259e-29
2.6991313e-29
2.6991741e-29
2.6993378e-29
2.6998507e-29
2.7049798e-29
2.7013492e-29
2.7000948e-29
2.6997406e-29
2.6996555e-29
2.6996383e-29
2.6996438e-29
2.6996867e-29
2.6998507e-29
2.7003651e-29
7.5082149e-29
7.4981181e-29
7.4946332e-29
7.4936494e-29
7.4934127e-29
7.4933633e-29
7.4933703e-29
7.4934534e-29
7.4937753e-29
7.4947821e-29
7.4981181e-29
7.4880714e-29
7.4846005e-29
7.4836201e-29
7.4833843e-29
7.4833357e-29
7.4833462e-29
7.4834457e-29
7.4838367e-29
7.4851042e-29
7.4946332e-29
7.4846005e-29
7.4811352e-29
7.4801565e-29
7.4799213e-29
7.4798732e-29
7.4798861e-29
7.4799953e-29
7.4804178e-29
7.4817532e-29
7.4936494e-29
7.4836201e-29
7.4801565e-29
7.4791784e-29
7.4789434e-29
7.4788956e-29
7.4789095e-29
7.4790221e-29
7.4794541e-29
7.4808056e-29
7.4934127e-29
7.4833843e-29
7.4799213e-29
7.4789434e-29
7.4787085e-29
7.4786608e-29
7.478675e-29
7.4787885e-29
7.4792229e-29
7.4805777e-29
7.4933633e-29
7.4833357e-29
7.4798732e-29
7.4788956e-29
7.4786608e-29
7.4786133e-29
7.4786276e-29
7.4787414e-29
7.4791763e-29
7.4805317e-29
7.4933703e-29
7.4833462e-29
7.4798861e-29
7.4789095e-29
7.478675e-29
7.4786276e-29
7.478642e-29
7.4787558e-29
7.4791908e-29
7.4805464e-29
7.4934534e-29
7.4834457e-29
7.4799953e-29
7.4790221e-29
7.4787885e-29
7.4787414e-29
7.4787558e-29
7.4788697e-29
7.4793049e-29
7.4806606e-29
7.4937753e-29
7.4838367e-29
7.4804178e-29
7.4794541e-29
7.4792229e-29
7.4791763e-29
7.4791908e-29
7.4793049e-29
7.4797403e-29
7.4810969e-29
7.4947821e-29
7.4851042e-29
7.4817532e-29
7.4808056e-29
7.4805777e-29
7.4805317e-29
7.4805464e-29
7.4806606e-29
7.4810969e-29
7.4824572e-29
2.1109781e-28
2.108246e-28
2.1073011e-28
2.107034e-28
2.1069697e-28
2.1069563e-28
2.1069581e-28
2.1069804e-28
2.1070664e-28
2.1073333e-28
2.108246e-28
2.1055273e-28
2.1045862e-28
2.10432e-28
2.104256e-28
2.1042427e-28
2.1042455e-28
2.1042724e-28
2.1043775e-28
2.104717e-28
2.1073011e-28
2.1045862e-28
2.1036466e-28
2.1033809e-28
2.1033169e-28
2.1033039e-28
2.1033073e-28
2.1033368e-28
2.1034508e-28
2.1038091e-28
2.107034e-28
2.10432e-28
2.1033809e-28
2.1031153e-28
2.1030514e-28
2.1030385e-28
2.1030422e-28
2.1030727e-28
2.1031892e-28
2.103552e-28
2.1069697e-28
2.104256e-28
2.1033169e-28
2.1030514e-28
2.1029876e-28
2.1029746e-28
2.1029785e-28
2.1030092e-28
2.1031264e-28
2.1034901e-28
2.1069563e-28
2.1042427e-28
2.1033039e-28
2.1030385e-28
2.1029746e-28
2.1029617e-28
2.1029656e-28
2.1029964e-28
2.1031137e-28
2.1034776e-28
2.1069581e-28
2.1042455e-28
2.1033073e-28
2.1030422e-28
2.1029785e-28
2.1029656e-28
2.1029695e-28
2.1030003e-28
2.1031177e-28
2.1034816e-28
2.1069804e-28
2.1042724e-28
2.1033368e-28
2.1030727e-28
2.1030092e-28
2.1029964e-28
2.1030003e-28
2.1030311e-28
2.1031485e-28
2.1035125e-28
2.1070664e-28
2.1043775e-28
2.1034508e-28
2.1031892e-28
2.1031264e-28
2.1031137e-28
2.1031177e-28
2.1031485e-28
2.1032661e-28
2.1036302e-28
2.1073333e-28
2.104717e-28
2.1038091e-28
2.103552e-28
2.1034901e-28
2.1034776e-28
2.1034816e-28
2.1035125e-28
2.1036302e-28
2.1039953e-28
6.0228502e-28
6.0153525e-28
6.0127545e-28
6.0120191e-28
6.0118419e-28
6.0118048e-28
6.0118097e-28
6.0118703e-28
6.0121033e-28
6.0128212e-28
6.0153525e-28
6.0078915e-28
6.0053035e-28
6.0045707e-28
6.0043941e-28
6.0043576e-28
6.0043653e-28
6.0044387e-28
6.0047258e-28
6.0056481e-28
6.0127545e-28
6.0053035e-28
6.0027196e-28
6.0019881e-28
6.0018119e-28
6.0017758e-28
6.0017854e-28
6.0018663e-28
6.0021781e-28
6.0031536e-28
6.0120191e-28
6.0045707e-28
6.0019881e-28
6.001257e-28
6.001081e-28
6.0010451e-28
6.0010554e-28
6.0011391e-28
6.0014583e-28
6.0024463e-28
6.0118419e-28
6.0043941e-28
6.0018119e-28
6.001081e-28
6.000905e-28
6.0008693e-28
6.0008798e-28
6.0009642e-28
6.0012852e-28
6.0022759e-28
6.0118048e-28
6.0043576e-28
6.0017758e-28
6.0010451e-28
6.0008693e-28
6.0008336e-28
6.0008442e-28
6.0009288e-28
6.0012502e-28
6.0022414e-28
6.0118097e-28
6.0043653e-28
6.0017854e-28
6.0010554e-28
6.0008798e-28
6.0008442e-28
6.0008549e-28
6.0009395e-28
6.0012611e-28
6.0022523e-28
6.0118703e-28
6.0044387e-28
6.0018663e-28
6.0011391e-28
6.0009642e-28
6.0009288e-28
6.0009395e-28
6.0010242e-28
6.0013459e-28
6.0023373e-28
6.0121033e-28
6.0047258e-28
6.0021781e-28
6.0014583e-28
6.0012852e-28
6.0012502e-28
6.0012611e-28
6.0013459e-28
6.0016677e-28
6.0026597e-28
6.0128212e-28
6.0056481e-28
6.0031536e-28
6.0024463e-28
6.0022759e-28
6.0022414e-28
6.0022523e-28
6.0023373e-28
6.0026597e-28
6.0036544e-28
1.7437225e-27
1.7416358e-27
1.7409114e-27
1.7407061e-27
1.7406566e-27
1.7406462e-27
1.7406475e-27
1.7406643e-27
1.7407283e-27
1.7409242e-27
1.7416358e-27
1.7395593e-27
1.7388376e-27
1.7386331e-27
1.7385837e-27
1.7385735e-27
1.7385756e-27
1.738596e-27
1.7386755e-27
1.7389299e-27
1.7409114e-27
1.7388376e-27
1.7381171e-27
1.7379129e-27
1.7378636e-27
1.7378535e-27
1.7378562e-27
1.7378787e-27
1.7379653e-27
1.7382349e-27
1.7407061e-27
1.7386331e-27
1.7379129e-27
1.7377088e-27
1.7376596e-27
1.7376495e-27
1.7376524e-27
1.7376757e-27
1.7377644e-27
1.7380376e-27
1.7406566e-27
1.7385837e-27
1.7378636e-27
1.7376596e-27
1.7376104e-27
1.7376004e-27
1.7376033e-27
1.7376268e-27
1.7377161e-27
1.73799e-27
1.7406462e-27
1.7385735e-27
1.7378535e-27
1.7376495e-27
1.7376004e-27
1.7375904e-27
1.7375934e-27
1.7376169e-27
1.7377063e-27
1.7379803e-27
1.7406475e-27
1.7385756e-27
1.7378562e-27
1.7376524e-27
1.7376033e-27
1.7375934e-27
1.7375963e-27
1.7376199e-27
1.7377093e-27
1.7379834e-27
1.7406643e-27
1.738596e-27
1.7378787e-27
1.7376757e-27
1.7376268e-27
1.7376169e-27
1.7376199e-27
1.7376436e-27
1.7377329e-27
1.738007e-27
1.7407283e-27
1.7386755e-27
1.7379653e-27
1.7377644e-27
1.7377161e-27
1.7377063e-27
1.7377093e-27
1.7377329e-27
1.7378224e-27
1.7380966e-27
1.7409242e-27
1.7389299e-27
1.7382349e-27
1.7380376e-27
1.73799e-27
1.7379803e-27
1.7379834e-27
1.738007e-27
1.7380966e-27
1.7383716e-27
5.1225833e-27
5.1166945e-27
5.1146462e-27
5.1140651e-27
5.1139248e-27
5.1138952e-27
5.113899e-27
5.1139458e-27
5.1141244e-27
5.1146668e-27
5.1166945e-27
5.110834e-27
5.1087934e-27
5.1082142e-27
5.1080744e-27
5.1080454e-27
5.1080514e-27
5.1081088e-27
5.1083323e-27
5.1090441e-27
5.1146462e-27
5.1087934e-27
5.106756e-27
5.1061778e-27
5.1060383e-27
5.1060096e-27
5.1060171e-27
5.1060808e-27
5.1063247e-27
5.1070807e-27
5.1140651e-27
5.1082142e-27
5.1061778e-27
5.1056e-27
5.1054606e-27
5.1054321e-27
5.1054402e-27
5.1055062e-27
5.1057562e-27
5.1065225e-27
5.1139248e-27
5.1080744e-27
5.1060383e-27
5.1054606e-27
5.1053212e-27
5.1052929e-27
5.1053012e-27
5.1053677e-27
5.1056193e-27
5.1063878e-27
5.1138952e-27
5.1080454e-27
5.1060096e-27
5.1054321e-27
5.1052929e-27
5.1052646e-27
5.1052729e-27
5.1053397e-27
5.1055916e-27
5.1063604e-27
5.113899e-27
5.1080514e-27
5.1060171e-27
5.1054402e-27
5.1053012e-27
5.1052729e-27
5.1052814e-27
5.1053481e-27
5.1056001e-27
5.1063691e-27
5.1139458e-27
5.1081088e-27
5.1060808e-27
5.1055062e-27
5.1053677e-27
5.1053397e-27
5.1053481e-27
5.1054149e-27
5.105667e-27
5.1064361e-27
5.1141244e-27
5.1083323e-27
5.1063247e-27
5.1057562e-27
5.1056193e-27
5.1055916e-27
5.1056001e-27
5.105667e-27
5.1059192e-27
5.1066887e-27
5.1146668e-27
5.1090441e-27
5.1070807e-27
5.1065225e-27
5.1063878e-27
5.1063604e-27
5.1063691e-27
5.1064361e-27
5.1066887e-27
5.1074602e-27
1.5268973e-26
1.5252122e-26
1.524625e-26
1.5244582e-26
1.5244179e-26
1.5244094e-26
1.5244105e-26
1.5244238e-26
1.5244743e-26
1.5246266e-26
1.5252122e-26
1.5235352e-26
1.5229501e-26
1.5227839e-26
1.5227437e-26
1.5227354e-26
1.5227371e-26
1.5227535e-26
1.5228172e-26
1.5230194e-26
1.524625e-26
1.5229501e-26
1.522366e-26
1.5222e-26
1.5221599e-26
1.5221517e-26
1.5221539e-26
1.5221721e-26
1.5222418e-26
1.522457e-26
1.5244582e-26
1.5227839e-26
1.5222e-26
1.5220342e-26
1.5219941e-26
1.5219859e-26
1.5219883e-26
1.5220072e-26
1.5220787e-26
1.5222969e-26
1.5244179e-26
1.5227437e-26
1.5221599e-26
1.5219941e-26
1.5219541e-26
1.5219459e-26
1.5219483e-26
1.5219674e-26
1.5220394e-26
1.5222582e-26
1.5244094e-26
1.5227354e-26
1.5221517e-26
1.5219859e-26
1.5219459e-26
1.5219378e-26
1.5219402e-26
1.5219594e-26
1.5220314e-26
1.5222504e-26
1.5244105e-26
1.5227371e-26
1.5221539e-26
1.5219883e-26
1.5219483e-26
1.5219402e-26
1.5219426e-26
1.5219618e-26
1.5220339e-26
1.5222528e-26
1.5244238e-26
1.5227535e-26
1.5221721e-26
1.5220072e-26
1.5219674e-26
1.5219594e-26
1.5219618e-26
1.521981e-26
1.5220531e-26
1.5222721e-26
1.5244743e-26
1.5228172e-26
1.5222418e-26
1.5220787e-26
1.5220394e-26
1.5220314e-26
1.5220339e-26
1.5220531e-26
1.5221253e-26
1.5223444e-26
1.5246266e-26
1.5230194e-26
1.522457e-26
1.5222969e-26
1.5222582e-26
1.5222504e-26