/*--------------------------------*- C++ -*----------------------------------*\
| =========                 |                                                 |
| \\      /  F ield         | OpenFOAM: The Open Source CFD Toolbox           |
|  \\    /   O peration     | Version:  dev                                   |
|   \\  /    A nd           | Web:      www.OpenFOAM.org                      |
|    \\/     M anipulation  |                                                 |
\*---------------------------------------------------------------------------*/
FoamFile
{
    version     2.0;
    format      ascii;
    class       volScalarField;
    location    "52.995";
    object      A_0;
}
// * * * * * * * * * * * * * * * * * * * * * * * * * * * * * * * * * * * * * //

dimensions      [0 0 0 0 1 0 0];

internalField   nonuniform List<scalar> 
10000
(
8.3825971e-32
8.3659663e-32
8.3589295e-32
8.3561881e-32
8.3552523e-32
8.3549929e-32
8.3550141e-32
8.3553134e-32
8.3562241e-32
8.3584859e-32
8.3659663e-32
8.3494217e-32
8.3424125e-32
8.3396807e-32
8.3387485e-32
8.3384921e-32
8.3385216e-32
8.3388483e-32
8.3398466e-32
8.3423846e-32
8.3589295e-32
8.3424125e-32
8.3354167e-32
8.3326903e-32
8.3317605e-32
8.331507e-32
8.3315442e-32
8.3318924e-32
8.332942e-32
8.335566e-32
8.3561881e-32
8.3396807e-32
8.3326903e-32
8.3299665e-32
8.3290379e-32
8.3287861e-32
8.3288275e-32
8.3291865e-32
8.3302574e-32
8.332908e-32
8.3552523e-32
8.3387485e-32
8.3317605e-32
8.3290379e-32
8.3281101e-32
8.3278591e-32
8.3279024e-32
8.3282655e-32
8.3293438e-32
8.3320022e-32
8.3549929e-32
8.3384921e-32
8.331507e-32
8.3287861e-32
8.3278591e-32
8.3276085e-32
8.3276525e-32
8.3280171e-32
8.3290976e-32
8.3317581e-32
8.3550141e-32
8.3385216e-32
8.3315442e-32
8.3288275e-32
8.3279024e-32
8.3276525e-32
8.3276969e-32
8.328062e-32
8.3291432e-32
8.3318044e-32
8.3553134e-32
8.3388483e-32
8.3318924e-32
8.3291865e-32
8.3282655e-32
8.3280171e-32
8.328062e-32
8.3284273e-32
8.3295091e-32
8.332171e-32
8.3562241e-32
8.3398466e-32
8.332942e-32
8.3302574e-32
8.3293438e-32
8.3290976e-32
8.3291432e-32
8.3295091e-32
8.3305919e-32
8.333256e-32
8.3584859e-32
8.3423846e-32
8.335566e-32
8.332908e-32
8.3320022e-32
8.3317581e-32
8.3318044e-32
8.332171e-32
8.333256e-32
8.335928e-32
3.0003414e-31
2.9946088e-31
2.9921236e-31
2.9911535e-31
2.9908221e-31
2.9907301e-31
2.9907375e-31
2.9908429e-31
2.9911643e-31
2.9919952e-31
2.9946088e-31
2.9889053e-31
2.9864297e-31
2.9854628e-31
2.9851327e-31
2.9850418e-31
2.9850522e-31
2.9851673e-31
2.98552e-31
2.9864502e-31
2.9921236e-31
2.9864297e-31
2.9839588e-31
2.9829938e-31
2.9826645e-31
2.9825747e-31
2.9825877e-31
2.9827106e-31
2.9830816e-31
2.9840424e-31
2.9911535e-31
2.9854628e-31
2.9829938e-31
2.9820298e-31
2.9817009e-31
2.9816117e-31
2.9816262e-31
2.9817529e-31
2.9821315e-31
2.9831019e-31
2.9908221e-31
2.9851327e-31
2.9826645e-31
2.9817009e-31
2.9813723e-31
2.9812834e-31
2.9812986e-31
2.9814268e-31
2.981808e-31
2.9827811e-31
2.9907301e-31
2.9850418e-31
2.9825747e-31
2.9816117e-31
2.9812834e-31
2.9811946e-31
2.98121e-31
2.9813387e-31
2.9817208e-31
2.9826946e-31
2.9907375e-31
2.9850522e-31
2.9825877e-31
2.9816262e-31
2.9812986e-31
2.98121e-31
2.9812257e-31
2.9813545e-31
2.9817368e-31
2.9827109e-31
2.9908429e-31
2.9851673e-31
2.9827106e-31
2.9817529e-31
2.9814268e-31
2.9813387e-31
2.9813545e-31
2.9814835e-31
2.981866e-31
2.9828403e-31
2.9911643e-31
2.98552e-31
2.9830816e-31
2.9821315e-31
2.981808e-31
2.9817208e-31
2.9817368e-31
2.981866e-31
2.9822489e-31
2.983224e-31
2.9919952e-31
2.9864502e-31
2.9840424e-31
2.9831019e-31
2.9827811e-31
2.9826946e-31
2.9827109e-31
2.9828403e-31
2.983224e-31
2.9842021e-31
6.9575965e-31
6.9447273e-31
6.9390897e-31
6.936884e-31
6.9361298e-31
6.9359202e-31
6.9359363e-31
6.9361739e-31
6.9368988e-31
6.9388295e-31
6.9447273e-31
6.9319222e-31
6.9263061e-31
6.9241078e-31
6.9233563e-31
6.9231492e-31
6.9231722e-31
6.9234323e-31
6.9242295e-31
6.9263896e-31
6.9390897e-31
6.9263061e-31
6.9207005e-31
6.9185065e-31
6.9177569e-31
6.9175522e-31
6.9175814e-31
6.9178593e-31
6.9186987e-31
6.9209298e-31
6.936884e-31
6.9241078e-31
6.9185065e-31
6.9163145e-31
6.915566e-31
6.9153626e-31
6.9153953e-31
6.9156821e-31
6.916539e-31
6.9187919e-31
6.9361298e-31
6.9233563e-31
6.9177569e-31
6.915566e-31
6.914818e-31
6.9146153e-31
6.9146496e-31
6.9149398e-31
6.9158028e-31
6.9180621e-31
6.9359202e-31
6.9231492e-31
6.9175522e-31
6.9153626e-31
6.9146153e-31
6.914413e-31
6.9144479e-31
6.9147392e-31
6.9156041e-31
6.9178651e-31
6.9359363e-31
6.9231722e-31
6.9175814e-31
6.9153953e-31
6.9146496e-31
6.9144479e-31
6.914483e-31
6.9147748e-31
6.9156402e-31
6.9179018e-31
6.9361739e-31
6.9234323e-31
6.9178593e-31
6.9156821e-31
6.9149398e-31
6.9147392e-31
6.9147748e-31
6.9150668e-31
6.9159326e-31
6.9181948e-31
6.9368988e-31
6.9242295e-31
6.9186987e-31
6.916539e-31
6.9158028e-31
6.9156041e-31
6.9156402e-31
6.9159326e-31
6.9167993e-31
6.9190633e-31
6.9388295e-31
6.9263896e-31
6.9209298e-31
6.9187919e-31
6.9180621e-31
6.9178651e-31
6.9179018e-31
6.9181948e-31
6.9190633e-31
6.9213343e-31
1.5210628e-30
1.5183382e-30
1.5171379e-30
1.5166673e-30
1.5165062e-30
1.5164614e-30
1.5164646e-30
1.5165148e-30
1.5166674e-30
1.5170761e-30
1.5183382e-30
1.5156271e-30
1.5144313e-30
1.5139622e-30
1.5138017e-30
1.5137574e-30
1.5137622e-30
1.5138172e-30
1.5139856e-30
1.5144442e-30
1.5171379e-30
1.5144313e-30
1.5132377e-30
1.5127696e-30
1.5126094e-30
1.5125656e-30
1.5125718e-30
1.5126307e-30
1.5128082e-30
1.5132823e-30
1.5166673e-30
1.5139622e-30
1.5127696e-30
1.5123018e-30
1.5121419e-30
1.5120984e-30
1.5121053e-30
1.5121661e-30
1.5123475e-30
1.5128263e-30
1.5165062e-30
1.5138017e-30
1.5126094e-30
1.5121419e-30
1.5119821e-30
1.5119387e-30
1.511946e-30
1.5120075e-30
1.5121902e-30
1.5126704e-30
1.5164614e-30
1.5137574e-30
1.5125656e-30
1.5120984e-30
1.5119387e-30
1.5118955e-30
1.5119028e-30
1.5119646e-30
1.5121477e-30
1.5126283e-30
1.5164646e-30
1.5137622e-30
1.5125718e-30
1.5121053e-30
1.511946e-30
1.5119028e-30
1.5119102e-30
1.5119721e-30
1.5121554e-30
1.512636e-30
1.5165148e-30
1.5138172e-30
1.5126307e-30
1.5121661e-30
1.5120075e-30
1.5119646e-30
1.5119721e-30
1.5120341e-30
1.5122174e-30
1.5126982e-30
1.5166674e-30
1.5139856e-30
1.5128082e-30
1.5123475e-30
1.5121902e-30
1.5121477e-30
1.5121554e-30
1.5122174e-30
1.5124009e-30
1.5128821e-30
1.5170761e-30
1.5144442e-30
1.5132823e-30
1.5128263e-30
1.5126704e-30
1.5126283e-30
1.512636e-30
1.5126982e-30
1.5128821e-30
1.5133647e-30
3.3183987e-30
3.3126441e-30
3.3100989e-30
3.3090988e-30
3.308756e-30
3.3086605e-30
3.3086671e-30
3.3087724e-30
3.3090918e-30
3.309943e-30
3.3126441e-30
3.3069177e-30
3.3043818e-30
3.303385e-30
3.3030434e-30
3.302949e-30
3.3029588e-30
3.3030748e-30
3.3034282e-30
3.3043879e-30
3.3100989e-30
3.3043818e-30
3.3018506e-30
3.3008557e-30
3.3005149e-30
3.3004216e-30
3.3004344e-30
3.3005587e-30
3.300932e-30
3.3019252e-30
3.3090988e-30
3.303385e-30
3.3008557e-30
3.2998617e-30
3.2995214e-30
3.2994288e-30
3.2994432e-30
3.2995716e-30
3.2999532e-30
3.3009566e-30
3.308756e-30
3.3030434e-30
3.3005149e-30
3.2995214e-30
3.2991814e-30
3.2990891e-30
3.2991042e-30
3.2992342e-30
3.2996187e-30
3.3006251e-30
3.3086605e-30
3.302949e-30
3.3004216e-30
3.2994288e-30
3.2990891e-30
3.2989969e-30
3.2990123e-30
3.2991429e-30
3.2995282e-30
3.3005355e-30
3.3086671e-30
3.3029588e-30
3.3004344e-30
3.2994432e-30
3.2991042e-30
3.2990123e-30
3.2990279e-30
3.2991586e-30
3.2995442e-30
3.3005518e-30
3.3087724e-30
3.3030748e-30
3.3005587e-30
3.2995716e-30
3.2992342e-30
3.2991429e-30
3.2991586e-30
3.2992895e-30
3.2996753e-30
3.3006831e-30
3.3090918e-30
3.3034282e-30
3.300932e-30
3.2999532e-30
3.2996187e-30
3.2995282e-30
3.2995442e-30
3.2996753e-30
3.3000614e-30
3.3010699e-30
3.309943e-30
3.3043879e-30
3.3019252e-30
3.3009566e-30
3.3006251e-30
3.3005355e-30
3.3005518e-30
3.3006831e-30
3.3010699e-30
3.3020817e-30
7.3108296e-30
7.2985605e-30
7.2931151e-30
7.2909714e-30
7.2902356e-30
7.2900302e-30
7.2900437e-30
7.2902667e-30
7.2909401e-30
7.2927219e-30
7.2985605e-30
7.2863507e-30
7.280925e-30
7.2787881e-30
7.2780549e-30
7.277852e-30
7.2778725e-30
7.2781187e-30
7.2788667e-30
7.2808863e-30
7.2931151e-30
7.280925e-30
7.2755092e-30
7.2733764e-30
7.272645e-30
7.2724444e-30
7.2724714e-30
7.2727359e-30
7.2735273e-30
7.2756201e-30
7.2909714e-30
7.2787881e-30
7.2733764e-30
7.2712454e-30
7.2705151e-30
7.2703159e-30
7.2703464e-30
7.27062e-30
7.2714294e-30
7.2735448e-30
7.2902356e-30
7.2780549e-30
7.272645e-30
7.2705151e-30
7.2697853e-30
7.2695868e-30
7.2696188e-30
7.2698959e-30
7.2707116e-30
7.2728336e-30
7.2900302e-30
7.277852e-30
7.2724444e-30
7.2703159e-30
7.2695868e-30
7.2693887e-30
7.2694214e-30
7.2696996e-30
7.2705172e-30
7.272641e-30
7.2900437e-30
7.2778725e-30
7.2724714e-30
7.2703464e-30
7.2696188e-30
7.2694214e-30
7.2694544e-30
7.269733e-30
7.2705512e-30
7.2726755e-30
7.2902667e-30
7.2781187e-30
7.2727359e-30
7.27062e-30
7.2698959e-30
7.2696996e-30
7.269733e-30
7.270012e-30
7.2708305e-30
7.2729554e-30
7.2909401e-30
7.2788667e-30
7.2735273e-30
7.2714294e-30
7.2707116e-30
7.2705172e-30
7.2705512e-30
7.2708305e-30
7.2716499e-30
7.2737763e-30
7.2927219e-30
7.2808863e-30
7.2756201e-30
7.2735448e-30
7.2728336e-30
7.272641e-30
7.2726755e-30
7.2729554e-30
7.2737763e-30
7.2759093e-30
1.6307837e-29
1.6281363e-29
1.6269574e-29
1.6264925e-29
1.6263327e-29
1.626288e-29
1.6262908e-29
1.6263386e-29
1.6264822e-29
1.6268592e-29
1.6281363e-29
1.6255015e-29
1.6243269e-29
1.6238633e-29
1.6237041e-29
1.62366e-29
1.6236643e-29
1.6237172e-29
1.6238774e-29
1.6243072e-29
1.6269574e-29
1.6243269e-29
1.6231543e-29
1.6226917e-29
1.6225328e-29
1.6224892e-29
1.622495e-29
1.6225519e-29
1.6227217e-29
1.6231677e-29
1.6264925e-29
1.6238633e-29
1.6226917e-29
1.6222294e-29
1.6220708e-29
1.6220275e-29
1.622034e-29
1.622093e-29
1.6222668e-29
1.6227178e-29
1.6263327e-29
1.6237041e-29
1.6225328e-29
1.6220708e-29
1.6219123e-29
1.6218691e-29
1.621876e-29
1.6219358e-29
1.6221109e-29
1.6225634e-29
1.626288e-29
1.62366e-29
1.6224892e-29
1.6220275e-29
1.6218691e-29
1.6218261e-29
1.6218331e-29
1.6218931e-29
1.6220687e-29
1.6225215e-29
1.6262908e-29
1.6236643e-29
1.622495e-29
1.622034e-29
1.621876e-29
1.6218331e-29
1.6218402e-29
1.6219003e-29
1.622076e-29
1.6225289e-29
1.6263386e-29
1.6237172e-29
1.6225519e-29
1.622093e-29
1.6219358e-29
1.6218931e-29
1.6219003e-29
1.6219604e-29
1.6221362e-29
1.6225893e-29
1.6264822e-29
1.6238774e-29
1.6227217e-29
1.6222668e-29
1.6221109e-29
1.6220687e-29
1.622076e-29
1.6221362e-29
1.6223122e-29
1.6227656e-29
1.6268592e-29
1.6243072e-29
1.6231677e-29
1.6227178e-29
1.6225634e-29
1.6225215e-29
1.6225289e-29
1.6225893e-29
1.6227656e-29
1.6232204e-29
3.6853896e-29
3.6796046e-29
3.6770203e-29
3.6759991e-29
3.6756477e-29
3.6755493e-29
3.6755551e-29
3.6756588e-29
3.6759692e-29
3.6767768e-29
3.6796046e-29
3.6738469e-29
3.6712718e-29
3.6702537e-29
3.6699035e-29
3.6698063e-29
3.6698155e-29
3.6699308e-29
3.6702781e-29
3.6712042e-29
3.6770203e-29
3.6712718e-29
3.6687012e-29
3.667685e-29
3.6673356e-29
3.6672396e-29
3.667252e-29
3.6673763e-29
3.6677452e-29
3.6687077e-29
3.6759991e-29
3.6702537e-29
3.667685e-29
3.6666697e-29
3.6663208e-29
3.6662255e-29
3.6662397e-29
3.6663685e-29
3.6667463e-29
3.66772e-29
3.6756477e-29
3.6699035e-29
3.6673356e-29
3.6663208e-29
3.6659723e-29
3.6658773e-29
3.6658922e-29
3.6660227e-29
3.6664037e-29
3.6673807e-29
3.6755493e-29
3.6698063e-29
3.6672396e-29
3.6662255e-29
3.6658773e-29
3.6657824e-29
3.6657977e-29
3.6659288e-29
3.6663107e-29
3.6672886e-29
3.6755551e-29
3.6698155e-29
3.667252e-29
3.6662397e-29
3.6658922e-29
3.6657977e-29
3.6658131e-29
3.6659444e-29
3.6663266e-29
3.6673047e-29
3.6756588e-29
3.6699308e-29
3.6673763e-29
3.6663685e-29
3.6660227e-29
3.6659288e-29
3.6659444e-29
3.6660759e-29
3.6664582e-29
3.6674366e-29
3.6759692e-29
3.6702781e-29
3.6677452e-29
3.6667463e-29
3.6664037e-29
3.6663107e-29
3.6663266e-29
3.6664582e-29
3.6668409e-29
3.66782e-29
3.6767768e-29
3.6712042e-29
3.6687077e-29
3.66772e-29
3.6673807e-29
3.6672886e-29
3.6673047e-29
3.6674366e-29
3.66782e-29
3.6688021e-29
8.4393197e-29
8.4265161e-29
8.4207785e-29
8.418507e-29
8.4177244e-29
8.417505e-29
8.4175171e-29
8.4177452e-29
8.4184243e-29
8.4201768e-29
8.4265161e-29
8.4137724e-29
8.4080547e-29
8.40579e-29
8.40501e-29
8.4047933e-29
8.4048133e-29
8.4050676e-29
8.4058308e-29
8.4078526e-29
8.4207785e-29
8.4080547e-29
8.402347e-29
8.4000865e-29
8.3993085e-29
8.3990944e-29
8.3991216e-29
8.3993964e-29
8.4002085e-29
8.4023131e-29
8.418507e-29
8.40579e-29
8.4000865e-29
8.397828e-29
8.3970511e-29
8.3968385e-29
8.3968697e-29
8.3971546e-29
8.397987e-29
8.4001171e-29
8.4177244e-29
8.40501e-29
8.3993085e-29
8.3970511e-29
8.3962748e-29
8.396063e-29
8.3960959e-29
8.3963848e-29
8.3972242e-29
8.3993617e-29
8.417505e-29
8.4047933e-29
8.3990944e-29
8.3968385e-29
8.396063e-29
8.3958516e-29
8.3958852e-29
8.3961754e-29
8.3970169e-29
8.3991565e-29
8.4175171e-29
8.4048133e-29
8.3991216e-29
8.3968697e-29
8.3960959e-29
8.3958852e-29
8.3959191e-29
8.3962098e-29
8.397052e-29
8.3991921e-29
8.4177452e-29
8.4050676e-29
8.3993964e-29
8.3971546e-29
8.3963848e-29
8.3961754e-29
8.3962098e-29
8.3965008e-29
8.3973434e-29
8.399484e-29
8.4184243e-29
8.4058308e-29
8.4002085e-29
8.397987e-29
8.3972242e-29
8.3970169e-29
8.397052e-29
8.3973434e-29
8.3981868e-29
8.400329e-29
8.4201768e-29
8.4078526e-29
8.4023131e-29
8.4001171e-29
8.3993617e-29
8.3991565e-29
8.3991921e-29
8.399484e-29
8.400329e-29
8.4024775e-29
1.9584269e-28
1.9555566e-28
1.9542663e-28
1.9537546e-28
1.953578e-28
1.9535285e-28
1.953531e-28
1.9535819e-28
1.9537324e-28
1.9541177e-28
1.9555566e-28
1.9526995e-28
1.9514136e-28
1.9509034e-28
1.9507274e-28
1.9506785e-28
1.9506829e-28
1.9507397e-28
1.9509097e-28
1.9513569e-28
1.9542663e-28
1.9514136e-28
1.95013e-28
1.9496207e-28
1.9494452e-28
1.9493968e-28
1.9494029e-28
1.9494644e-28
1.9496456e-28
1.9501119e-28
1.9537546e-28
1.9509034e-28
1.9496207e-28
1.9491118e-28
1.9489366e-28
1.9488886e-28
1.9488955e-28
1.9489594e-28
1.9491452e-28
1.9496174e-28
1.953578e-28
1.9507274e-28
1.9494452e-28
1.9489366e-28
1.9487615e-28
1.9487136e-28
1.948721e-28
1.9487858e-28
1.9489732e-28
1.9494471e-28
1.9535285e-28
1.9506785e-28
1.9493968e-28
1.9488886e-28
1.9487136e-28
1.9486659e-28
1.9486734e-28
1.9487385e-28
1.9489265e-28
1.9494008e-28
1.953531e-28
1.9506829e-28
1.9494029e-28
1.9488955e-28
1.948721e-28
1.9486734e-28
1.948681e-28
1.9487462e-28
1.9489343e-28
1.9494088e-28
1.9535819e-28
1.9507397e-28
1.9494644e-28
1.9489594e-28
1.9487858e-28
1.9487385e-28
1.9487462e-28
1.9488115e-28
1.9489997e-28
1.9494743e-28
1.9537324e-28
1.9509097e-28
1.9496456e-28
1.9491452e-28
1.9489732e-28
1.9489265e-28
1.9489343e-28
1.9489997e-28
1.949188e-28
1.9496629e-28
1.9541177e-28
1.9513569e-28
1.9501119e-28
1.9496174e-28
1.9494471e-28
1.9494008e-28
1.9494088e-28
1.9494743e-28
1.9496629e-28
1.9501392e-28
4.6058647e-28
4.5993463e-28
4.5964072e-28
4.5952394e-28
4.5948361e-28
4.5947227e-28
4.5947282e-28
4.594843e-28
4.5951812e-28
4.5960391e-28
4.5993463e-28
4.5928577e-28
4.5899285e-28
4.5887641e-28
4.5883621e-28
4.5882502e-28
4.5882599e-28
4.5883887e-28
4.588772e-28
4.5897746e-28
4.5964072e-28
4.5899285e-28
4.5870044e-28
4.585842e-28
4.5854411e-28
4.5853305e-28
4.5853441e-28
4.5854838e-28
4.5858933e-28
4.5869404e-28
4.5952394e-28
4.5887641e-28
4.585842e-28
4.5846807e-28
4.5842803e-28
4.5841706e-28
4.5841863e-28
4.5843315e-28
4.5847518e-28
4.5858125e-28
4.5948361e-28
4.5883621e-28
4.5854411e-28
4.5842803e-28
4.5838803e-28
4.5837709e-28
4.5837876e-28
4.5839348e-28
4.584359e-28
4.5854236e-28
4.5947227e-28
4.5882502e-28
4.5853305e-28
4.5841706e-28
4.5837709e-28
4.5836618e-28
4.5836788e-28
4.5838268e-28
4.584252e-28
4.5853178e-28
4.5947282e-28
4.5882599e-28
4.5853441e-28
4.5841863e-28
4.5837876e-28
4.5836788e-28
4.583696e-28
4.5838442e-28
4.5842698e-28
4.5853359e-28
4.594843e-28
4.5883887e-28
4.5854838e-28
4.5843315e-28
4.5839348e-28
4.5838268e-28
4.5838442e-28
4.5839926e-28
4.5844184e-28
4.5854847e-28
4.5951812e-28
4.588772e-28
4.5858933e-28
4.5847518e-28
4.584359e-28
4.584252e-28
4.5842698e-28
4.5844184e-28
4.5848446e-28
4.5859117e-28
4.5960391e-28
4.5897746e-28
4.5869404e-28
4.5858125e-28
4.5854236e-28
4.5853178e-28
4.5853359e-28
4.5854847e-28
4.5859117e-28
4.5869818e-28
1.0978465e-27
1.0963469e-27
1.0956687e-27
1.0953988e-27
1.0953054e-27
1.0952792e-27
1.0952804e-27
1.0953066e-27
1.0953836e-27
1.0955772e-27
1.0963469e-27
1.0948541e-27
1.0941782e-27
1.093909e-27
1.093816e-27
1.0937901e-27
1.0937922e-27
1.0938218e-27
1.0939095e-27
1.0941372e-27
1.0956687e-27
1.0941782e-27
1.0935034e-27
1.0932347e-27
1.0931419e-27
1.0931163e-27
1.0931194e-27
1.0931516e-27
1.0932454e-27
1.0934836e-27
1.0953988e-27
1.093909e-27
1.0932347e-27
1.0929663e-27
1.0928736e-27
1.0928482e-27
1.0928518e-27
1.0928852e-27
1.0929816e-27
1.0932231e-27
1.0953054e-27
1.093816e-27
1.0931419e-27
1.0928736e-27
1.092781e-27
1.0927557e-27
1.0927595e-27
1.0927934e-27
1.0928907e-27
1.0931331e-27
1.0952792e-27
1.0937901e-27
1.0931163e-27
1.0928482e-27
1.0927557e-27
1.0927304e-27
1.0927343e-27
1.0927684e-27
1.0928659e-27
1.0931086e-27
1.0952804e-27
1.0937922e-27
1.0931194e-27
1.0928518e-27
1.0927595e-27
1.0927343e-27
1.0927383e-27
1.0927724e-27
1.09287e-27
1.0931128e-27
1.0953066e-27
1.0938218e-27
1.0931516e-27
1.0928852e-27
1.0927934e-27
1.0927684e-27
1.0927724e-27
1.0928066e-27
1.0929043e-27
1.0931471e-27
1.0953836e-27
1.0939095e-27
1.0932454e-27
1.0929816e-27
1.0928907e-27
1.0928659e-27
1.09287e-27
1.0929043e-27
1.093002e-27
1.093245e-27
1.0955772e-27
1.0941372e-27
1.0934836e-27
1.0932231e-27
1.0931331e-27
1.0931086e-27
1.0931128e-27
1.0931471e-27
1.093245e-27
1.0934887e-27
2.6522663e-27
2.6487715e-27
2.6471863e-27
2.6465543e-27
2.6463355e-27
2.6462738e-27
2.6462765e-27
2.6463374e-27
2.6465149e-27
2.6469575e-27
2.6487715e-27
2.6452924e-27
2.6437124e-27
2.6430821e-27
2.642864e-27
2.6428032e-27
2.6428082e-27
2.642877e-27
2.64308e-27
2.6436045e-27
2.6471863e-27
2.6437124e-27
2.6421351e-27
2.6415059e-27
2.6412884e-27
2.6412283e-27
2.6412355e-27
2.6413104e-27
2.6415282e-27
2.6420778e-27
2.6465543e-27
2.6430821e-27
2.6415059e-27
2.6408773e-27
2.6406601e-27
2.6406004e-27
2.6406088e-27
2.6406868e-27
2.6409108e-27
2.641468e-27
2.6463355e-27
2.642864e-27
2.6412884e-27
2.6406601e-27
2.640443e-27
2.6403836e-27
2.6403925e-27
2.6404717e-27
2.6406978e-27
2.6412573e-27
2.6462738e-27
2.6428032e-27
2.6412283e-27
2.6406004e-27
2.6403836e-27
2.6403243e-27
2.6403334e-27
2.640413e-27
2.6406397e-27
2.6411998e-27
2.6462765e-27
2.6428082e-27
2.6412355e-27
2.6406088e-27
2.6403925e-27
2.6403334e-27
2.6403427e-27
2.6404224e-27
2.6406493e-27
2.6412096e-27
2.6463374e-27
2.642877e-27
2.6413104e-27
2.6406868e-27
2.6404717e-27
2.640413e-27
2.6404224e-27
2.6405022e-27
2.6407292e-27
2.6412896e-27
2.6465149e-27
2.64308e-27
2.6415282e-27
2.6409108e-27
2.6406978e-27
2.6406397e-27
2.6406493e-27
2.6407292e-27
2.6409564e-27
2.6415172e-27
2.6469575e-27
2.6436045e-27
2.6420778e-27
2.641468e-27
2.6412573e-27
2.6411998e-27
2.6412096e-27
2.6412896e-27
2.6415172e-27
2.6420796e-27
6.4945925e-27
6.4863413e-27
6.482588e-27
6.4810888e-27
6.4805693e-27
6.4804227e-27
6.4804287e-27
6.4805717e-27
6.4809868e-27
6.4820121e-27
6.4863413e-27
6.4781268e-27
6.4743855e-27
6.4728905e-27
6.4723727e-27
6.472228e-27
6.4722397e-27
6.4724018e-27
6.4728787e-27
6.4741025e-27
6.482588e-27
6.4743855e-27
6.4706505e-27
6.4691581e-27
6.4686416e-27
6.4684987e-27
6.4685157e-27
6.4686927e-27
6.4692053e-27
6.47049e-27
6.4810888e-27
6.4728905e-27
6.4691581e-27
6.467667e-27
6.4671512e-27
6.4670094e-27
6.4670293e-27
6.4672137e-27
6.4677412e-27
6.4690446e-27
6.4805693e-27
6.4723727e-27
6.4686416e-27
6.4671512e-27
6.4666358e-27
6.4664946e-27
6.4665157e-27
6.466703e-27
6.4672356e-27
6.4685444e-27
6.4804227e-27
6.472228e-27
6.4684987e-27
6.4670094e-27
6.4664946e-27
6.4663537e-27
6.4663753e-27
6.4665636e-27
6.4670977e-27
6.468408e-27
6.4804287e-27
6.4722397e-27
6.4685157e-27
6.4670293e-27
6.4665157e-27
6.4663753e-27
6.4663971e-27
6.4665858e-27
6.4671203e-27
6.4684311e-27
6.4805717e-27
6.4724018e-27
6.4686927e-27
6.4672137e-27
6.466703e-27
6.4665636e-27
6.4665858e-27
6.4667746e-27
6.4673094e-27
6.4686205e-27
6.4809868e-27
6.4728787e-27
6.4692053e-27
6.4677412e-27
6.4672356e-27
6.4670977e-27
6.4671203e-27
6.4673094e-27
6.4678447e-27
6.4691567e-27
6.4820121e-27
6.4741025e-27
6.47049e-27
6.4690446e-27
6.4685444e-27
6.468408e-27
6.4684311e-27
6.4686205e-27
6.4691567e-27
6.4704722e-27
1.6119649e-26
1.6099914e-26
1.6090911e-26
1.6087309e-26
1.6086059e-26
1.6085706e-26
1.608572e-26
1.608606e-26
1.6087043e-26
1.608945e-26
1.6099914e-26
1.6080265e-26
1.6071291e-26
1.6067698e-26
1.6066453e-26
1.6066105e-26
1.6066132e-26
1.606652e-26
1.6067655e-26
1.6070549e-26
1.6090911e-26
1.6071291e-26
1.6062331e-26
1.6058745e-26
1.6057503e-26
1.6057159e-26
1.6057199e-26
1.6057623e-26
1.6058846e-26
1.606189e-26
1.6087309e-26
1.6067698e-26
1.6058745e-26
1.6055162e-26
1.6053921e-26
1.605358e-26
1.6053628e-26
1.605407e-26
1.6055329e-26
1.6058419e-26
1.6086059e-26
1.6066453e-26
1.6057503e-26
1.6053921e-26
1.6052682e-26
1.6052342e-26
1.6052393e-26
1.6052842e-26
1.6054113e-26
1.6057217e-26
1.6085706e-26
1.6066105e-26
1.6057159e-26
1.605358e-26
1.6052342e-26
1.6052003e-26
1.6052055e-26
1.6052506e-26
1.6053782e-26
1.6056889e-26
1.608572e-26
1.6066132e-26
1.6057199e-26
1.6053628e-26
1.6052393e-26
1.6052055e-26
1.6052107e-26
1.6052559e-26
1.6053836e-26
1.6056944e-26
1.608606e-26
1.606652e-26
1.6057623e-26
1.605407e-26
1.6052842e-26
1.6052506e-26
1.6052559e-26
1.6053012e-26
1.6054289e-26
1.6057398e-26
1.6087043e-26
1.6067655e-26
1.6058846e-26
1.6055329e-26
1.6054113e-26
1.6053782e-26
1.6053836e-26
1.6054289e-26
1.6055568e-26
1.6058679e-26
1.608945e-26
1.6070549e-26
1.606189e-26
1.6058419e-26
1.6057217e-26
1.6056889e-26
1.6056944e-26
1.6057398e-26
1.6058679e-26
1.6061798e-26
4.0553937e-26
4.0506117e-26
4.0484241e-26
4.0475474e-26
4.047243e-26
4.0471569e-26
4.04716e-26
4.0472422e-26
4.0474782e-26
4.0480509e-26
4.0506117e-26
4.0458505e-26
4.0436698e-26
4.0427954e-26
4.0424919e-26
4.042407e-26
4.0424136e-26
4.0425074e-26
4.0427812e-26
4.0434752e-26
4.0484241e-26
4.0436698e-26
4.0414926e-26
4.0406197e-26
4.040317e-26
4.0402332e-26
4.0402429e-26
4.0403459e-26
4.0406414e-26
4.0413726e-26
4.0475474e-26
4.0427954e-26
4.0406197e-26
4.0397476e-26
4.0394453e-26
4.0393621e-26
4.0393737e-26
4.0394811e-26
4.0397857e-26
4.0405284e-26
4.047243e-26
4.0424919e-26
4.040317e-26
4.0394453e-26
4.0391433e-26
4.0390604e-26
4.0390727e-26
4.0391819e-26
4.0394897e-26
4.0402356e-26
4.0471569e-26
4.042407e-26
4.0402332e-26
4.0393621e-26
4.0390604e-26
4.0389778e-26
4.0389904e-26
4.0391001e-26
4.0394088e-26
4.0401557e-26
4.04716e-26
4.0424136e-26
4.0402429e-26
4.0393737e-26
4.0390727e-26
4.0389904e-26
4.0390032e-26
4.0391131e-26
4.0394221e-26
4.0401692e-26
4.0472422e-26
4.0425074e-26
4.0403459e-26
4.0394811e-26
4.0391819e-26
4.0391001e-26
4.0391131e-26
4.0392232e-26
4.0395323e-26
4.0402796e-26
4.0474782e-26
4.0427812e-26
4.0406414e-26
4.0397857e-26
4.0394897e-26
4.0394088e-26
4.0394221e-26
4.0395323e-26
4.0398417e-26
4.0405895e-26
4.0480509e-26
4.0434752e-26
4.0413726e-26
4.0405284e-26
4.0402356e-26
4.0401557e-26
4.0401692e-26
4.0402796e-26
4.0405895e-26
4.0413392e-26
1.0341513e-25
1.0329774e-25
1.032439e-25
1.0322228e-25
1.0321477e-25
1.0321264e-25
1.0321271e-25
1.0321472e-25
1.0322047e-25
1.0323427e-25
1.0329774e-25
1.0318086e-25
1.0312718e-25
1.0310563e-25
1.0309814e-25
1.0309604e-25
1.030962e-25
1.030985e-25
1.031052e-25
1.0312206e-25
1.032439e-25
1.0312718e-25
1.0307359e-25
1.0305207e-25
1.030446e-25
1.0304253e-25
1.0304277e-25
1.030453e-25
1.0305254e-25
1.0307035e-25
1.0322228e-25
1.0310563e-25
1.0305207e-25
1.0303057e-25
1.0302311e-25
1.0302105e-25
1.0302134e-25
1.0302398e-25
1.0303146e-25
1.0304955e-25
1.0321477e-25
1.0309814e-25
1.030446e-25
1.0302311e-25
1.0301565e-25
1.0301361e-25
1.0301391e-25
1.030166e-25
1.0302415e-25
1.0304232e-25
1.0321264e-25
1.0309604e-25
1.0304253e-25
1.0302105e-25
1.0301361e-25
1.0301157e-25
1.0301188e-25
1.0301458e-25
1.0302215e-25
1.0304035e-25
1.0321271e-25
1.030962e-25
1.0304277e-25
1.0302134e-25
1.0301391e-25
1.0301188e-25
1.0301219e-25
1.030149e-25
1.0302248e-25
1.0304069e-25
1.0321472e-25
1.030985e-25
1.030453e-25
1.0302398e-25
1.030166e-25
1.0301458e-25
1.030149e-25
1.0301762e-25
1.030252e-25
1.0304341e-25
1.0322047e-25
1.031052e-25
1.0305254e-25
1.0303146e-25
1.0302415e-25
1.0302215e-25
1.0302248e-25
1.030252e-25
1.0303279e-25
1.0305101e-25
1.0323427e-25
1.0312206e-25
1.0307035e-25
1.0304955e-25
1.0304232e-25
1.0304035e-25
1.0304069e-25
1.0304341e-25
1.0305101e-25
1.0306927e-25
2.673026e-25
2.6701071e-25
2.6687646e-25
2.6682248e-25
2.668037e-25
2.6679838e-25
2.6679855e-25
2.6680353e-25
2.6681769e-25
2.6685142e-25
2.6701071e-25
2.6672007e-25
2.6658622e-25
2.6653239e-25
2.6651366e-25
2.6650841e-25
2.6650881e-25
2.6651454e-25
2.6653113e-25
2.6657267e-25
2.6687646e-25
2.6658622e-25
2.6645259e-25
2.6639885e-25
2.6638017e-25
2.6637499e-25
2.6637559e-25
2.663819e-25
2.6639989e-25
2.6644383e-25
2.6682248e-25
2.6653239e-25
2.6639885e-25
2.6634515e-25
2.663265e-25
2.6632136e-25
2.6632207e-25
2.6632867e-25
2.6634724e-25
2.6639191e-25
2.668037e-25
2.6651366e-25
2.6638017e-25
2.663265e-25
2.6630786e-25
2.6630274e-25
2.6630351e-25
2.6631022e-25
2.6632899e-25
2.6637387e-25
2.6679838e-25
2.6650841e-25
2.6637499e-25
2.6632136e-25
2.6630274e-25
2.6629764e-25
2.6629842e-25
2.6630517e-25
2.66324e-25
2.6636894e-25
2.6679855e-25
2.6650881e-25
2.6637559e-25
2.6632207e-25
2.6630351e-25
2.6629842e-25
2.6629921e-25
2.6630598e-25
2.6632482e-25
2.6636978e-25
2.6680353e-25
2.6651454e-25
2.663819e-25
2.6632867e-25
2.6631022e-25
2.6630517e-25
2.6630598e-25
2.6631275e-25
2.6633161e-25
2.6637658e-25
2.6681769e-25
2.6653113e-25
2.6639989e-25
2.6634724e-25
2.6632899e-25
2.66324e-25
2.6632482e-25
2.6633161e-25
2.6635048e-25
2.6639548e-25
2.6685142e-25
2.6657267e-25
2.6644383e-25
2.6639191e-25
2.6637387e-25
2.6636894e-25
2.6636978e-25
2.6637658e-25
2.6639548e-25
2.6644059e-25
7.002921e-25
6.9955689e-25
6.9921783e-25
6.9908131e-25
6.9903375e-25
6.9902026e-25
6.9902067e-25
6.9903318e-25
6.9906857e-25
6.9915207e-25
6.9955689e-25
6.9882479e-25
6.9848675e-25
6.9835057e-25
6.9830316e-25
6.9828985e-25
6.9829084e-25
6.9830529e-25
6.9834695e-25
6.9845067e-25
6.9921783e-25
6.9848675e-25
6.9814924e-25
6.9801329e-25
6.97966e-25
6.9795287e-25
6.9795439e-25
6.9797035e-25
6.9801563e-25
6.9812553e-25
6.9908131e-25
6.9835057e-25
6.9801329e-25
6.9787745e-25
6.9783022e-25
6.9781721e-25
6.9781902e-25
6.9783572e-25
6.978825e-25
6.9799431e-25
6.9903375e-25
6.9830316e-25
6.97966e-25
6.9783022e-25
6.9778304e-25
6.9777008e-25
6.9777202e-25
6.9778901e-25
6.978363e-25
6.9794866e-25
6.9902026e-25
6.9828985e-25
6.9795287e-25
6.9781721e-25
6.9777008e-25
6.9775715e-25
6.9775914e-25
6.9777622e-25
6.9782368e-25
6.9793619e-25
6.9902067e-25
6.9829084e-25
6.9795439e-25
6.9781902e-25
6.9777202e-25
6.9775914e-25
6.9776115e-25
6.9777827e-25
6.9782577e-25
6.9793832e-25
6.9903318e-25
6.9830529e-25
6.9797035e-25
6.9783572e-25
6.9778901e-25
6.9777622e-25
6.9777827e-25
6.9779541e-25
6.9784293e-25
6.9795551e-25
6.9906857e-25
6.9834695e-25
6.9801563e-25
6.978825e-25
6.978363e-25
6.9782368e-25
6.9782577e-25
6.9784293e-25
6.9789049e-25
6.9800315e-25
6.9915207e-25
6.9845067e-25
6.9812553e-25
6.9799431e-25
6.9794866e-25
6.9793619e-25
6.9793832e-25
6.9795551e-25
6.9800315e-25
6.9811607e-25
1.8594954e-24
1.8576197e-24
1.8567524e-24
1.8564026e-24
1.8562807e-24
1.856246e-24
1.856247e-24
1.8562789e-24
1.8563685e-24
1.856578e-24
1.8576197e-24
1.8557518e-24
1.854887e-24
1.8545382e-24
1.8544166e-24
1.8543824e-24
1.854385e-24
1.8544219e-24
1.8545279e-24
1.8547904e-24
1.8567524e-24
1.854887e-24
1.8540237e-24
1.8536754e-24
1.8535541e-24
1.8535204e-24
1.8535243e-24
1.8535652e-24
1.8536807e-24
1.8539594e-24
1.8564026e-24
1.8545382e-24
1.8536754e-24
1.8533273e-24
1.8532062e-24
1.8531729e-24
1.8531775e-24
1.8532203e-24
1.8533398e-24
1.8536234e-24
1.8562807e-24
1.8544166e-24
1.8535541e-24
1.8532062e-24
1.8530852e-24
1.853052e-24
1.853057e-24
1.8531006e-24
1.8532214e-24
1.8535065e-24
1.856246e-24
1.8543824e-24
1.8535204e-24
1.8531729e-24
1.853052e-24
1.8530188e-24
1.853024e-24
1.8530678e-24
1.853189e-24
1.8534745e-24
1.856247e-24
1.854385e-24
1.8535243e-24
1.8531775e-24
1.853057e-24
1.853024e-24
1.8530292e-24
1.8530731e-24
1.8531944e-24
1.85348e-24
1.8562789e-24
1.8544219e-24
1.8535652e-24
1.8532203e-24
1.8531006e-24
1.8530678e-24
1.8530731e-24
1.853117e-24
1.8532384e-24
1.8535241e-24
1.8563685e-24
1.8545279e-24
1.8536807e-24
1.8533398e-24
1.8532214e-24
1.853189e-24
1.8531944e-24
1.8532384e-24
1.8533599e-24
1.8536458e-24
1.856578e-24
1.8547904e-24
1.8539594e-24
1.8536234e-24
1.8535065e-24
1.8534745e-24
1.85348e-24
1.8535241e-24
1.8536458e-24
1.8539323e-24
5.0041166e-24
4.9992696e-24
4.9970228e-24
4.9961154e-24
4.9957987e-24
4.9957087e-24
4.9957113e-24
4.9957934e-24
4.9960234e-24
4.9965558e-24
4.9992696e-24
4.9944428e-24
4.9922025e-24
4.9912973e-24
4.9909816e-24
4.9908929e-24
4.9908994e-24
4.990995e-24
4.9912686e-24
4.9919417e-24
4.9970228e-24
4.9922025e-24
4.9899658e-24
4.9890621e-24
4.9887471e-24
4.9886597e-24
4.9886698e-24
4.9887759e-24
4.9890746e-24
4.9897907e-24
4.9961154e-24
4.9912973e-24
4.9890621e-24
4.9881591e-24
4.9878446e-24
4.9877579e-24
4.9877701e-24
4.9878813e-24
4.9881904e-24
4.9889198e-24
4.9957987e-24
4.9909816e-24
4.9887471e-24
4.9878446e-24
4.9875304e-24
4.987444e-24
4.9874571e-24
4.9875703e-24
4.987883e-24
4.9886162e-24
4.9957087e-24
4.9908929e-24
4.9886597e-24
4.9877579e-24
4.987444e-24
4.9873579e-24
4.9873713e-24
4.9874852e-24
4.987799e-24
4.9885332e-24
4.9957113e-24
4.9908994e-24
4.9886698e-24
4.9877701e-24
4.9874571e-24
4.9873713e-24
4.9873849e-24
4.9874991e-24
4.9878131e-24
4.9885477e-24
4.9957934e-24
4.990995e-24
4.9887759e-24
4.9878813e-24
4.9875703e-24
4.9874852e-24
4.9874991e-24
4.9876133e-24
4.9879276e-24
4.9886623e-24
4.9960234e-24
4.9912686e-24
4.9890746e-24
4.9881904e-24
4.987883e-24
4.987799e-24
4.9878131e-24
4.9879276e-24
4.988242e-24
4.9889772e-24
4.9965558e-24
4.9919417e-24
4.9897907e-24
4.9889198e-24
4.9886162e-24
4.9885332e-24
4.9885477e-24
4.9886623e-24
4.9889772e-24
4.9897141e-24