/*--------------------------------*- C++ -*----------------------------------*\
| =========                 |                                                 |
| \\      /  F ield         | OpenFOAM: The Open Source CFD Toolbox           |
|  \\    /   O peration     | Version:  dev                                   |
|   \\  /    A nd           | Web:      www.OpenFOAM.org                      |
|    \\/     M anipulation  |                                                 |
\*---------------------------------------------------------------------------*/
FoamFile
{
    version     2.0;
    format      ascii;
    class       volScalarField;
    location    "26";
    object      A;
}
// * * * * * * * * * * * * * * * * * * * * * * * * * * * * * * * * * * * * * //

dimensions      [0 0 0 0 1 0 0];

internalField   nonuniform List<scalar> 
10000
(
3.1477136e-47
3.1474601e-47
3.1473372e-47
3.1472802e-47
3.1472562e-47
3.1472473e-47
3.1472449e-47
3.1472457e-47
3.1472504e-47
3.147264e-47
3.1474601e-47
3.1472068e-47
3.1470839e-47
3.1470269e-47
3.1470029e-47
3.146994e-47
3.1469917e-47
3.146993e-47
3.1469987e-47
3.1470155e-47
3.1473372e-47
3.1470839e-47
3.146961e-47
3.146904e-47
3.1468801e-47
3.1468712e-47
3.146869e-47
3.1468706e-47
3.1468769e-47
3.1468948e-47
3.1472802e-47
3.1470269e-47
3.146904e-47
3.1468471e-47
3.1468231e-47
3.1468143e-47
3.1468122e-47
3.1468139e-47
3.1468205e-47
3.1468388e-47
3.1472562e-47
3.1470029e-47
3.1468801e-47
3.1468231e-47
3.1467992e-47
3.1467904e-47
3.1467884e-47
3.1467901e-47
3.1467969e-47
3.1468152e-47
3.1472473e-47
3.146994e-47
3.1468712e-47
3.1468143e-47
3.1467904e-47
3.1467817e-47
3.1467796e-47
3.1467815e-47
3.1467883e-47
3.1468066e-47
3.1472449e-47
3.1469917e-47
3.146869e-47
3.1468122e-47
3.1467884e-47
3.1467796e-47
3.1467776e-47
3.1467794e-47
3.1467863e-47
3.1468046e-47
3.1472457e-47
3.146993e-47
3.1468706e-47
3.1468139e-47
3.1467901e-47
3.1467815e-47
3.1467794e-47
3.1467813e-47
3.1467881e-47
3.1468065e-47
3.1472504e-47
3.1469987e-47
3.1468769e-47
3.1468205e-47
3.1467969e-47
3.1467883e-47
3.1467863e-47
3.1467881e-47
3.146795e-47
3.1468133e-47
3.147264e-47
3.1470155e-47
3.1468948e-47
3.1468388e-47
3.1468152e-47
3.1468066e-47
3.1468046e-47
3.1468065e-47
3.1468133e-47
3.1468317e-47
1.3861226e-46
1.3860144e-46
1.3859612e-46
1.3859364e-46
1.385926e-46
1.3859221e-46
1.3859211e-46
1.3859214e-46
1.3859234e-46
1.3859296e-46
1.3860144e-46
1.3859062e-46
1.385853e-46
1.3858282e-46
1.3858178e-46
1.385814e-46
1.385813e-46
1.3858135e-46
1.385816e-46
1.3858235e-46
1.3859612e-46
1.385853e-46
1.3857997e-46
1.385775e-46
1.3857646e-46
1.3857608e-46
1.3857598e-46
1.3857605e-46
1.3857632e-46
1.3857712e-46
1.3859364e-46
1.3858282e-46
1.385775e-46
1.3857503e-46
1.3857399e-46
1.3857361e-46
1.3857351e-46
1.3857359e-46
1.3857388e-46
1.3857469e-46
1.385926e-46
1.3858178e-46
1.3857646e-46
1.3857399e-46
1.3857295e-46
1.3857257e-46
1.3857248e-46
1.3857255e-46
1.3857285e-46
1.3857367e-46
1.3859221e-46
1.385814e-46
1.3857608e-46
1.3857361e-46
1.3857257e-46
1.3857219e-46
1.385721e-46
1.3857218e-46
1.3857247e-46
1.3857329e-46
1.3859211e-46
1.385813e-46
1.3857598e-46
1.3857351e-46
1.3857248e-46
1.385721e-46
1.3857201e-46
1.3857209e-46
1.3857239e-46
1.3857321e-46
1.3859214e-46
1.3858135e-46
1.3857605e-46
1.3857359e-46
1.3857255e-46
1.3857218e-46
1.3857209e-46
1.3857217e-46
1.3857247e-46
1.3857329e-46
1.3859234e-46
1.385816e-46
1.3857632e-46
1.3857388e-46
1.3857285e-46
1.3857247e-46
1.3857239e-46
1.3857247e-46
1.3857276e-46
1.3857358e-46
1.3859296e-46
1.3858235e-46
1.3857712e-46
1.3857469e-46
1.3857367e-46
1.3857329e-46
1.3857321e-46
1.3857329e-46
1.3857358e-46
1.385744e-46
4.4728064e-46
4.4724672e-46
4.4722993e-46
4.4722212e-46
4.4721882e-46
4.472176e-46
4.4721726e-46
4.4721738e-46
4.4721801e-46
4.4721994e-46
4.4724672e-46
4.4721283e-46
4.4719604e-46
4.4718822e-46
4.4718493e-46
4.4718371e-46
4.4718339e-46
4.4718357e-46
4.4718434e-46
4.4718671e-46
4.4722993e-46
4.4719604e-46
4.4717925e-46
4.4717144e-46
4.4716815e-46
4.4716694e-46
4.4716664e-46
4.4716685e-46
4.4716771e-46
4.4717023e-46
4.4722212e-46
4.4718822e-46
4.4717144e-46
4.4716363e-46
4.4716034e-46
4.4715913e-46
4.4715885e-46
4.4715908e-46
4.4715999e-46
4.4716256e-46
4.4721882e-46
4.4718493e-46
4.4716815e-46
4.4716034e-46
4.4715706e-46
4.4715585e-46
4.4715557e-46
4.4715582e-46
4.4715674e-46
4.4715932e-46
4.472176e-46
4.4718371e-46
4.4716694e-46
4.4715913e-46
4.4715585e-46
4.4715465e-46
4.4715437e-46
4.4715463e-46
4.4715555e-46
4.4715815e-46
4.4721726e-46
4.4718339e-46
4.4716664e-46
4.4715885e-46
4.4715557e-46
4.4715437e-46
4.4715409e-46
4.4715435e-46
4.4715528e-46
4.4715787e-46
4.4721738e-46
4.4718357e-46
4.4716685e-46
4.4715908e-46
4.4715582e-46
4.4715463e-46
4.4715435e-46
4.4715461e-46
4.4715554e-46
4.4715813e-46
4.4721801e-46
4.4718434e-46
4.4716771e-46
4.4715999e-46
4.4715674e-46
4.4715555e-46
4.4715528e-46
4.4715554e-46
4.4715647e-46
4.4715906e-46
4.4721994e-46
4.4718671e-46
4.4717023e-46
4.4716256e-46
4.4715932e-46
4.4715815e-46
4.4715787e-46
4.4715813e-46
4.4715906e-46
4.4716166e-46
1.4289477e-45
1.4288425e-45
1.4287902e-45
1.4287658e-45
1.4287555e-45
1.4287517e-45
1.4287507e-45
1.4287511e-45
1.428753e-45
1.4287589e-45
1.4288425e-45
1.4287374e-45
1.4286851e-45
1.4286607e-45
1.4286505e-45
1.4286467e-45
1.4286457e-45
1.4286462e-45
1.4286486e-45
1.4286559e-45
1.4287902e-45
1.4286851e-45
1.4286329e-45
1.4286085e-45
1.4285982e-45
1.4285944e-45
1.4285935e-45
1.4285942e-45
1.4285968e-45
1.4286046e-45
1.4287658e-45
1.4286607e-45
1.4286085e-45
1.4285841e-45
1.4285739e-45
1.4285701e-45
1.4285692e-45
1.4285699e-45
1.4285727e-45
1.4285806e-45
1.4287555e-45
1.4286505e-45
1.4285982e-45
1.4285739e-45
1.4285636e-45
1.4285598e-45
1.428559e-45
1.4285597e-45
1.4285626e-45
1.4285705e-45
1.4287517e-45
1.4286467e-45
1.4285944e-45
1.4285701e-45
1.4285598e-45
1.4285561e-45
1.4285552e-45
1.428556e-45
1.4285589e-45
1.4285669e-45
1.4287507e-45
1.4286457e-45
1.4285935e-45
1.4285692e-45
1.428559e-45
1.4285552e-45
1.4285544e-45
1.4285552e-45
1.4285581e-45
1.428566e-45
1.4287511e-45
1.4286462e-45
1.4285942e-45
1.4285699e-45
1.4285597e-45
1.428556e-45
1.4285552e-45
1.428556e-45
1.4285589e-45
1.4285668e-45
1.428753e-45
1.4286486e-45
1.4285968e-45
1.4285727e-45
1.4285626e-45
1.4285589e-45
1.4285581e-45
1.4285589e-45
1.4285618e-45
1.4285697e-45
1.4287589e-45
1.4286559e-45
1.4286046e-45
1.4285806e-45
1.4285705e-45
1.4285669e-45
1.428566e-45
1.4285668e-45
1.4285697e-45
1.4285777e-45
4.6361351e-45
4.6358042e-45
4.6356389e-45
4.6355617e-45
4.6355292e-45
4.6355171e-45
4.6355138e-45
4.6355149e-45
4.635521e-45
4.635539e-45
4.6358042e-45
4.6354734e-45
4.6353082e-45
4.635231e-45
4.6351984e-45
4.6351864e-45
4.6351832e-45
4.635185e-45
4.6351925e-45
4.635215e-45
4.6356389e-45
4.6353082e-45
4.635143e-45
4.6350658e-45
4.6350333e-45
4.6350213e-45
4.6350183e-45
4.6350205e-45
4.6350289e-45
4.6350529e-45
4.6355617e-45
4.635231e-45
4.6350658e-45
4.6349887e-45
4.6349562e-45
4.6349442e-45
4.6349414e-45
4.6349438e-45
4.6349526e-45
4.6349771e-45
4.6355292e-45
4.6351984e-45
4.6350333e-45
4.6349562e-45
4.6349237e-45
4.6349118e-45
4.634909e-45
4.6349115e-45
4.6349205e-45
4.6349452e-45
4.6355171e-45
4.6351864e-45
4.6350213e-45
4.6349442e-45
4.6349118e-45
4.6348999e-45
4.6348972e-45
4.6348997e-45
4.6349088e-45
4.6349335e-45
4.6355138e-45
4.6351832e-45
4.6350183e-45
4.6349414e-45
4.634909e-45
4.6348972e-45
4.6348944e-45
4.634897e-45
4.6349061e-45
4.6349308e-45
4.6355149e-45
4.635185e-45
4.6350205e-45
4.6349438e-45
4.6349115e-45
4.6348997e-45
4.634897e-45
4.6348996e-45
4.6349087e-45
4.6349334e-45
4.635521e-45
4.6351925e-45
4.6350289e-45
4.6349526e-45
4.6349205e-45
4.6349088e-45
4.6349061e-45
4.6349087e-45
4.6349178e-45
4.6349425e-45
4.635539e-45
4.635215e-45
4.6350529e-45
4.6349771e-45
4.6349452e-45
4.6349335e-45
4.6349308e-45
4.6349334e-45
4.6349425e-45
4.6349673e-45
1.5315147e-44
1.5314087e-44
1.5313555e-44
1.5313307e-44
1.5313202e-44
1.5313163e-44
1.5313152e-44
1.5313156e-44
1.5313175e-44
1.5313231e-44
1.5314087e-44
1.5313027e-44
1.5312496e-44
1.5312247e-44
1.5312142e-44
1.5312103e-44
1.5312093e-44
1.5312099e-44
1.5312123e-44
1.5312194e-44
1.5313555e-44
1.5312496e-44
1.5311965e-44
1.5311716e-44
1.5311611e-44
1.5311573e-44
1.5311563e-44
1.531157e-44
1.5311597e-44
1.5311673e-44
1.5313307e-44
1.5312247e-44
1.5311716e-44
1.5311468e-44
1.5311363e-44
1.5311324e-44
1.5311315e-44
1.5311323e-44
1.5311351e-44
1.5311429e-44
1.5313202e-44
1.5312142e-44
1.5311611e-44
1.5311363e-44
1.5311258e-44
1.5311219e-44
1.5311211e-44
1.5311219e-44
1.5311248e-44
1.5311326e-44
1.5313163e-44
1.5312103e-44
1.5311573e-44
1.5311324e-44
1.5311219e-44
1.5311181e-44
1.5311173e-44
1.5311181e-44
1.531121e-44
1.5311288e-44
1.5313152e-44
1.5312093e-44
1.5311563e-44
1.5311315e-44
1.5311211e-44
1.5311173e-44
1.5311164e-44
1.5311172e-44
1.5311201e-44
1.5311279e-44
1.5313156e-44
1.5312099e-44
1.531157e-44
1.5311323e-44
1.5311219e-44
1.5311181e-44
1.5311172e-44
1.531118e-44
1.531121e-44
1.5311288e-44
1.5313175e-44
1.5312123e-44
1.5311597e-44
1.5311351e-44
1.5311248e-44
1.531121e-44
1.5311201e-44
1.531121e-44
1.5311239e-44
1.5311317e-44
1.5313231e-44
1.5312194e-44
1.5311673e-44
1.5311429e-44
1.5311326e-44
1.5311288e-44
1.5311279e-44
1.5311288e-44
1.5311317e-44
1.5311395e-44
5.1528373e-44
5.1524916e-44
5.1523177e-44
5.1522361e-44
5.1522016e-44
5.1521889e-44
5.1521854e-44
5.1521865e-44
5.1521928e-44
5.1522108e-44
5.1524916e-44
5.152146e-44
5.1519721e-44
5.1518906e-44
5.1518561e-44
5.1518434e-44
5.1518401e-44
5.1518419e-44
5.1518498e-44
5.1518725e-44
5.1523177e-44
5.1519721e-44
5.1517983e-44
5.1517167e-44
5.1516823e-44
5.1516696e-44
5.1516665e-44
5.1516688e-44
5.1516776e-44
5.151702e-44
5.1522361e-44
5.1518906e-44
5.1517167e-44
5.1516353e-44
5.1516009e-44
5.1515882e-44
5.1515852e-44
5.1515878e-44
5.1515971e-44
5.151622e-44
5.1522016e-44
5.1518561e-44
5.1516823e-44
5.1516009e-44
5.1515665e-44
5.1515538e-44
5.1515509e-44
5.1515536e-44
5.1515631e-44
5.1515882e-44
5.1521889e-44
5.1518434e-44
5.1516696e-44
5.1515882e-44
5.1515538e-44
5.1515413e-44
5.1515385e-44
5.1515412e-44
5.1515506e-44
5.1515759e-44
5.1521854e-44
5.1518401e-44
5.1516665e-44
5.1515852e-44
5.1515509e-44
5.1515385e-44
5.1515355e-44
5.1515383e-44
5.1515479e-44
5.151573e-44
5.1521865e-44
5.1518419e-44
5.1516688e-44
5.1515878e-44
5.1515536e-44
5.1515412e-44
5.1515383e-44
5.151541e-44
5.1515506e-44
5.1515758e-44
5.1521928e-44
5.1518498e-44
5.1516776e-44
5.1515971e-44
5.1515631e-44
5.1515506e-44
5.1515479e-44
5.1515506e-44
5.1515602e-44
5.1515854e-44
5.1522108e-44
5.1518725e-44
5.151702e-44
5.151622e-44
5.1515882e-44
5.1515759e-44
5.151573e-44
5.1515758e-44
5.1515854e-44
5.1516106e-44
1.7659081e-43
1.7657933e-43
1.7657354e-43
1.7657081e-43
1.7656966e-43
1.7656923e-43
1.7656912e-43
1.7656916e-43
1.7656936e-43
1.7656995e-43
1.7657933e-43
1.7656786e-43
1.7656206e-43
1.7655934e-43
1.7655819e-43
1.7655776e-43
1.7655765e-43
1.7655771e-43
1.7655798e-43
1.7655872e-43
1.7657354e-43
1.7656206e-43
1.7655627e-43
1.7655354e-43
1.7655239e-43
1.7655197e-43
1.7655187e-43
1.7655194e-43
1.7655224e-43
1.7655304e-43
1.7657081e-43
1.7655934e-43
1.7655354e-43
1.7655083e-43
1.7654968e-43
1.7654925e-43
1.7654915e-43
1.7654924e-43
1.7654955e-43
1.7655037e-43
1.7656966e-43
1.7655819e-43
1.7655239e-43
1.7654968e-43
1.7654853e-43
1.7654811e-43
1.7654801e-43
1.765481e-43
1.7654841e-43
1.7654924e-43
1.7656923e-43
1.7655776e-43
1.7655197e-43
1.7654925e-43
1.7654811e-43
1.7654768e-43
1.7654759e-43
1.7654768e-43
1.76548e-43
1.7654883e-43
1.7656912e-43
1.7655765e-43
1.7655187e-43
1.7654915e-43
1.7654801e-43
1.7654759e-43
1.765475e-43
1.7654759e-43
1.7654791e-43
1.7654873e-43
1.7656916e-43
1.7655771e-43
1.7655194e-43
1.7654924e-43
1.765481e-43
1.7654768e-43
1.7654759e-43
1.7654768e-43
1.76548e-43
1.7654883e-43
1.7656936e-43
1.7655798e-43
1.7655224e-43
1.7654955e-43
1.7654841e-43
1.76548e-43
1.7654791e-43
1.76548e-43
1.7654832e-43
1.7654914e-43
1.7656995e-43
1.7655872e-43
1.7655304e-43
1.7655037e-43
1.7654924e-43
1.7654883e-43
1.7654873e-43
1.7654883e-43
1.7654914e-43
1.7654997e-43
6.1646644e-43
6.1642764e-43
6.1640797e-43
6.1639871e-43
6.163948e-43
6.1639334e-43
6.1639294e-43
6.1639308e-43
6.1639378e-43
6.163957e-43
6.1642764e-43
6.1638883e-43
6.1636917e-43
6.1635992e-43
6.16356e-43
6.1635456e-43
6.1635419e-43
6.163544e-43
6.1635528e-43
6.1635776e-43
6.1640797e-43
6.1636917e-43
6.1634951e-43
6.1634026e-43
6.1633634e-43
6.1633491e-43
6.1633456e-43
6.1633482e-43
6.1633581e-43
6.1633849e-43
6.1639871e-43
6.1635992e-43
6.1634026e-43
6.1633102e-43
6.1632712e-43
6.1632567e-43
6.1632534e-43
6.1632564e-43
6.1632668e-43
6.1632942e-43
6.163948e-43
6.16356e-43
6.1633634e-43
6.1632712e-43
6.163232e-43
6.1632176e-43
6.1632144e-43
6.1632175e-43
6.1632282e-43
6.1632558e-43
6.1639334e-43
6.1635456e-43
6.1633491e-43
6.1632567e-43
6.1632176e-43
6.1632034e-43
6.1632002e-43
6.1632033e-43
6.163214e-43
6.1632418e-43
6.1639294e-43
6.1635419e-43
6.1633456e-43
6.1632534e-43
6.1632144e-43
6.1632002e-43
6.163197e-43
6.1632001e-43
6.1632109e-43
6.1632386e-43
6.1639308e-43
6.163544e-43
6.1633482e-43
6.1632564e-43
6.1632175e-43
6.1632033e-43
6.1632001e-43
6.1632033e-43
6.1632141e-43
6.1632417e-43
6.1639378e-43
6.1635528e-43
6.1633581e-43
6.1632668e-43
6.1632282e-43
6.163214e-43
6.1632109e-43
6.1632141e-43
6.1632249e-43
6.1632526e-43
6.163957e-43
6.1635776e-43
6.1633849e-43
6.1632942e-43
6.1632558e-43
6.1632418e-43
6.1632386e-43
6.1632417e-43
6.1632526e-43
6.1632803e-43
2.1922421e-42
2.1921085e-42
2.1920405e-42
2.1920085e-42
2.1919949e-42
2.1919899e-42
2.1919885e-42
2.191989e-42
2.1919914e-42
2.1919979e-42
2.1921085e-42
2.1919749e-42
2.191907e-42
2.191875e-42
2.1918614e-42
2.1918564e-42
2.1918551e-42
2.1918558e-42
2.1918589e-42
2.1918673e-42
2.1920405e-42
2.191907e-42
2.1918391e-42
2.191807e-42
2.1917935e-42
2.1917885e-42
2.1917873e-42
2.1917882e-42
2.1917916e-42
2.1918008e-42
2.1920085e-42
2.191875e-42
2.191807e-42
2.1917751e-42
2.1917615e-42
2.1917566e-42
2.1917554e-42
2.1917564e-42
2.19176e-42
2.1917694e-42
2.1919949e-42
2.1918614e-42
2.1917935e-42
2.1917615e-42
2.191748e-42
2.191743e-42
2.1917419e-42
2.191743e-42
2.1917467e-42
2.1917561e-42
2.1919899e-42
2.1918564e-42
2.1917885e-42
2.1917566e-42
2.191743e-42
2.1917381e-42
2.191737e-42
2.1917381e-42
2.1917418e-42
2.1917512e-42
2.1919885e-42
2.1918551e-42
2.1917873e-42
2.1917554e-42
2.1917419e-42
2.191737e-42
2.1917359e-42
2.191737e-42
2.1917407e-42
2.1917501e-42
2.191989e-42
2.1918558e-42
2.1917882e-42
2.1917564e-42
2.191743e-42
2.1917381e-42
2.191737e-42
2.1917381e-42
2.1917418e-42
2.1917512e-42
2.1919914e-42
2.1918589e-42
2.1917916e-42
2.19176e-42
2.1917467e-42
2.1917418e-42
2.1917407e-42
2.1917418e-42
2.1917455e-42
2.191755e-42
2.1919979e-42
2.1918673e-42
2.1918008e-42
2.1917694e-42
2.1917561e-42
2.1917512e-42
2.1917501e-42
2.1917512e-42
2.191755e-42
2.1917644e-42
7.9417941e-42
7.9413259e-42
7.9410869e-42
7.9409741e-42
7.9409263e-42
7.9409084e-42
7.9409036e-42
7.9409054e-42
7.9409137e-42
7.9409359e-42
7.9413259e-42
7.9408577e-42
7.9406188e-42
7.940506e-42
7.9404582e-42
7.9404405e-42
7.940436e-42
7.9404386e-42
7.9404492e-42
7.9404785e-42
7.9410869e-42
7.9406188e-42
7.9403799e-42
7.9402671e-42
7.9402193e-42
7.9402017e-42
7.9401975e-42
7.9402008e-42
7.9402128e-42
7.9402445e-42
7.9409741e-42
7.940506e-42
7.9402671e-42
7.9401544e-42
7.9401067e-42
7.9400892e-42
7.9400851e-42
7.9400888e-42
7.9401014e-42
7.940134e-42
7.9409263e-42
7.9404582e-42
7.9402193e-42
7.9401067e-42
7.9400589e-42
7.9400414e-42
7.9400375e-42
7.9400414e-42
7.9400544e-42
7.9400871e-42
7.9409084e-42
7.9404405e-42
7.9402017e-42
7.9400892e-42
7.9400414e-42
7.940024e-42
7.9400201e-42
7.940024e-42
7.9400371e-42
7.94007e-42
7.9409036e-42
7.940436e-42
7.9401975e-42
7.9400851e-42
7.9400375e-42
7.9400201e-42
7.9400163e-42
7.9400202e-42
7.9400333e-42
7.9400661e-42
7.9409054e-42
7.9404386e-42
7.9402008e-42
7.9400888e-42
7.9400414e-42
7.940024e-42
7.9400202e-42
7.9400241e-42
7.9400373e-42
7.94007e-42
7.9409137e-42
7.9404492e-42
7.9402128e-42
7.9401014e-42
7.9400544e-42
7.9400371e-42
7.9400333e-42
7.9400373e-42
7.9400504e-42
7.9400832e-42
7.9409359e-42
7.9404785e-42
7.9402445e-42
7.940134e-42
7.9400871e-42
7.94007e-42
7.9400661e-42
7.94007e-42
7.9400832e-42
7.9401161e-42
2.9309488e-41
2.9307817e-41
2.9306961e-41
2.9306557e-41
2.9306385e-41
2.9306321e-41
2.9306304e-41
2.930631e-41
2.930634e-41
2.9306417e-41
2.9307817e-41
2.9306146e-41
2.9305291e-41
2.9304886e-41
2.9304715e-41
2.9304651e-41
2.9304635e-41
2.9304644e-41
2.9304682e-41
2.9304786e-41
2.9306961e-41
2.9305291e-41
2.9304435e-41
2.930403e-41
2.9303859e-41
2.9303796e-41
2.9303781e-41
2.9303793e-41
2.9303836e-41
2.9303948e-41
2.9306557e-41
2.9304886e-41
2.930403e-41
2.9303626e-41
2.9303455e-41
2.9303392e-41
2.9303377e-41
2.9303391e-41
2.9303436e-41
2.9303551e-41
2.9306385e-41
2.9304715e-41
2.9303859e-41
2.9303455e-41
2.9303283e-41
2.930322e-41
2.9303207e-41
2.9303221e-41
2.9303267e-41
2.9303383e-41
2.9306321e-41
2.9304651e-41
2.9303796e-41
2.9303392e-41
2.930322e-41
2.9303158e-41
2.9303144e-41
2.9303158e-41
2.9303205e-41
2.9303322e-41
2.9306304e-41
2.9304635e-41
2.9303781e-41
2.9303377e-41
2.9303207e-41
2.9303144e-41
2.9303131e-41
2.9303145e-41
2.9303192e-41
2.9303308e-41
2.930631e-41
2.9304644e-41
2.9303793e-41
2.9303391e-41
2.9303221e-41
2.9303158e-41
2.9303145e-41
2.9303159e-41
2.9303206e-41
2.9303322e-41
2.930634e-41
2.9304682e-41
2.9303836e-41
2.9303436e-41
2.9303267e-41
2.9303205e-41
2.9303192e-41
2.9303206e-41
2.9303253e-41
2.930337e-41
2.9306417e-41
2.9304786e-41
2.9303948e-41
2.9303551e-41
2.9303383e-41
2.9303322e-41
2.9303308e-41
2.9303322e-41
2.930337e-41
2.9303486e-41
1.1019469e-40
1.1018862e-40
1.101855e-40
1.1018402e-40
1.1018339e-40
1.1018316e-40
1.101831e-40
1.1018312e-40
1.1018323e-40
1.101835e-40
1.1018862e-40
1.1018255e-40
1.1017943e-40
1.1017795e-40
1.1017732e-40
1.1017709e-40
1.1017703e-40
1.1017707e-40
1.101772e-40
1.1017758e-40
1.101855e-40
1.1017943e-40
1.1017631e-40
1.1017483e-40
1.1017421e-40
1.1017397e-40
1.1017392e-40
1.1017396e-40
1.1017412e-40
1.1017452e-40
1.1018402e-40
1.1017795e-40
1.1017483e-40
1.1017335e-40
1.1017273e-40
1.101725e-40
1.1017245e-40
1.1017249e-40
1.1017266e-40
1.1017308e-40
1.1018339e-40
1.1017732e-40
1.1017421e-40
1.1017273e-40
1.101721e-40
1.1017187e-40
1.1017182e-40
1.1017187e-40
1.1017204e-40
1.1017246e-40
1.1018316e-40
1.1017709e-40
1.1017397e-40
1.101725e-40
1.1017187e-40
1.1017164e-40
1.1017159e-40
1.1017164e-40
1.1017182e-40
1.1017224e-40
1.101831e-40
1.1017703e-40
1.1017392e-40
1.1017245e-40
1.1017182e-40
1.1017159e-40
1.1017154e-40
1.101716e-40
1.1017177e-40
1.1017219e-40
1.1018312e-40
1.1017707e-40
1.1017396e-40
1.1017249e-40
1.1017187e-40
1.1017164e-40
1.101716e-40
1.1017165e-40
1.1017182e-40
1.1017224e-40
1.1018323e-40
1.101772e-40
1.1017412e-40
1.1017266e-40
1.1017204e-40
1.1017182e-40
1.1017177e-40
1.1017182e-40
1.1017199e-40
1.1017241e-40
1.101835e-40
1.1017758e-40
1.1017452e-40
1.1017308e-40
1.1017246e-40
1.1017224e-40
1.1017219e-40
1.1017224e-40
1.1017241e-40
1.1017283e-40
4.2205977e-40
4.220373e-40
4.2202571e-40
4.2202022e-40
4.2201788e-40
4.2201701e-40
4.2201678e-40
4.2201687e-40
4.2201726e-40
4.2201827e-40
4.220373e-40
4.2201483e-40
4.2200325e-40
4.2199776e-40
4.2199542e-40
4.2199456e-40
4.2199434e-40
4.2199447e-40
4.2199498e-40
4.2199635e-40
4.2202571e-40
4.2200325e-40
4.2199167e-40
4.2198617e-40
4.2198385e-40
4.2198298e-40
4.2198278e-40
4.2198295e-40
4.2198353e-40
4.2198501e-40
4.2202022e-40
4.2199776e-40
4.2198617e-40
4.2198068e-40
4.2197835e-40
4.219775e-40
4.219773e-40
4.2197749e-40
4.2197811e-40
4.2197964e-40
4.2201788e-40
4.2199542e-40
4.2198385e-40
4.2197835e-40
4.2197602e-40
4.2197517e-40
4.2197498e-40
4.2197518e-40
4.2197581e-40
4.2197735e-40
4.2201701e-40
4.2199456e-40
4.2198298e-40
4.219775e-40
4.2197517e-40
4.2197432e-40
4.2197413e-40
4.2197433e-40
4.2197497e-40
4.2197651e-40
4.2201678e-40
4.2199434e-40
4.2198278e-40
4.219773e-40
4.2197498e-40
4.2197413e-40
4.2197395e-40
4.2197415e-40
4.2197479e-40
4.2197633e-40
4.2201687e-40
4.2199447e-40
4.2198295e-40
4.2197749e-40
4.2197518e-40
4.2197433e-40
4.2197415e-40
4.2197434e-40
4.2197498e-40
4.2197652e-40
4.2201726e-40
4.2199498e-40
4.2198353e-40
4.2197811e-40
4.2197581e-40
4.2197497e-40
4.2197479e-40
4.2197498e-40
4.2197563e-40
4.2197717e-40
4.2201827e-40
4.2199635e-40
4.2198501e-40
4.2197964e-40
4.2197735e-40
4.2197651e-40
4.2197633e-40
4.2197652e-40
4.2197717e-40
4.2197872e-40
1.6467987e-39
1.646714e-39
1.6466702e-39
1.6466494e-39
1.6466406e-39
1.6466372e-39
1.6466364e-39
1.6466367e-39
1.6466382e-39
1.6466419e-39
1.646714e-39
1.6466293e-39
1.6465856e-39
1.6465648e-39
1.6465559e-39
1.6465526e-39
1.6465518e-39
1.6465523e-39
1.6465543e-39
1.6465594e-39
1.6466702e-39
1.6465856e-39
1.6465418e-39
1.646521e-39
1.6465122e-39
1.6465089e-39
1.6465082e-39
1.6465088e-39
1.646511e-39
1.6465165e-39
1.6466494e-39
1.6465648e-39
1.646521e-39
1.6465002e-39
1.6464914e-39
1.6464881e-39
1.6464874e-39
1.6464881e-39
1.6464905e-39
1.6464962e-39
1.6466406e-39
1.6465559e-39
1.6465122e-39
1.6464914e-39
1.6464826e-39
1.6464793e-39
1.6464786e-39
1.6464794e-39
1.6464818e-39
1.6464875e-39
1.6466372e-39
1.6465526e-39
1.6465089e-39
1.6464881e-39
1.6464793e-39
1.6464761e-39
1.6464754e-39
1.6464761e-39
1.6464786e-39
1.6464844e-39
1.6466364e-39
1.6465518e-39
1.6465082e-39
1.6464874e-39
1.6464786e-39
1.6464754e-39
1.6464747e-39
1.6464755e-39
1.6464779e-39
1.6464837e-39
1.6466367e-39
1.6465523e-39
1.6465088e-39
1.6464881e-39
1.6464794e-39
1.6464761e-39
1.6464755e-39
1.6464762e-39
1.6464786e-39
1.6464844e-39
1.6466382e-39
1.6465543e-39
1.646511e-39
1.6464905e-39
1.6464818e-39
1.6464786e-39
1.6464779e-39
1.6464786e-39
1.6464811e-39
1.6464869e-39
1.6466419e-39
1.6465594e-39
1.6465165e-39
1.6464962e-39
1.6464875e-39
1.6464844e-39
1.6464837e-39
1.6464844e-39
1.6464869e-39
1.6464927e-39
6.5455615e-39
6.5452367e-39
6.5450682e-39
6.5449882e-39
6.544954e-39
6.5449412e-39
6.5449379e-39
6.5449392e-39
6.5449449e-39
6.5449589e-39
6.5452367e-39
6.5449121e-39
6.5447436e-39
6.5446635e-39
6.5446294e-39
6.5446168e-39
6.5446136e-39
6.5446156e-39
6.544623e-39
6.5446425e-39
6.5450682e-39
6.5447436e-39
6.5445752e-39
6.5444951e-39
6.5444611e-39
6.5444485e-39
6.5444456e-39
6.544448e-39
6.5444566e-39
6.5444778e-39
6.5449882e-39
6.5446635e-39
6.5444951e-39
6.544415e-39
6.5443809e-39
6.5443685e-39
6.5443657e-39
6.5443684e-39
6.5443775e-39
6.5443994e-39
6.544954e-39
6.5446294e-39
6.5444611e-39
6.5443809e-39
6.544347e-39
6.5443345e-39
6.5443317e-39
6.5443346e-39
6.544344e-39
6.544366e-39
6.5449412e-39
6.5446168e-39
6.5444485e-39
6.5443685e-39
6.5443345e-39
6.5443221e-39
6.5443194e-39
6.5443223e-39
6.5443318e-39
6.5443538e-39
6.5449379e-39
6.5446136e-39
6.5444456e-39
6.5443657e-39
6.5443317e-39
6.5443194e-39
6.5443167e-39
6.5443196e-39
6.5443291e-39
6.5443511e-39
6.5449392e-39
6.5446156e-39
6.544448e-39
6.5443684e-39
6.5443346e-39
6.5443223e-39
6.5443196e-39
6.5443226e-39
6.544332e-39
6.5443541e-39
6.5449449e-39
6.544623e-39
6.5444566e-39
6.5443775e-39
6.544344e-39
6.5443318e-39
6.5443291e-39
6.544332e-39
6.5443415e-39
6.5443636e-39
6.5449589e-39
6.5446425e-39
6.5444778e-39
6.5443994e-39
6.544366e-39
6.5443538e-39
6.5443511e-39
6.5443541e-39
6.5443636e-39
6.5443857e-39
2.6501697e-38
2.6500429e-38
2.6499769e-38
2.6499455e-38
2.6499321e-38
2.6499271e-38
2.6499258e-38
2.6499263e-38
2.6499285e-38
2.6499339e-38
2.6500429e-38
2.6499161e-38
2.6498501e-38
2.6498187e-38
2.6498053e-38
2.6498004e-38
2.6497991e-38
2.6497999e-38
2.6498028e-38
2.6498104e-38
2.6499769e-38
2.6498501e-38
2.6497842e-38
2.6497527e-38
2.6497394e-38
2.6497345e-38
2.6497333e-38
2.6497343e-38
2.6497377e-38
2.6497459e-38
2.6499455e-38
2.6498187e-38
2.6497527e-38
2.6497213e-38
2.649708e-38
2.6497031e-38
2.649702e-38
2.6497031e-38
2.6497067e-38
2.6497152e-38
2.6499321e-38
2.6498053e-38
2.6497394e-38
2.649708e-38
2.6496946e-38
2.6496898e-38
2.6496887e-38
2.6496898e-38
2.6496935e-38
2.6497021e-38
2.6499271e-38
2.6498004e-38
2.6497345e-38
2.6497031e-38
2.6496898e-38
2.6496849e-38
2.6496838e-38
2.649685e-38
2.6496887e-38
2.6496973e-38
2.6499258e-38
2.6497991e-38
2.6497333e-38
2.649702e-38
2.6496887e-38
2.6496838e-38
2.6496828e-38
2.6496839e-38
2.6496877e-38
2.6496962e-38
2.6499263e-38
2.6497999e-38
2.6497343e-38
2.6497031e-38
2.6496898e-38
2.649685e-38
2.6496839e-38
2.6496851e-38
2.6496888e-38
2.6496975e-38
2.6499285e-38
2.6498028e-38
2.6497377e-38
2.6497067e-38
2.6496935e-38
2.6496887e-38
2.6496877e-38
2.6496888e-38
2.6496926e-38
2.6497012e-38
2.6499339e-38
2.6498104e-38
2.6497459e-38
2.6497152e-38
2.6497021e-38
2.6496973e-38
2.6496962e-38
2.6496975e-38
2.6497012e-38
2.6497098e-38
1.0929366e-37
1.0928862e-37
1.0928599e-37
1.0928473e-37
1.092842e-37
1.09284e-37
1.0928395e-37
1.0928397e-37
1.0928406e-37
1.0928427e-37
1.0928862e-37
1.0928358e-37
1.0928095e-37
1.0927969e-37
1.0927916e-37
1.0927896e-37
1.0927891e-37
1.0927894e-37
1.0927906e-37
1.0927936e-37
1.0928599e-37
1.0928095e-37
1.0927832e-37
1.0927707e-37
1.0927653e-37
1.0927634e-37
1.0927629e-37
1.0927633e-37
1.0927646e-37
1.0927679e-37
1.0928473e-37
1.0927969e-37
1.0927707e-37
1.0927581e-37
1.0927528e-37
1.0927508e-37
1.0927504e-37
1.0927508e-37
1.0927523e-37
1.0927556e-37
1.092842e-37
1.0927916e-37
1.0927653e-37
1.0927528e-37
1.0927475e-37
1.0927455e-37
1.0927451e-37
1.0927455e-37
1.092747e-37
1.0927504e-37
1.09284e-37
1.0927896e-37
1.0927634e-37
1.0927508e-37
1.0927455e-37
1.0927435e-37
1.0927431e-37
1.0927436e-37
1.0927451e-37
1.0927485e-37
1.0928395e-37
1.0927891e-37
1.0927629e-37
1.0927504e-37
1.0927451e-37
1.0927431e-37
1.0927427e-37
1.0927432e-37
1.0927447e-37
1.0927481e-37
1.0928397e-37
1.0927894e-37
1.0927633e-37
1.0927508e-37
1.0927455e-37
1.0927436e-37
1.0927432e-37
1.0927437e-37
1.0927452e-37
1.0927486e-37
1.0928406e-37
1.0927906e-37
1.0927646e-37
1.0927523e-37
1.092747e-37
1.0927451e-37
1.0927447e-37
1.0927452e-37
1.0927466e-37
1.0927501e-37
1.0928427e-37
1.0927936e-37
1.0927679e-37
1.0927556e-37
1.0927504e-37
1.0927485e-37
1.0927481e-37
1.0927486e-37
1.0927501e-37
1.0927535e-37
4.590693e-37
4.590489e-37
4.5903823e-37
4.5903313e-37
4.5903095e-37
4.5903014e-37
4.5902993e-37
4.5903001e-37
4.5903037e-37
4.5903121e-37
4.590489e-37
4.5902851e-37
4.5901783e-37
4.5901273e-37
4.5901056e-37
4.5900976e-37
4.5900956e-37
4.5900969e-37
4.5901016e-37
4.5901137e-37
4.5903823e-37
4.5901783e-37
4.5900716e-37
4.5900206e-37
4.589999e-37
4.589991e-37
4.5899891e-37
4.5899907e-37
4.5899963e-37
4.5900095e-37
4.5903313e-37
4.5901273e-37
4.5900206e-37
4.5899697e-37
4.589948e-37
4.58994e-37
4.5899383e-37
4.5899401e-37
4.589946e-37
4.5899596e-37
4.5903095e-37
4.5901056e-37
4.589999e-37
4.589948e-37
4.5899264e-37
4.5899184e-37
4.5899167e-37
4.5899185e-37
4.5899246e-37
4.5899384e-37
4.5903014e-37
4.5900976e-37
4.589991e-37
4.58994e-37
4.5899184e-37
4.5899105e-37
4.5899088e-37
4.5899107e-37
4.5899168e-37
4.5899306e-37
4.5902993e-37
4.5900956e-37
4.5899891e-37
4.5899383e-37
4.5899167e-37
4.5899088e-37
4.5899071e-37
4.5899091e-37
4.5899152e-37
4.5899289e-37
4.5903001e-37
4.5900969e-37
4.5899907e-37
4.5899401e-37
4.5899185e-37
4.5899107e-37
4.5899091e-37
4.589911e-37
4.5899172e-37
4.589931e-37
4.5903037e-37
4.5901016e-37
4.5899963e-37
4.589946e-37
4.5899246e-37
4.5899168e-37
4.5899152e-37
4.5899172e-37
4.5899232e-37
4.5899371e-37
4.5903121e-37
4.5901137e-37
4.5900095e-37
4.5899596e-37
4.5899384e-37
4.5899306e-37
4.5899289e-37
4.589931e-37
4.5899371e-37
4.5899509e-37
1.9637401e-36
1.9636561e-36
1.963612e-36
1.9635909e-36
1.9635819e-36
1.9635786e-36
1.9635777e-36
1.963578e-36
1.9635795e-36
1.9635829e-36
1.9636561e-36
1.9635721e-36
1.963528e-36
1.963507e-36
1.963498e-36
1.9634947e-36
1.9634938e-36
1.9634944e-36
1.9634963e-36
1.9635013e-36
1.963612e-36
1.963528e-36
1.963484e-36
1.9634629e-36
1.9634539e-36
1.9634506e-36
1.9634498e-36
1.9634505e-36
1.9634528e-36
1.9634583e-36
1.9635909e-36
1.963507e-36
1.9634629e-36
1.9634418e-36
1.9634329e-36
1.9634296e-36
1.9634288e-36
1.9634296e-36
1.9634321e-36
1.9634377e-36
1.9635819e-36
1.963498e-36
1.9634539e-36
1.9634329e-36
1.9634239e-36
1.9634206e-36
1.9634199e-36
1.9634207e-36
1.9634232e-36
1.9634289e-36
1.9635786e-36
1.9634947e-36
1.9634506e-36
1.9634296e-36
1.9634206e-36
1.9634173e-36
1.9634166e-36
1.9634174e-36
1.96342e-36
1.9634257e-36
1.9635777e-36
1.9634938e-36
1.9634498e-36
1.9634288e-36
1.9634199e-36
1.9634166e-36
1.9634159e-36
1.9634168e-36
1.9634193e-36
1.963425e-36
1.963578e-36
1.9634944e-36
1.9634505e-36
1.9634296e-36
1.9634207e-36
1.9634174e-36
1.9634168e-36
1.9634176e-36
1.9634201e-36
1.9634258e-36
1.9635795e-36
1.9634963e-36
1.9634528e-36
1.9634321e-36
1.9634232e-36
1.96342e-36
1.9634193e-36
1.9634201e-36
1.9634227e-36
1.9634284e-36
1.9635829e-36
1.9635013e-36
1.9634583e-36
1.9634377e-36
1.9634289e-36
1.9634257e-36
1.963425e-36
1.9634258e-36
1.9634284e-36
1.9634341e-36
8.5539249e-36
8.5535729e-36
8.5533878e-36
8.5532992e-36
8.5532611e-36
8.5532472e-36
8.5532434e-36
8.5532449e-36
8.5532511e-36
8.5532652e-36
8.5535729e-36
8.5532212e-36
8.5530361e-36
8.5529474e-36
8.5529095e-36
8.5528956e-36
8.552892e-36
8.5528943e-36
8.5529027e-36
8.5529233e-36
8.5533878e-36
8.5530361e-36
8.5528508e-36
8.5527621e-36
8.5527244e-36
8.5527105e-36
8.5527073e-36
8.5527102e-36
8.55272e-36
8.5527427e-36
8.5532992e-36
8.5529474e-36
8.5527621e-36
8.5526735e-36
8.5526358e-36
8.552622e-36
8.5526189e-36
8.5526221e-36
8.5526326e-36
8.5526561e-36
8.5532611e-36
8.5529095e-36
8.5527244e-36
8.5526358e-36
8.5525981e-36
8.5525842e-36
8.5525813e-36
8.5525846e-36
8.5525953e-36
8.5526191e-36
8.5532472e-36
8.5528956e-36
8.5527105e-36
8.552622e-36
8.5525842e-36
8.5525704e-36
8.5525675e-36
8.552571e-36
8.5525818e-36
8.5526056e-36
8.5532434e-36
8.552892e-36
8.5527073e-36
8.5526189e-36
8.5525813e-36
8.5525675e-36
8.5525647e-36
8.5525682e-36
8.552579e-36
8.5526027e-36
8.5532449e-36
8.5528943e-36
8.5527102e-36
8.5526221e-36
8.5525846e-36
8.552571e-36
8.5525682e-36
8.5525716e-36
8.5525825e-36
8.5526063e-36
8.5532511e-36
8.5529027e-36
8.55272e-36
8.5526326e-36
8.5525953e-36
8.5525818e-36
8.552579e-36
8.5525825e-36
8.5525932e-36
8.552617e-36
8.5532652e-36
8.5529233e-36
8.5527427e-36
8.5526561e-36
8.5526191e-36
8.5526056e-36
8.5526027e-36
8.5526063e-36
8.552617e-36