/*--------------------------------*- C++ -*----------------------------------*\
| =========                 |                                                 |
| \\      /  F ield         | OpenFOAM: The Open Source CFD Toolbox           |
|  \\    /   O peration     | Version:  dev                                   |
|   \\  /    A nd           | Web:      www.OpenFOAM.org                      |
|    \\/     M anipulation  |                                                 |
\*---------------------------------------------------------------------------*/
FoamFile
{
    version     2.0;
    format      ascii;
    class       volScalarField;
    location    "26";
    object      A_0;
}
// * * * * * * * * * * * * * * * * * * * * * * * * * * * * * * * * * * * * * //

dimensions      [0 0 0 0 1 0 0];

internalField   nonuniform List<scalar> 
10000
(
3.1148144e-47
3.1145635e-47
3.1144418e-47
3.1143854e-47
3.1143616e-47
3.1143528e-47
3.1143504e-47
3.1143513e-47
3.1143559e-47
3.1143694e-47
3.1145635e-47
3.1143127e-47
3.114191e-47
3.1141346e-47
3.1141109e-47
3.1141021e-47
3.1140998e-47
3.1141011e-47
3.1141067e-47
3.1141233e-47
3.1144418e-47
3.114191e-47
3.1140694e-47
3.114013e-47
3.1139893e-47
3.1139806e-47
3.1139784e-47
3.11398e-47
3.1139862e-47
3.1140039e-47
3.1143854e-47
3.1141346e-47
3.114013e-47
3.1139566e-47
3.1139329e-47
3.1139243e-47
3.1139222e-47
3.1139239e-47
3.1139304e-47
3.1139484e-47
3.1143616e-47
3.1141109e-47
3.1139893e-47
3.1139329e-47
3.1139093e-47
3.1139006e-47
3.1138985e-47
3.1139003e-47
3.113907e-47
3.1139251e-47
3.1143528e-47
3.1141021e-47
3.1139806e-47
3.1139243e-47
3.1139006e-47
3.1138919e-47
3.1138899e-47
3.1138917e-47
3.1138984e-47
3.1139166e-47
3.1143504e-47
3.1140998e-47
3.1139784e-47
3.1139222e-47
3.1138985e-47
3.1138899e-47
3.1138879e-47
3.1138897e-47
3.1138965e-47
3.1139147e-47
3.1143513e-47
3.1141011e-47
3.11398e-47
3.1139239e-47
3.1139003e-47
3.1138917e-47
3.1138897e-47
3.1138916e-47
3.1138983e-47
3.1139165e-47
3.1143559e-47
3.1141067e-47
3.1139862e-47
3.1139304e-47
3.113907e-47
3.1138984e-47
3.1138965e-47
3.1138983e-47
3.1139051e-47
3.1139233e-47
3.1143694e-47
3.1141233e-47
3.1140039e-47
3.1139484e-47
3.1139251e-47
3.1139166e-47
3.1139147e-47
3.1139165e-47
3.1139233e-47
3.1139414e-47
1.3717356e-46
1.3716285e-46
1.3715758e-46
1.3715513e-46
1.3715409e-46
1.3715371e-46
1.3715361e-46
1.3715364e-46
1.3715384e-46
1.3715445e-46
1.3716285e-46
1.3715214e-46
1.3714687e-46
1.3714442e-46
1.3714339e-46
1.3714301e-46
1.3714291e-46
1.3714296e-46
1.371432e-46
1.3714395e-46
1.3715758e-46
1.3714687e-46
1.371416e-46
1.3713915e-46
1.3713812e-46
1.3713774e-46
1.3713764e-46
1.3713771e-46
1.3713798e-46
1.3713877e-46
1.3715513e-46
1.3714442e-46
1.3713915e-46
1.371367e-46
1.3713567e-46
1.3713529e-46
1.371352e-46
1.3713528e-46
1.3713556e-46
1.3713637e-46
1.3715409e-46
1.3714339e-46
1.3713812e-46
1.3713567e-46
1.3713464e-46
1.3713427e-46
1.3713418e-46
1.3713425e-46
1.3713454e-46
1.3713535e-46
1.3715371e-46
1.3714301e-46
1.3713774e-46
1.3713529e-46
1.3713427e-46
1.3713389e-46
1.371338e-46
1.3713388e-46
1.3713417e-46
1.3713498e-46
1.3715361e-46
1.3714291e-46
1.3713764e-46
1.371352e-46
1.3713418e-46
1.371338e-46
1.3713371e-46
1.3713379e-46
1.3713409e-46
1.371349e-46
1.3715364e-46
1.3714296e-46
1.3713771e-46
1.3713528e-46
1.3713425e-46
1.3713388e-46
1.3713379e-46
1.3713387e-46
1.3713417e-46
1.3713498e-46
1.3715384e-46
1.371432e-46
1.3713798e-46
1.3713556e-46
1.3713454e-46
1.3713417e-46
1.3713409e-46
1.3713417e-46
1.3713446e-46
1.3713527e-46
1.3715445e-46
1.3714395e-46
1.3713877e-46
1.3713637e-46
1.3713535e-46
1.3713498e-46
1.371349e-46
1.3713498e-46
1.3713527e-46
1.3713608e-46
4.4268638e-46
4.426528e-46
4.4263618e-46
4.4262844e-46
4.4262518e-46
4.4262397e-46
4.4262364e-46
4.4262376e-46
4.4262438e-46
4.4262629e-46
4.426528e-46
4.4261924e-46
4.4260262e-46
4.4259489e-46
4.4259163e-46
4.4259042e-46
4.4259011e-46
4.4259028e-46
4.4259105e-46
4.4259339e-46
4.4263618e-46
4.4260262e-46
4.42586e-46
4.4257827e-46
4.4257502e-46
4.4257382e-46
4.4257352e-46
4.4257373e-46
4.4257458e-46
4.4257708e-46
4.4262844e-46
4.4259489e-46
4.4257827e-46
4.4257054e-46
4.4256729e-46
4.4256609e-46
4.4256581e-46
4.4256604e-46
4.4256694e-46
4.4256948e-46
4.4262518e-46
4.4259163e-46
4.4257502e-46
4.4256729e-46
4.4256403e-46
4.4256284e-46
4.4256256e-46
4.4256281e-46
4.4256372e-46
4.4256628e-46
4.4262397e-46
4.4259042e-46
4.4257382e-46
4.4256609e-46
4.4256284e-46
4.4256165e-46
4.4256138e-46
4.4256163e-46
4.4256255e-46
4.4256512e-46
4.4262364e-46
4.4259011e-46
4.4257352e-46
4.4256581e-46
4.4256256e-46
4.4256138e-46
4.425611e-46
4.4256135e-46
4.4256228e-46
4.4256484e-46
4.4262376e-46
4.4259028e-46
4.4257373e-46
4.4256604e-46
4.4256281e-46
4.4256163e-46
4.4256135e-46
4.4256161e-46
4.4256253e-46
4.425651e-46
4.4262438e-46
4.4259105e-46
4.4257458e-46
4.4256694e-46
4.4256372e-46
4.4256255e-46
4.4256228e-46
4.4256253e-46
4.4256346e-46
4.4256602e-46
4.4262629e-46
4.4259339e-46
4.4257708e-46
4.4256948e-46
4.4256628e-46
4.4256512e-46
4.4256484e-46
4.425651e-46
4.4256602e-46
4.4256859e-46
1.4144386e-45
1.4143345e-45
1.4142827e-45
1.4142586e-45
1.4142484e-45
1.4142446e-45
1.4142436e-45
1.414244e-45
1.4142459e-45
1.4142517e-45
1.4143345e-45
1.4142304e-45
1.4141787e-45
1.4141545e-45
1.4141444e-45
1.4141406e-45
1.4141396e-45
1.4141402e-45
1.4141425e-45
1.4141497e-45
1.4142827e-45
1.4141787e-45
1.4141269e-45
1.4141028e-45
1.4140926e-45
1.4140889e-45
1.4140879e-45
1.4140886e-45
1.4140913e-45
1.4140989e-45
1.4142586e-45
1.4141545e-45
1.4141028e-45
1.4140787e-45
1.4140685e-45
1.4140648e-45
1.4140639e-45
1.4140646e-45
1.4140674e-45
1.4140752e-45
1.4142484e-45
1.4141444e-45
1.4140926e-45
1.4140685e-45
1.4140584e-45
1.4140546e-45
1.4140538e-45
1.4140545e-45
1.4140574e-45
1.4140652e-45
1.4142446e-45
1.4141406e-45
1.4140889e-45
1.4140648e-45
1.4140546e-45
1.4140509e-45
1.4140501e-45
1.4140509e-45
1.4140537e-45
1.4140616e-45
1.4142436e-45
1.4141396e-45
1.4140879e-45
1.4140639e-45
1.4140538e-45
1.4140501e-45
1.4140492e-45
1.41405e-45
1.4140529e-45
1.4140607e-45
1.414244e-45
1.4141402e-45
1.4140886e-45
1.4140646e-45
1.4140545e-45
1.4140509e-45
1.41405e-45
1.4140508e-45
1.4140537e-45
1.4140615e-45
1.4142459e-45
1.4141425e-45
1.4140913e-45
1.4140674e-45
1.4140574e-45
1.4140537e-45
1.4140529e-45
1.4140537e-45
1.4140565e-45
1.4140644e-45
1.4142517e-45
1.4141497e-45
1.4140989e-45
1.4140752e-45
1.4140652e-45
1.4140616e-45
1.4140607e-45
1.4140615e-45
1.4140644e-45
1.4140723e-45
4.5896213e-45
4.5892936e-45
4.58913e-45
4.5890535e-45
4.5890213e-45
4.5890093e-45
4.5890061e-45
4.5890072e-45
4.5890132e-45
4.589031e-45
4.5892936e-45
4.588966e-45
4.5888024e-45
4.588726e-45
4.5886938e-45
4.5886819e-45
4.5886788e-45
4.5886805e-45
4.5886879e-45
4.5887102e-45
4.58913e-45
4.5888024e-45
4.5886389e-45
4.5885625e-45
4.5885303e-45
4.5885184e-45
4.5885155e-45
4.5885176e-45
4.5885259e-45
4.5885497e-45
4.5890535e-45
4.588726e-45
4.5885625e-45
4.5884861e-45
4.588454e-45
4.5884421e-45
4.5884393e-45
4.5884417e-45
4.5884504e-45
4.5884747e-45
4.5890213e-45
4.5886938e-45
4.5885303e-45
4.588454e-45
4.5884218e-45
4.5884099e-45
4.5884072e-45
4.5884096e-45
4.5884186e-45
4.588443e-45
4.5890093e-45
4.5886819e-45
4.5885184e-45
4.5884421e-45
4.5884099e-45
4.5883982e-45
4.5883955e-45
4.588398e-45
4.588407e-45
4.5884315e-45
4.5890061e-45
4.5886788e-45
4.5885155e-45
4.5884393e-45
4.5884072e-45
4.5883955e-45
4.5883928e-45
4.5883953e-45
4.5884043e-45
4.5884288e-45
4.5890072e-45
4.5886805e-45
4.5885176e-45
4.5884417e-45
4.5884096e-45
4.588398e-45
4.5883953e-45
4.5883978e-45
4.5884069e-45
4.5884313e-45
4.5890132e-45
4.5886879e-45
4.5885259e-45
4.5884504e-45
4.5884186e-45
4.588407e-45
4.5884043e-45
4.5884069e-45
4.5884159e-45
4.5884404e-45
4.589031e-45
4.5887102e-45
4.5885497e-45
4.5884747e-45
4.588443e-45
4.5884315e-45
4.5884288e-45
4.5884313e-45
4.5884404e-45
4.5884649e-45
1.5163366e-44
1.5162316e-44
1.516179e-44
1.5161544e-44
1.516144e-44
1.5161401e-44
1.516139e-44
1.5161394e-44
1.5161413e-44
1.5161469e-44
1.5162316e-44
1.5161267e-44
1.516074e-44
1.5160494e-44
1.516039e-44
1.5160352e-44
1.5160342e-44
1.5160347e-44
1.5160371e-44
1.5160441e-44
1.516179e-44
1.516074e-44
1.5160214e-44
1.5159968e-44
1.5159864e-44
1.5159826e-44
1.5159817e-44
1.5159824e-44
1.515985e-44
1.5159925e-44
1.5161544e-44
1.5160494e-44
1.5159968e-44
1.5159722e-44
1.5159619e-44
1.515958e-44
1.5159571e-44
1.5159579e-44
1.5159607e-44
1.5159684e-44
1.516144e-44
1.516039e-44
1.5159864e-44
1.5159619e-44
1.5159515e-44
1.5159477e-44
1.5159468e-44
1.5159476e-44
1.5159505e-44
1.5159582e-44
1.5161401e-44
1.5160352e-44
1.5159826e-44
1.515958e-44
1.5159477e-44
1.5159439e-44
1.515943e-44
1.5159438e-44
1.5159467e-44
1.5159545e-44
1.516139e-44
1.5160342e-44
1.5159817e-44
1.5159571e-44
1.5159468e-44
1.515943e-44
1.5159421e-44
1.5159429e-44
1.5159459e-44
1.5159536e-44
1.5161394e-44
1.5160347e-44
1.5159824e-44
1.5159579e-44
1.5159476e-44
1.5159438e-44
1.5159429e-44
1.5159438e-44
1.5159467e-44
1.5159544e-44
1.5161413e-44
1.5160371e-44
1.515985e-44
1.5159607e-44
1.5159505e-44
1.5159467e-44
1.5159459e-44
1.5159467e-44
1.5159496e-44
1.5159573e-44
1.5161469e-44
1.5160441e-44
1.5159925e-44
1.5159684e-44
1.5159582e-44
1.5159545e-44
1.5159536e-44
1.5159544e-44
1.5159573e-44
1.5159651e-44
5.102408e-44
5.1020656e-44
5.1018933e-44
5.1018125e-44
5.1017783e-44
5.1017657e-44
5.1017622e-44
5.1017634e-44
5.1017696e-44
5.1017874e-44
5.1020656e-44
5.1017232e-44
5.101551e-44
5.1014702e-44
5.1014361e-44
5.1014235e-44
5.1014202e-44
5.1014221e-44
5.1014298e-44
5.1014524e-44
5.1018933e-44
5.101551e-44
5.1013788e-44
5.101298e-44
5.1012639e-44
5.1012514e-44
5.1012483e-44
5.1012505e-44
5.1012593e-44
5.1012835e-44
5.1018125e-44
5.1014702e-44
5.101298e-44
5.1012174e-44
5.1011833e-44
5.1011707e-44
5.1011678e-44
5.1011704e-44
5.1011795e-44
5.1012042e-44
5.1017783e-44
5.1014361e-44
5.1012639e-44
5.1011833e-44
5.1011492e-44
5.1011367e-44
5.1011338e-44
5.1011365e-44
5.1011459e-44
5.1011707e-44
5.1017657e-44
5.1014235e-44
5.1012514e-44
5.1011707e-44
5.1011367e-44
5.1011242e-44
5.1011215e-44
5.1011242e-44
5.1011335e-44
5.1011585e-44
5.1017622e-44
5.1014202e-44
5.1012483e-44
5.1011678e-44
5.1011338e-44
5.1011215e-44
5.1011186e-44
5.1011213e-44
5.1011308e-44
5.1011557e-44
5.1017634e-44
5.1014221e-44
5.1012505e-44
5.1011704e-44
5.1011365e-44
5.1011242e-44
5.1011213e-44
5.101124e-44
5.1011335e-44
5.1011584e-44
5.1017696e-44
5.1014298e-44
5.1012593e-44
5.1011795e-44
5.1011459e-44
5.1011335e-44
5.1011308e-44
5.1011335e-44
5.101143e-44
5.1011679e-44
5.1017874e-44
5.1014524e-44
5.1012835e-44
5.1012042e-44
5.1011707e-44
5.1011585e-44
5.1011557e-44
5.1011584e-44
5.1011679e-44
5.1011929e-44
1.7488467e-43
1.748733e-43
1.7486756e-43
1.7486486e-43
1.7486372e-43
1.7486329e-43
1.7486318e-43
1.7486322e-43
1.7486342e-43
1.74864e-43
1.748733e-43
1.7486193e-43
1.7485619e-43
1.7485349e-43
1.7485235e-43
1.7485193e-43
1.7485182e-43
1.7485188e-43
1.7485214e-43
1.7485288e-43
1.7486756e-43
1.7485619e-43
1.7485045e-43
1.7484775e-43
1.7484661e-43
1.7484619e-43
1.7484609e-43
1.7484617e-43
1.7484646e-43
1.7484725e-43
1.7486486e-43
1.7485349e-43
1.7484775e-43
1.7484506e-43
1.7484392e-43
1.748435e-43
1.748434e-43
1.7484349e-43
1.748438e-43
1.7484461e-43
1.7486372e-43
1.7485235e-43
1.7484661e-43
1.7484392e-43
1.7484278e-43
1.7484236e-43
1.7484227e-43
1.7484236e-43
1.7484267e-43
1.7484349e-43
1.7486329e-43
1.7485193e-43
1.7484619e-43
1.748435e-43
1.7484236e-43
1.7484195e-43
1.7484186e-43
1.7484195e-43
1.7484226e-43
1.7484308e-43
1.7486318e-43
1.7485182e-43
1.7484609e-43
1.748434e-43
1.7484227e-43
1.7484186e-43
1.7484176e-43
1.7484185e-43
1.7484217e-43
1.7484299e-43
1.7486322e-43
1.7485188e-43
1.7484617e-43
1.7484349e-43
1.7484236e-43
1.7484195e-43
1.7484185e-43
1.7484194e-43
1.7484226e-43
1.7484308e-43
1.7486342e-43
1.7485214e-43
1.7484646e-43
1.748438e-43
1.7484267e-43
1.7484226e-43
1.7484217e-43
1.7484226e-43
1.7484258e-43
1.7484339e-43
1.74864e-43
1.7485288e-43
1.7484725e-43
1.7484461e-43
1.7484349e-43
1.7484308e-43
1.7484299e-43
1.7484308e-43
1.7484339e-43
1.7484422e-43
6.1058841e-43
6.1054997e-43
6.1053048e-43
6.1052131e-43
6.1051743e-43
6.1051599e-43
6.1051559e-43
6.1051573e-43
6.1051642e-43
6.1051833e-43
6.1054997e-43
6.1051152e-43
6.1049204e-43
6.1048287e-43
6.1047899e-43
6.1047756e-43
6.104772e-43
6.1047741e-43
6.1047828e-43
6.1048074e-43
6.1053048e-43
6.1049204e-43
6.1047256e-43
6.104634e-43
6.1045952e-43
6.104581e-43
6.1045775e-43
6.1045801e-43
6.1045899e-43
6.1046165e-43
6.1052131e-43
6.1048287e-43
6.104634e-43
6.1045424e-43
6.1045038e-43
6.1044895e-43
6.1044861e-43
6.1044891e-43
6.1044994e-43
6.1045266e-43
6.1051743e-43
6.1047899e-43
6.1045952e-43
6.1045038e-43
6.104465e-43
6.1044508e-43
6.1044475e-43
6.1044506e-43
6.1044612e-43
6.1044886e-43
6.1051599e-43
6.1047756e-43
6.104581e-43
6.1044895e-43
6.1044508e-43
6.1044366e-43
6.1044335e-43
6.1044366e-43
6.1044472e-43
6.1044747e-43
6.1051559e-43
6.104772e-43
6.1045775e-43
6.1044861e-43
6.1044475e-43
6.1044335e-43
6.1044303e-43
6.1044334e-43
6.1044441e-43
6.1044715e-43
6.1051573e-43
6.1047741e-43
6.1045801e-43
6.1044891e-43
6.1044506e-43
6.1044366e-43
6.1044334e-43
6.1044365e-43
6.1044473e-43
6.1044746e-43
6.1051642e-43
6.1047828e-43
6.1045899e-43
6.1044994e-43
6.1044612e-43
6.1044472e-43
6.1044441e-43
6.1044473e-43
6.1044579e-43
6.1044854e-43
6.1051833e-43
6.1048074e-43
6.1046165e-43
6.1045266e-43
6.1044886e-43
6.1044747e-43
6.1044715e-43
6.1044746e-43
6.1044854e-43
6.1045128e-43
2.1716193e-42
2.1714869e-42
2.1714196e-42
2.1713879e-42
2.1713744e-42
2.1713694e-42
2.171368e-42
2.1713685e-42
2.1713709e-42
2.1713773e-42
2.1714869e-42
2.1713545e-42
2.1712872e-42
2.1712555e-42
2.1712421e-42
2.1712371e-42
2.1712359e-42
2.1712366e-42
2.1712396e-42
2.171248e-42
2.1714196e-42
2.1712872e-42
2.1712199e-42
2.1711882e-42
2.1711748e-42
2.1711699e-42
2.1711687e-42
2.1711696e-42
2.171173e-42
2.171182e-42
2.1713879e-42
2.1712555e-42
2.1711882e-42
2.1711565e-42
2.1711431e-42
2.1711382e-42
2.171137e-42
2.1711381e-42
2.1711416e-42
2.1711509e-42
2.1713744e-42
2.1712421e-42
2.1711748e-42
2.1711431e-42
2.1711297e-42
2.1711248e-42
2.1711237e-42
2.1711248e-42
2.1711284e-42
2.1711377e-42
2.1713694e-42
2.1712371e-42
2.1711699e-42
2.1711382e-42
2.1711248e-42
2.1711199e-42
2.1711188e-42
2.1711199e-42
2.1711236e-42
2.1711329e-42
2.171368e-42
2.1712359e-42
2.1711687e-42
2.171137e-42
2.1711237e-42
2.1711188e-42
2.1711177e-42
2.1711188e-42
2.1711225e-42
2.1711318e-42
2.1713685e-42
2.1712366e-42
2.1711696e-42
2.1711381e-42
2.1711248e-42
2.1711199e-42
2.1711188e-42
2.1711199e-42
2.1711236e-42
2.1711329e-42
2.1713709e-42
2.1712396e-42
2.171173e-42
2.1711416e-42
2.1711284e-42
2.1711236e-42
2.1711225e-42
2.1711236e-42
2.1711273e-42
2.1711366e-42
2.1713773e-42
2.171248e-42
2.171182e-42
2.1711509e-42
2.1711377e-42
2.1711329e-42
2.1711318e-42
2.1711329e-42
2.1711366e-42
2.171146e-42
7.8681105e-42
7.8676464e-42
7.8674096e-42
7.8672978e-42
7.8672504e-42
7.8672327e-42
7.867228e-42
7.8672298e-42
7.867238e-42
7.8672599e-42
7.8676464e-42
7.8671824e-42
7.8669457e-42
7.8668339e-42
7.8667865e-42
7.866769e-42
7.8667646e-42
7.8667671e-42
7.8667776e-42
7.8668067e-42
7.8674096e-42
7.8669457e-42
7.8667089e-42
7.8665972e-42
7.8665498e-42
7.8665324e-42
7.8665282e-42
7.8665315e-42
7.8665434e-42
7.8665748e-42
7.8672978e-42
7.8668339e-42
7.8665972e-42
7.8664855e-42
7.8664383e-42
7.8664209e-42
7.8664168e-42
7.8664205e-42
7.866433e-42
7.8664652e-42
7.8672504e-42
7.8667865e-42
7.8665498e-42
7.8664383e-42
7.8663909e-42
7.8663735e-42
7.8663697e-42
7.8663735e-42
7.8663864e-42
7.8664188e-42
7.8672327e-42
7.866769e-42
7.8665324e-42
7.8664209e-42
7.8663735e-42
7.8663563e-42
7.8663525e-42
7.8663563e-42
7.8663693e-42
7.8664018e-42
7.867228e-42
7.8667646e-42
7.8665282e-42
7.8664168e-42
7.8663697e-42
7.8663525e-42
7.8663487e-42
7.8663525e-42
7.8663655e-42
7.866398e-42
7.8672298e-42
7.8667671e-42
7.8665315e-42
7.8664205e-42
7.8663735e-42
7.8663563e-42
7.8663525e-42
7.8663564e-42
7.8663695e-42
7.8664019e-42
7.867238e-42
7.8667776e-42
7.8665434e-42
7.866433e-42
7.8663864e-42
7.8663693e-42
7.8663655e-42
7.8663695e-42
7.8663824e-42
7.866415e-42
7.8672599e-42
7.8668067e-42
7.8665748e-42
7.8664652e-42
7.8664188e-42
7.8664018e-42
7.866398e-42
7.8664019e-42
7.866415e-42
7.8664475e-42
2.9041382e-41
2.9039725e-41
2.9038877e-41
2.9038476e-41
2.9038306e-41
2.9038242e-41
2.9038225e-41
2.9038232e-41
2.9038261e-41
2.9038338e-41
2.9039725e-41
2.9038069e-41
2.9037221e-41
2.903682e-41
2.903665e-41
2.9036587e-41
2.9036571e-41
2.903658e-41
2.9036618e-41
2.9036721e-41
2.9038877e-41
2.9037221e-41
2.9036373e-41
2.9035972e-41
2.9035802e-41
2.903574e-41
2.9035725e-41
2.9035737e-41
2.9035779e-41
2.903589e-41
2.9038476e-41
2.903682e-41
2.9035972e-41
2.9035572e-41
2.9035402e-41
2.903534e-41
2.9035325e-41
2.9035338e-41
2.9035383e-41
2.9035498e-41
2.9038306e-41
2.903665e-41
2.9035802e-41
2.9035402e-41
2.9035232e-41
2.903517e-41
2.9035156e-41
2.903517e-41
2.9035216e-41
2.9035331e-41
2.9038242e-41
2.9036587e-41
2.903574e-41
2.903534e-41
2.903517e-41
2.9035108e-41
2.9035094e-41
2.9035108e-41
2.9035155e-41
2.903527e-41
2.9038225e-41
2.9036571e-41
2.9035725e-41
2.9035325e-41
2.9035156e-41
2.9035094e-41
2.9035081e-41
2.9035095e-41
2.9035141e-41
2.9035256e-41
2.9038232e-41
2.903658e-41
2.9035737e-41
2.9035338e-41
2.903517e-41
2.9035108e-41
2.9035095e-41
2.9035109e-41
2.9035155e-41
2.903527e-41
2.9038261e-41
2.9036618e-41
2.9035779e-41
2.9035383e-41
2.9035216e-41
2.9035155e-41
2.9035141e-41
2.9035155e-41
2.9035202e-41
2.9035317e-41
2.9038338e-41
2.9036721e-41
2.903589e-41
2.9035498e-41
2.9035331e-41
2.903527e-41
2.9035256e-41
2.903527e-41
2.9035317e-41
2.9035433e-41
1.0920122e-40
1.091952e-40
1.0919211e-40
1.0919065e-40
1.0919002e-40
1.0918979e-40
1.0918973e-40
1.0918975e-40
1.0918986e-40
1.0919013e-40
1.091952e-40
1.0918918e-40
1.0918609e-40
1.0918463e-40
1.09184e-40
1.0918377e-40
1.0918372e-40
1.0918375e-40
1.0918389e-40
1.0918426e-40
1.0919211e-40
1.0918609e-40
1.09183e-40
1.0918153e-40
1.0918091e-40
1.0918068e-40
1.0918063e-40
1.0918067e-40
1.0918083e-40
1.0918123e-40
1.0919065e-40
1.0918463e-40
1.0918153e-40
1.0918007e-40
1.0917945e-40
1.0917922e-40
1.0917917e-40
1.0917922e-40
1.0917938e-40
1.091798e-40
1.0919002e-40
1.09184e-40
1.0918091e-40
1.0917945e-40
1.0917883e-40
1.091786e-40
1.0917855e-40
1.091786e-40
1.0917877e-40
1.0917919e-40
1.0918979e-40
1.0918377e-40
1.0918068e-40
1.0917922e-40
1.091786e-40
1.0917838e-40
1.0917833e-40
1.0917838e-40
1.0917855e-40
1.0917896e-40
1.0918973e-40
1.0918372e-40
1.0918063e-40
1.0917917e-40
1.0917855e-40
1.0917833e-40
1.0917828e-40
1.0917833e-40
1.091785e-40
1.0917891e-40
1.0918975e-40
1.0918375e-40
1.0918067e-40
1.0917922e-40
1.091786e-40
1.0917838e-40
1.0917833e-40
1.0917838e-40
1.0917855e-40
1.0917896e-40
1.0918986e-40
1.0918389e-40
1.0918083e-40
1.0917938e-40
1.0917877e-40
1.0917855e-40
1.091785e-40
1.0917855e-40
1.0917872e-40
1.0917914e-40
1.0919013e-40
1.0918426e-40
1.0918123e-40
1.091798e-40
1.0917919e-40
1.0917896e-40
1.0917891e-40
1.0917896e-40
1.0917914e-40
1.0917955e-40
4.1831085e-40
4.1828856e-40
4.1827708e-40
4.1827164e-40
4.1826932e-40
4.1826845e-40
4.1826822e-40
4.1826831e-40
4.182687e-40
4.182697e-40
4.1828856e-40
4.1826629e-40
4.1825481e-40
4.1824936e-40
4.1824705e-40
4.1824619e-40
4.1824598e-40
4.182461e-40
4.1824661e-40
4.1824797e-40
4.1827708e-40
4.1825481e-40
4.1824332e-40
4.1823788e-40
4.1823557e-40
4.1823471e-40
4.1823452e-40
4.1823468e-40
4.1823526e-40
4.1823673e-40
4.1827164e-40
4.1824936e-40
4.1823788e-40
4.1823244e-40
4.1823013e-40
4.1822928e-40
4.1822908e-40
4.1822927e-40
4.1822988e-40
4.182314e-40
4.1826932e-40
4.1824705e-40
4.1823557e-40
4.1823013e-40
4.1822781e-40
4.1822697e-40
4.1822678e-40
4.1822698e-40
4.1822761e-40
4.1822913e-40
4.1826845e-40
4.1824619e-40
4.1823471e-40
4.1822928e-40
4.1822697e-40
4.1822613e-40
4.1822594e-40
4.1822614e-40
4.1822677e-40
4.182283e-40
4.1826822e-40
4.1824598e-40
4.1823452e-40
4.1822908e-40
4.1822678e-40
4.1822594e-40
4.1822576e-40
4.1822596e-40
4.182266e-40
4.1822812e-40
4.1826831e-40
4.182461e-40
4.1823468e-40
4.1822927e-40
4.1822698e-40
4.1822614e-40
4.1822596e-40
4.1822615e-40
4.1822679e-40
4.1822831e-40
4.182687e-40
4.1824661e-40
4.1823526e-40
4.1822988e-40
4.1822761e-40
4.1822677e-40
4.182266e-40
4.1822679e-40
4.1822742e-40
4.1822896e-40
4.182697e-40
4.1824797e-40
4.1823673e-40
4.182314e-40
4.1822913e-40
4.182283e-40
4.1822812e-40
4.1822831e-40
4.1822896e-40
4.1823049e-40
1.6323924e-39
1.6323084e-39
1.632265e-39
1.6322444e-39
1.6322356e-39
1.6322324e-39
1.6322315e-39
1.6322318e-39
1.6322333e-39
1.632237e-39
1.6323084e-39
1.6322245e-39
1.6321811e-39
1.6321605e-39
1.6321517e-39
1.6321485e-39
1.6321477e-39
1.6321482e-39
1.6321501e-39
1.6321552e-39
1.632265e-39
1.6321811e-39
1.6321377e-39
1.6321171e-39
1.6321084e-39
1.6321051e-39
1.6321044e-39
1.632105e-39
1.6321072e-39
1.6321127e-39
1.6322444e-39
1.6321605e-39
1.6321171e-39
1.6320965e-39
1.6320877e-39
1.6320845e-39
1.6320838e-39
1.6320845e-39
1.6320868e-39
1.6320925e-39
1.6322356e-39
1.6321517e-39
1.6321084e-39
1.6320877e-39
1.632079e-39
1.6320758e-39
1.6320751e-39
1.6320758e-39
1.6320782e-39
1.6320839e-39
1.6322324e-39
1.6321485e-39
1.6321051e-39
1.6320845e-39
1.6320758e-39
1.6320726e-39
1.6320719e-39
1.6320726e-39
1.6320751e-39
1.6320808e-39
1.6322315e-39
1.6321477e-39
1.6321044e-39
1.6320838e-39
1.6320751e-39
1.6320719e-39
1.6320712e-39
1.632072e-39
1.6320744e-39
1.6320801e-39
1.6322318e-39
1.6321482e-39
1.632105e-39
1.6320845e-39
1.6320758e-39
1.6320726e-39
1.632072e-39
1.6320727e-39
1.6320751e-39
1.6320808e-39
1.6322333e-39
1.6321501e-39
1.6321072e-39
1.6320868e-39
1.6320782e-39
1.6320751e-39
1.6320744e-39
1.6320751e-39
1.6320775e-39
1.6320833e-39
1.632237e-39
1.6321552e-39
1.6321127e-39
1.6320925e-39
1.6320839e-39
1.6320808e-39
1.6320801e-39
1.6320808e-39
1.6320833e-39
1.632089e-39
6.4891888e-39
6.4888667e-39
6.4886996e-39
6.4886203e-39
6.4885864e-39
6.4885738e-39
6.4885704e-39
6.4885717e-39
6.4885774e-39
6.4885913e-39
6.4888667e-39
6.4885448e-39
6.4883777e-39
6.4882983e-39
6.4882645e-39
6.488252e-39
6.4882489e-39
6.4882508e-39
6.4882582e-39
6.4882775e-39
6.4886996e-39
6.4883777e-39
6.4882107e-39
6.4881313e-39
6.4880976e-39
6.4880851e-39
6.4880822e-39
6.4880846e-39
6.4880932e-39
6.4881142e-39
6.4886203e-39
6.4882983e-39
6.4881313e-39
6.4880519e-39
6.4880181e-39
6.4880058e-39
6.488003e-39
6.4880057e-39
6.4880147e-39
6.4880364e-39
6.4885864e-39
6.4882645e-39
6.4880976e-39
6.4880181e-39
6.4879844e-39
6.4879721e-39
6.4879693e-39
6.4879722e-39
6.4879815e-39
6.4880033e-39
6.4885738e-39
6.488252e-39
6.4880851e-39
6.4880058e-39
6.4879721e-39
6.4879598e-39
6.4879571e-39
6.4879599e-39
6.4879694e-39
6.4879913e-39
6.4885704e-39
6.4882489e-39
6.4880822e-39
6.488003e-39
6.4879693e-39
6.4879571e-39
6.4879544e-39
6.4879573e-39
6.4879668e-39
6.4879886e-39
6.4885717e-39
6.4882508e-39
6.4880846e-39
6.4880057e-39
6.4879722e-39
6.4879599e-39
6.4879573e-39
6.4879603e-39
6.4879696e-39
6.4879916e-39
6.4885774e-39
6.4882582e-39
6.4880932e-39
6.4880147e-39
6.4879815e-39
6.4879694e-39
6.4879668e-39
6.4879696e-39
6.487979e-39
6.4880009e-39
6.4885913e-39
6.4882775e-39
6.4881142e-39
6.4880364e-39
6.4880033e-39
6.4879913e-39
6.4879886e-39
6.4879916e-39
6.4880009e-39
6.4880228e-39
2.6277084e-38
2.6275826e-38
2.6275172e-38
2.627486e-38
2.6274727e-38
2.6274678e-38
2.6274665e-38
2.627467e-38
2.6274692e-38
2.6274745e-38
2.6275826e-38
2.6274569e-38
2.6273914e-38
2.6273603e-38
2.627347e-38
2.6273421e-38
2.6273409e-38
2.6273417e-38
2.6273446e-38
2.6273521e-38
2.6275172e-38
2.6273914e-38
2.627326e-38
2.6272949e-38
2.6272816e-38
2.6272767e-38
2.6272756e-38
2.6272765e-38
2.6272799e-38
2.6272881e-38
2.627486e-38
2.6273603e-38
2.6272949e-38
2.6272637e-38
2.6272505e-38
2.6272456e-38
2.6272445e-38
2.6272456e-38
2.6272492e-38
2.6272576e-38
2.6274727e-38
2.627347e-38
2.6272816e-38
2.6272505e-38
2.6272373e-38
2.6272324e-38
2.6272313e-38
2.6272324e-38
2.6272361e-38
2.6272446e-38
2.6274678e-38
2.6273421e-38
2.6272767e-38
2.6272456e-38
2.6272324e-38
2.6272276e-38
2.6272265e-38
2.6272277e-38
2.6272314e-38
2.6272399e-38
2.6274665e-38
2.6273409e-38
2.6272756e-38
2.6272445e-38
2.6272313e-38
2.6272265e-38
2.6272255e-38
2.6272266e-38
2.6272304e-38
2.6272388e-38
2.627467e-38
2.6273417e-38
2.6272765e-38
2.6272456e-38
2.6272324e-38
2.6272277e-38
2.6272266e-38
2.6272278e-38
2.6272315e-38
2.6272401e-38
2.6274692e-38
2.6273446e-38
2.6272799e-38
2.6272492e-38
2.6272361e-38
2.6272314e-38
2.6272304e-38
2.6272315e-38
2.6272352e-38
2.6272437e-38
2.6274745e-38
2.6273521e-38
2.6272881e-38
2.6272576e-38
2.6272446e-38
2.6272399e-38
2.6272388e-38
2.6272401e-38
2.6272437e-38
2.6272523e-38
1.0838245e-37
1.0837745e-37
1.0837484e-37
1.083736e-37
1.0837307e-37
1.0837287e-37
1.0837282e-37
1.0837284e-37
1.0837293e-37
1.0837314e-37
1.0837745e-37
1.0837245e-37
1.0836984e-37
1.083686e-37
1.0836807e-37
1.0836787e-37
1.0836782e-37
1.0836786e-37
1.0836797e-37
1.0836827e-37
1.0837484e-37
1.0836984e-37
1.0836724e-37
1.0836599e-37
1.0836546e-37
1.0836527e-37
1.0836522e-37
1.0836526e-37
1.083654e-37
1.0836572e-37
1.083736e-37
1.083686e-37
1.0836599e-37
1.0836475e-37
1.0836422e-37
1.0836402e-37
1.0836398e-37
1.0836402e-37
1.0836417e-37
1.083645e-37
1.0837307e-37
1.0836807e-37
1.0836546e-37
1.0836422e-37
1.0836369e-37
1.083635e-37
1.0836345e-37
1.083635e-37
1.0836365e-37
1.0836398e-37
1.0837287e-37
1.0836787e-37
1.0836527e-37
1.0836402e-37
1.083635e-37
1.083633e-37
1.0836326e-37
1.0836331e-37
1.0836346e-37
1.083638e-37
1.0837282e-37
1.0836782e-37
1.0836522e-37
1.0836398e-37
1.0836345e-37
1.0836326e-37
1.0836322e-37
1.0836327e-37
1.0836342e-37
1.0836375e-37
1.0837284e-37
1.0836786e-37
1.0836526e-37
1.0836402e-37
1.083635e-37
1.0836331e-37
1.0836327e-37
1.0836331e-37
1.0836346e-37
1.083638e-37
1.0837293e-37
1.0836797e-37
1.083654e-37
1.0836417e-37
1.0836365e-37
1.0836346e-37
1.0836342e-37
1.0836346e-37
1.0836361e-37
1.0836395e-37
1.0837314e-37
1.0836827e-37
1.0836572e-37
1.083645e-37
1.0836398e-37
1.083638e-37
1.0836375e-37
1.083638e-37
1.0836395e-37
1.0836429e-37
4.5530592e-37
4.5528568e-37
4.5527509e-37
4.5527003e-37
4.5526787e-37
4.5526707e-37
4.5526686e-37
4.5526694e-37
4.552673e-37
4.5526813e-37
4.5528568e-37
4.5526545e-37
4.5525486e-37
4.552498e-37
4.5524765e-37
4.5524685e-37
4.5524665e-37
4.5524678e-37
4.5524725e-37
4.5524845e-37
4.5527509e-37
4.5525486e-37
4.5524427e-37
4.5523921e-37
4.5523707e-37
4.5523627e-37
4.5523609e-37
4.5523624e-37
4.552368e-37
4.5523811e-37
4.5527003e-37
4.552498e-37
4.5523921e-37
4.5523416e-37
4.5523201e-37
4.5523122e-37
4.5523104e-37
4.5523123e-37
4.5523181e-37
4.5523317e-37
4.5526787e-37
4.5524765e-37
4.5523707e-37
4.5523201e-37
4.5522986e-37
4.5522907e-37
4.552289e-37
4.5522909e-37
4.5522969e-37
4.5523105e-37
4.5526707e-37
4.5524685e-37
4.5523627e-37
4.5523122e-37
4.5522907e-37
4.5522829e-37
4.5522812e-37
4.5522831e-37
4.5522892e-37
4.5523029e-37
4.5526686e-37
4.5524665e-37
4.5523609e-37
4.5523104e-37
4.552289e-37
4.5522812e-37
4.5522795e-37
4.5522815e-37
4.5522876e-37
4.5523012e-37
4.5526694e-37
4.5524678e-37
4.5523624e-37
4.5523123e-37
4.5522909e-37
4.5522831e-37
4.5522815e-37
4.5522834e-37
4.5522895e-37
4.5523032e-37
4.552673e-37
4.5524725e-37
4.552368e-37
4.5523181e-37
4.5522969e-37
4.5522892e-37
4.5522876e-37
4.5522895e-37
4.5522955e-37
4.5523092e-37
4.5526813e-37
4.5524845e-37
4.5523811e-37
4.5523317e-37
4.5523105e-37
4.5523029e-37
4.5523012e-37
4.5523032e-37
4.5523092e-37
4.552323e-37
1.9479177e-36
1.9478344e-36
1.9477906e-36
1.9477697e-36
1.9477608e-36
1.9477575e-36
1.9477566e-36
1.9477569e-36
1.9477584e-36
1.9477618e-36
1.9478344e-36
1.9477511e-36
1.9477073e-36
1.9476864e-36
1.9476775e-36
1.9476742e-36
1.9476734e-36
1.9476739e-36
1.9476759e-36
1.9476808e-36
1.9477906e-36
1.9477073e-36
1.9476636e-36
1.9476427e-36
1.9476338e-36
1.9476305e-36
1.9476298e-36
1.9476304e-36
1.9476327e-36
1.9476381e-36
1.9477697e-36
1.9476864e-36
1.9476427e-36
1.9476218e-36
1.9476129e-36
1.9476096e-36
1.9476089e-36
1.9476097e-36
1.9476121e-36
1.9476177e-36
1.9477608e-36
1.9476775e-36
1.9476338e-36
1.9476129e-36
1.947604e-36
1.9476007e-36
1.9476e-36
1.9476008e-36
1.9476033e-36
1.9476089e-36
1.9477575e-36
1.9476742e-36
1.9476305e-36
1.9476096e-36
1.9476007e-36
1.9475975e-36
1.9475968e-36
1.9475976e-36
1.9476001e-36
1.9476058e-36
1.9477566e-36
1.9476734e-36
1.9476298e-36
1.9476089e-36
1.9476e-36
1.9475968e-36
1.9475961e-36
1.9475969e-36
1.9475995e-36
1.9476051e-36
1.9477569e-36
1.9476739e-36
1.9476304e-36
1.9476097e-36
1.9476008e-36
1.9475976e-36
1.9475969e-36
1.9475977e-36
1.9476003e-36
1.9476059e-36
1.9477584e-36
1.9476759e-36
1.9476327e-36
1.9476121e-36
1.9476033e-36
1.9476001e-36
1.9475995e-36
1.9476003e-36
1.9476028e-36
1.9476084e-36
1.9477618e-36
1.9476808e-36
1.9476381e-36
1.9476177e-36
1.9476089e-36
1.9476058e-36
1.9476051e-36
1.9476059e-36
1.9476084e-36
1.9476141e-36
8.4862166e-36
8.4858672e-36
8.4856835e-36
8.4855955e-36
8.4855578e-36
8.485544e-36
8.4855402e-36
8.4855417e-36
8.4855479e-36
8.4855618e-36
8.4858672e-36
8.4855182e-36
8.4853344e-36
8.4852464e-36
8.4852088e-36
8.485195e-36
8.4851915e-36
8.4851938e-36
8.4852021e-36
8.4852225e-36
8.4856835e-36
8.4853344e-36
8.4851506e-36
8.4850626e-36
8.4850252e-36
8.4850114e-36
8.4850082e-36
8.4850111e-36
8.4850208e-36
8.4850433e-36
8.4855955e-36
8.4852464e-36
8.4850626e-36
8.4849747e-36
8.4849373e-36
8.4849235e-36
8.4849205e-36
8.4849237e-36
8.4849341e-36
8.4849574e-36
8.4855578e-36
8.4852088e-36
8.4850252e-36
8.4849373e-36
8.4848998e-36
8.4848861e-36
8.4848832e-36
8.4848865e-36
8.4848971e-36
8.4849207e-36
8.485544e-36
8.485195e-36
8.4850114e-36
8.4849235e-36
8.4848861e-36
8.4848723e-36
8.4848695e-36
8.4848729e-36
8.4848836e-36
8.4849073e-36
8.4855402e-36
8.4851915e-36
8.4850082e-36
8.4849205e-36
8.4848832e-36
8.4848695e-36
8.4848667e-36
8.4848702e-36
8.4848809e-36
8.4849045e-36
8.4855417e-36
8.4851938e-36
8.4850111e-36
8.4849237e-36
8.4848865e-36
8.4848729e-36
8.4848702e-36
8.4848736e-36
8.4848843e-36
8.484908e-36
8.4855479e-36
8.4852021e-36
8.4850208e-36
8.4849341e-36
8.4848971e-36
8.4848836e-36
8.4848809e-36
8.4848843e-36
8.484895e-36
8.4849187e-36
8.4855618e-36
8.4852225e-36
8.4850433e-36
8.4849574e-36
8.4849207e-36
8.4849073e-36
8.4849045e-36