/*--------------------------------*- C++ -*----------------------------------*\
| =========                 |                                                 |
| \\      /  F ield         | OpenFOAM: The Open Source CFD Toolbox           |
|  \\    /   O peration     | Version:  dev                                   |
|   \\  /    A nd           | Web:      www.OpenFOAM.org                      |
|    \\/     M anipulation  |                                                 |
\*---------------------------------------------------------------------------*/
FoamFile
{
    version     2.0;
    format      ascii;
    class       volScalarField;
    location    "9";
    object      A;
}
// * * * * * * * * * * * * * * * * * * * * * * * * * * * * * * * * * * * * * //

dimensions      [0 0 0 0 1 0 0];

internalField   nonuniform List<scalar> 
10000
(
9.1654327e-75
9.1614365e-75
9.1602096e-75
9.1599097e-75
9.1598502e-75
9.1598405e-75
9.1598394e-75
9.159841e-75
9.1598489e-75
9.1598846e-75
9.1614365e-75
9.1574436e-75
9.1562176e-75
9.1559179e-75
9.1558585e-75
9.1558488e-75
9.155848e-75
9.155851e-75
9.1558657e-75
9.155929e-75
9.1602096e-75
9.1562176e-75
9.1549919e-75
9.1546922e-75
9.1546329e-75
9.1546232e-75
9.1546225e-75
9.1546263e-75
9.1546438e-75
9.1547138e-75
9.1599097e-75
9.1559179e-75
9.1546922e-75
9.1543926e-75
9.1543333e-75
9.1543236e-75
9.154323e-75
9.154327e-75
9.1543452e-75
9.1544167e-75
9.1598502e-75
9.1558585e-75
9.1546329e-75
9.1543333e-75
9.1542739e-75
9.1542642e-75
9.1542637e-75
9.1542677e-75
9.1542861e-75
9.1543578e-75
9.1598405e-75
9.1558488e-75
9.1546232e-75
9.1543236e-75
9.1542642e-75
9.1542545e-75
9.154254e-75
9.154258e-75
9.1542765e-75
9.1543482e-75
9.1598394e-75
9.155848e-75
9.1546225e-75
9.154323e-75
9.1542637e-75
9.154254e-75
9.1542534e-75
9.1542575e-75
9.1542759e-75
9.1543476e-75
9.159841e-75
9.155851e-75
9.1546263e-75
9.154327e-75
9.1542677e-75
9.154258e-75
9.1542575e-75
9.1542615e-75
9.15428e-75
9.1543517e-75
9.1598489e-75
9.1558657e-75
9.1546438e-75
9.1543452e-75
9.1542861e-75
9.1542765e-75
9.1542759e-75
9.15428e-75
9.1542984e-75
9.1543701e-75
9.1598846e-75
9.155929e-75
9.1547138e-75
9.1544167e-75
9.1543578e-75
9.1543482e-75
9.1543476e-75
9.1543517e-75
9.1543701e-75
9.1544419e-75
7.0420364e-74
7.0390464e-74
7.0381236e-74
7.0378979e-74
7.0378532e-74
7.0378459e-74
7.0378451e-74
7.0378463e-74
7.0378522e-74
7.03788e-74
7.0390464e-74
7.0360588e-74
7.0351367e-74
7.0349112e-74
7.0348665e-74
7.0348592e-74
7.0348586e-74
7.0348609e-74
7.034872e-74
7.0349207e-74
7.0381236e-74
7.0351367e-74
7.0342148e-74
7.0339893e-74
7.0339447e-74
7.0339374e-74
7.0339369e-74
7.0339398e-74
7.033953e-74
7.0340069e-74
7.0378979e-74
7.0349112e-74
7.0339893e-74
7.0337639e-74
7.0337192e-74
7.0337119e-74
7.0337115e-74
7.0337145e-74
7.0337283e-74
7.0337833e-74
7.0378532e-74
7.0348665e-74
7.0339447e-74
7.0337192e-74
7.0336745e-74
7.0336672e-74
7.0336668e-74
7.0336699e-74
7.0336838e-74
7.033739e-74
7.0378459e-74
7.0348592e-74
7.0339374e-74
7.0337119e-74
7.0336672e-74
7.03366e-74
7.0336595e-74
7.0336626e-74
7.0336766e-74
7.0337317e-74
7.0378451e-74
7.0348586e-74
7.0339369e-74
7.0337115e-74
7.0336668e-74
7.0336595e-74
7.0336591e-74
7.0336622e-74
7.0336761e-74
7.0337313e-74
7.0378463e-74
7.0348609e-74
7.0339398e-74
7.0337145e-74
7.0336699e-74
7.0336626e-74
7.0336622e-74
7.0336653e-74
7.0336792e-74
7.0337344e-74
7.0378522e-74
7.034872e-74
7.033953e-74
7.0337283e-74
7.0336838e-74
7.0336766e-74
7.0336761e-74
7.0336792e-74
7.0336932e-74
7.0337484e-74
7.03788e-74
7.0349207e-74
7.0340069e-74
7.0337833e-74
7.033739e-74
7.0337317e-74
7.0337313e-74
7.0337344e-74
7.0337484e-74
7.0338036e-74
4.7333164e-73
4.7313615e-73
4.7307571e-73
4.7306091e-73
4.7305798e-73
4.730575e-73
4.7305745e-73
4.7305753e-73
4.7305792e-73
4.730597e-73
4.7313615e-73
4.7294081e-73
4.7288041e-73
4.7286563e-73
4.728627e-73
4.7286222e-73
4.7286218e-73
4.7286233e-73
4.7286307e-73
4.7286625e-73
4.7307571e-73
4.7288041e-73
4.7282003e-73
4.7280525e-73
4.7280232e-73
4.7280184e-73
4.7280181e-73
4.72802e-73
4.7280288e-73
4.728064e-73
4.7306091e-73
4.7286563e-73
4.7280525e-73
4.7279047e-73
4.7278754e-73
4.7278707e-73
4.7278704e-73
4.7278724e-73
4.7278815e-73
4.7279175e-73
4.7305798e-73
4.728627e-73
4.7280232e-73
4.7278754e-73
4.7278461e-73
4.7278414e-73
4.7278411e-73
4.7278431e-73
4.7278523e-73
4.7278884e-73
4.730575e-73
4.7286222e-73
4.7280184e-73
4.7278707e-73
4.7278414e-73
4.7278366e-73
4.7278363e-73
4.7278384e-73
4.7278476e-73
4.7278837e-73
4.7305745e-73
4.7286218e-73
4.7280181e-73
4.7278704e-73
4.7278411e-73
4.7278363e-73
4.7278361e-73
4.7278381e-73
4.7278473e-73
4.7278834e-73
4.7305753e-73
4.7286233e-73
4.72802e-73
4.7278724e-73
4.7278431e-73
4.7278384e-73
4.7278381e-73
4.7278401e-73
4.7278493e-73
4.7278855e-73
4.7305792e-73
4.7286307e-73
4.7280288e-73
4.7278815e-73
4.7278523e-73
4.7278476e-73
4.7278473e-73
4.7278493e-73
4.7278585e-73
4.7278947e-73
4.730597e-73
4.7286625e-73
4.728064e-73
4.7279175e-73
4.7278884e-73
4.7278837e-73
4.7278834e-73
4.7278855e-73
4.7278947e-73
4.7279308e-73
3.2512134e-72
3.249908e-72
3.2495037e-72
3.2494047e-72
3.2493851e-72
3.2493818e-72
3.2493815e-72
3.249382e-72
3.2493846e-72
3.2493963e-72
3.249908e-72
3.2486036e-72
3.2481996e-72
3.2481006e-72
3.248081e-72
3.2480778e-72
3.2480776e-72
3.2480786e-72
3.2480835e-72
3.2481046e-72
3.2495037e-72
3.2481996e-72
3.2477957e-72
3.2476967e-72
3.2476771e-72
3.2476739e-72
3.2476737e-72
3.247675e-72
3.2476809e-72
3.2477043e-72
3.2494047e-72
3.2481006e-72
3.2476967e-72
3.2475978e-72
3.2475782e-72
3.247575e-72
3.2475749e-72
3.2475762e-72
3.2475824e-72
3.2476063e-72
3.2493851e-72
3.248081e-72
3.2476771e-72
3.2475782e-72
3.2475586e-72
3.2475554e-72
3.2475553e-72
3.2475566e-72
3.2475628e-72
3.2475868e-72
3.2493818e-72
3.2480778e-72
3.2476739e-72
3.247575e-72
3.2475554e-72
3.2475522e-72
3.2475521e-72
3.2475534e-72
3.2475596e-72
3.2475837e-72
3.2493815e-72
3.2480776e-72
3.2476737e-72
3.2475749e-72
3.2475553e-72
3.2475521e-72
3.2475519e-72
3.2475533e-72
3.2475595e-72
3.2475835e-72
3.249382e-72
3.2480786e-72
3.247675e-72
3.2475762e-72
3.2475566e-72
3.2475534e-72
3.2475533e-72
3.2475546e-72
3.2475608e-72
3.2475849e-72
3.2493846e-72
3.2480835e-72
3.2476809e-72
3.2475824e-72
3.2475628e-72
3.2475596e-72
3.2475595e-72
3.2475608e-72
3.247567e-72
3.2475911e-72
3.2493963e-72
3.2481046e-72
3.2477043e-72
3.2476063e-72
3.2475868e-72
3.2475837e-72
3.2475835e-72
3.2475849e-72
3.2475911e-72
3.2476151e-72
2.2895574e-71
2.288664e-71
2.2883869e-71
2.288319e-71
2.2883056e-71
2.2883033e-71
2.2883031e-71
2.2883035e-71
2.2883053e-71
2.288313e-71
2.288664e-71
2.2877714e-71
2.2874944e-71
2.2874266e-71
2.2874131e-71
2.2874109e-71
2.2874108e-71
2.2874115e-71
2.2874149e-71
2.2874292e-71
2.2883869e-71
2.2874944e-71
2.2872176e-71
2.2871498e-71
2.2871363e-71
2.2871341e-71
2.287134e-71
2.2871349e-71
2.2871389e-71
2.2871549e-71
2.288319e-71
2.2874266e-71
2.2871498e-71
2.2870819e-71
2.2870685e-71
2.2870663e-71
2.2870662e-71
2.2870671e-71
2.2870714e-71
2.2870877e-71
2.2883056e-71
2.2874131e-71
2.2871363e-71
2.2870685e-71
2.287055e-71
2.2870528e-71
2.2870527e-71
2.2870537e-71
2.287058e-71
2.2870743e-71
2.2883033e-71
2.2874109e-71
2.2871341e-71
2.2870663e-71
2.2870528e-71
2.2870507e-71
2.2870505e-71
2.2870515e-71
2.2870558e-71
2.2870722e-71
2.2883031e-71
2.2874108e-71
2.287134e-71
2.2870662e-71
2.2870527e-71
2.2870505e-71
2.2870504e-71
2.2870514e-71
2.2870557e-71
2.2870721e-71
2.2883035e-71
2.2874115e-71
2.2871349e-71
2.2870671e-71
2.2870537e-71
2.2870515e-71
2.2870514e-71
2.2870523e-71
2.2870566e-71
2.287073e-71
2.2883053e-71
2.2874149e-71
2.2871389e-71
2.2870714e-71
2.287058e-71
2.2870558e-71
2.2870557e-71
2.2870566e-71
2.2870609e-71
2.2870773e-71
2.288313e-71
2.2874292e-71
2.2871549e-71
2.2870877e-71
2.2870743e-71
2.2870722e-71
2.2870721e-71
2.287073e-71
2.2870773e-71
2.2870937e-71
1.6531357e-70
1.6525092e-70
1.6523146e-70
1.6522668e-70
1.6522574e-70
1.6522558e-70
1.6522557e-70
1.6522559e-70
1.6522572e-70
1.6522625e-70
1.6525092e-70
1.6518832e-70
1.6516886e-70
1.651641e-70
1.6516315e-70
1.65163e-70
1.6516298e-70
1.6516303e-70
1.6516327e-70
1.6516428e-70
1.6523146e-70
1.6516886e-70
1.6514942e-70
1.6514465e-70
1.6514371e-70
1.6514355e-70
1.6514354e-70
1.6514361e-70
1.6514389e-70
1.6514501e-70
1.6522668e-70
1.651641e-70
1.6514465e-70
1.6513988e-70
1.6513894e-70
1.6513878e-70
1.6513878e-70
1.6513884e-70
1.6513914e-70
1.6514029e-70
1.6522574e-70
1.6516315e-70
1.6514371e-70
1.6513894e-70
1.6513799e-70
1.6513784e-70
1.6513783e-70
1.651379e-70
1.651382e-70
1.6513935e-70
1.6522558e-70
1.65163e-70
1.6514355e-70
1.6513878e-70
1.6513784e-70
1.6513769e-70
1.6513768e-70
1.6513775e-70
1.6513805e-70
1.651392e-70
1.6522557e-70
1.6516298e-70
1.6514354e-70
1.6513878e-70
1.6513783e-70
1.6513768e-70
1.6513767e-70
1.6513774e-70
1.6513804e-70
1.6513919e-70
1.6522559e-70
1.6516303e-70
1.6514361e-70
1.6513884e-70
1.651379e-70
1.6513775e-70
1.6513774e-70
1.651378e-70
1.6513811e-70
1.6513926e-70
1.6522572e-70
1.6516327e-70
1.6514389e-70
1.6513914e-70
1.651382e-70
1.6513805e-70
1.6513804e-70
1.6513811e-70
1.6513841e-70
1.6513956e-70
1.6522625e-70
1.6516428e-70
1.6514501e-70
1.6514029e-70
1.6513935e-70
1.651392e-70
1.6513919e-70
1.6513926e-70
1.6513956e-70
1.6514071e-70
1.2237902e-69
1.22334e-69
1.2231999e-69
1.2231655e-69
1.2231587e-69
1.2231576e-69
1.2231574e-69
1.2231576e-69
1.2231585e-69
1.2231623e-69
1.22334e-69
1.22289e-69
1.22275e-69
1.2227157e-69
1.2227088e-69
1.2227077e-69
1.2227076e-69
1.222708e-69
1.2227097e-69
1.2227169e-69
1.2231999e-69
1.22275e-69
1.22261e-69
1.2225757e-69
1.2225689e-69
1.2225678e-69
1.2225677e-69
1.2225682e-69
1.2225702e-69
1.2225783e-69
1.2231655e-69
1.2227157e-69
1.2225757e-69
1.2225414e-69
1.2225345e-69
1.2225334e-69
1.2225334e-69
1.2225339e-69
1.222536e-69
1.2225442e-69
1.2231587e-69
1.2227088e-69
1.2225689e-69
1.2225345e-69
1.2225277e-69
1.2225266e-69
1.2225266e-69
1.2225271e-69
1.2225293e-69
1.2225375e-69
1.2231576e-69
1.2227077e-69
1.2225678e-69
1.2225334e-69
1.2225266e-69
1.2225255e-69
1.2225255e-69
1.222526e-69
1.2225282e-69
1.2225364e-69
1.2231574e-69
1.2227076e-69
1.2225677e-69
1.2225334e-69
1.2225266e-69
1.2225255e-69
1.2225254e-69
1.2225259e-69
1.2225281e-69
1.2225363e-69
1.2231576e-69
1.222708e-69
1.2225682e-69
1.2225339e-69
1.2225271e-69
1.222526e-69
1.2225259e-69
1.2225264e-69
1.2225286e-69
1.2225368e-69
1.2231585e-69
1.2227097e-69
1.2225702e-69
1.222536e-69
1.2225293e-69
1.2225282e-69
1.2225281e-69
1.2225286e-69
1.2225308e-69
1.222539e-69
1.2231623e-69
1.2227169e-69
1.2225783e-69
1.2225442e-69
1.2225375e-69
1.2225364e-69
1.2225363e-69
1.2225368e-69
1.222539e-69
1.2225473e-69
9.2882093e-69
9.2848929e-69
9.2838596e-69
9.283606e-69
9.2835557e-69
9.2835474e-69
9.2835466e-69
9.283548e-69
9.2835546e-69
9.2835817e-69
9.2848929e-69
9.281579e-69
9.2805464e-69
9.2802929e-69
9.2802426e-69
9.2802344e-69
9.2802338e-69
9.2802365e-69
9.2802495e-69
9.2803022e-69
9.2838596e-69
9.2805464e-69
9.2795139e-69
9.2792605e-69
9.2792103e-69
9.2792021e-69
9.2792016e-69
9.279205e-69
9.2792205e-69
9.2792796e-69
9.283606e-69
9.2802929e-69
9.2792605e-69
9.2790072e-69
9.2789569e-69
9.2789487e-69
9.2789483e-69
9.2789519e-69
9.2789682e-69
9.2790286e-69
9.2835557e-69
9.2802426e-69
9.2792103e-69
9.2789569e-69
9.2789066e-69
9.2788985e-69
9.278898e-69
9.2789017e-69
9.2789181e-69
9.2789787e-69
9.2835474e-69
9.2802344e-69
9.2792021e-69
9.2789487e-69
9.2788985e-69
9.2788903e-69
9.2788899e-69
9.2788936e-69
9.2789099e-69
9.2789706e-69
9.2835466e-69
9.2802338e-69
9.2792016e-69
9.2789483e-69
9.278898e-69
9.2788899e-69
9.2788894e-69
9.2788931e-69
9.2789095e-69
9.2789702e-69
9.283548e-69
9.2802365e-69
9.279205e-69
9.2789519e-69
9.2789017e-69
9.2788936e-69
9.2788931e-69
9.2788968e-69
9.2789132e-69
9.2789739e-69
9.2835546e-69
9.2802495e-69
9.2792205e-69
9.2789682e-69
9.2789181e-69
9.2789099e-69
9.2789095e-69
9.2789132e-69
9.2789296e-69
9.2789903e-69
9.2835817e-69
9.2803022e-69
9.2792796e-69
9.2790286e-69
9.2789787e-69
9.2789706e-69
9.2789702e-69
9.2789739e-69
9.2789903e-69
9.279051e-69
7.2270905e-68
7.2245877e-68
7.2238068e-68
7.223615e-68
7.223577e-68
7.2235707e-68
7.2235701e-68
7.2235711e-68
7.2235761e-68
7.2235962e-68
7.2245877e-68
7.2220868e-68
7.2213063e-68
7.2211147e-68
7.2210767e-68
7.2210704e-68
7.22107e-68
7.2210721e-68
7.2210819e-68
7.2211217e-68
7.2238068e-68
7.2213063e-68
7.220526e-68
7.2203344e-68
7.2202964e-68
7.2202902e-68
7.2202899e-68
7.2202925e-68
7.2203043e-68
7.2203489e-68
7.223615e-68
7.2211147e-68
7.2203344e-68
7.2201429e-68
7.2201049e-68
7.2200987e-68
7.2200983e-68
7.2201011e-68
7.2201135e-68
7.2201591e-68
7.223577e-68
7.2210767e-68
7.2202964e-68
7.2201049e-68
7.2200668e-68
7.2200606e-68
7.2200603e-68
7.2200632e-68
7.2200756e-68
7.2201214e-68
7.2235707e-68
7.2210704e-68
7.2202902e-68
7.2200987e-68
7.2200606e-68
7.2200545e-68
7.2200541e-68
7.220057e-68
7.2200695e-68
7.2201153e-68
7.2235701e-68
7.22107e-68
7.2202899e-68
7.2200983e-68
7.2200603e-68
7.2200541e-68
7.2200538e-68
7.2200567e-68
7.2200692e-68
7.220115e-68
7.2235711e-68
7.2210721e-68
7.2202925e-68
7.2201011e-68
7.2200632e-68
7.220057e-68
7.2200567e-68
7.2200595e-68
7.220072e-68
7.2201178e-68
7.2235761e-68
7.2210819e-68
7.2203043e-68
7.2201135e-68
7.2200756e-68
7.2200695e-68
7.2200692e-68
7.220072e-68
7.2200845e-68
7.2201303e-68
7.2235962e-68
7.2211217e-68
7.2203489e-68
7.2201591e-68
7.2201214e-68
7.2201153e-68
7.220115e-68
7.2201178e-68
7.2201303e-68
7.2201762e-68
5.7646939e-67
5.7627586e-67
5.7621539e-67
5.7620054e-67
5.7619759e-67
5.761971e-67
5.7619705e-67
5.7619714e-67
5.7619753e-67
5.7619905e-67
5.7627586e-67
5.7608248e-67
5.7602204e-67
5.760072e-67
5.7600425e-67
5.7600377e-67
5.7600373e-67
5.760039e-67
5.7600467e-67
5.7600774e-67
5.7621539e-67
5.7602204e-67
5.7596162e-67
5.7594678e-67
5.7594383e-67
5.7594335e-67
5.7594333e-67
5.7594353e-67
5.7594446e-67
5.7594791e-67
5.7620054e-67
5.760072e-67
5.7594678e-67
5.7593194e-67
5.7592899e-67
5.7592851e-67
5.7592849e-67
5.7592871e-67
5.7592968e-67
5.7593321e-67
5.7619759e-67
5.7600425e-67
5.7594383e-67
5.7592899e-67
5.7592605e-67
5.7592557e-67
5.7592554e-67
5.7592577e-67
5.7592674e-67
5.7593029e-67
5.761971e-67
5.7600377e-67
5.7594335e-67
5.7592851e-67
5.7592557e-67
5.7592509e-67
5.7592506e-67
5.7592529e-67
5.7592626e-67
5.7592981e-67
5.7619705e-67
5.7600373e-67
5.7594333e-67
5.7592849e-67
5.7592554e-67
5.7592506e-67
5.7592504e-67
5.7592526e-67
5.7592624e-67
5.7592979e-67
5.7619714e-67
5.760039e-67
5.7594353e-67
5.7592871e-67
5.7592577e-67
5.7592529e-67
5.7592526e-67
5.7592549e-67
5.7592646e-67
5.7593001e-67
5.7619753e-67
5.7600467e-67
5.7594446e-67
5.7592968e-67
5.7592674e-67
5.7592626e-67
5.7592624e-67
5.7592646e-67
5.7592744e-67
5.7593099e-67
5.7619905e-67
5.7600774e-67
5.7594791e-67
5.7593321e-67
5.7593029e-67
5.7592981e-67
5.7592979e-67
5.7593001e-67
5.7593099e-67
5.7593454e-67
4.7134586e-66
4.7119254e-66
4.7114457e-66
4.7113278e-66
4.7113044e-66
4.7113006e-66
4.7113002e-66
4.7113009e-66
4.7113039e-66
4.7113158e-66
4.7119254e-66
4.7103934e-66
4.709914e-66
4.7097962e-66
4.7097728e-66
4.7097689e-66
4.7097687e-66
4.70977e-66
4.7097761e-66
4.7098005e-66
4.7114457e-66
4.709914e-66
4.7094347e-66
4.7093169e-66
4.7092935e-66
4.7092897e-66
4.7092895e-66
4.7092911e-66
4.7092985e-66
4.709326e-66
4.7113278e-66
4.7097962e-66
4.7093169e-66
4.7091991e-66
4.7091757e-66
4.7091719e-66
4.7091717e-66
4.7091735e-66
4.7091812e-66
4.7092093e-66
4.7113044e-66
4.7097728e-66
4.7092935e-66
4.7091757e-66
4.7091523e-66
4.7091485e-66
4.7091483e-66
4.7091501e-66
4.7091579e-66
4.7091861e-66
4.7113006e-66
4.7097689e-66
4.7092897e-66
4.7091719e-66
4.7091485e-66
4.7091447e-66
4.7091445e-66
4.7091463e-66
4.7091541e-66
4.7091823e-66
4.7113002e-66
4.7097687e-66
4.7092895e-66
4.7091717e-66
4.7091483e-66
4.7091445e-66
4.7091443e-66
4.7091461e-66
4.709154e-66
4.7091822e-66
4.7113009e-66
4.70977e-66
4.7092911e-66
4.7091735e-66
4.7091501e-66
4.7091463e-66
4.7091461e-66
4.7091479e-66
4.7091558e-66
4.709184e-66
4.7113039e-66
4.7097761e-66
4.7092985e-66
4.7091812e-66
4.7091579e-66
4.7091541e-66
4.709154e-66
4.7091558e-66
4.7091636e-66
4.7091918e-66
4.7113158e-66
4.7098005e-66
4.709326e-66
4.7092093e-66
4.7091861e-66
4.7091823e-66
4.7091822e-66
4.709184e-66
4.7091918e-66
4.70922e-66
3.9501879e-65
3.9489437e-65
3.9485539e-65
3.948458e-65
3.948439e-65
3.9484358e-65
3.9484355e-65
3.9484361e-65
3.9484386e-65
3.9484481e-65
3.9489437e-65
3.9477003e-65
3.9473108e-65
3.947215e-65
3.9471959e-65
3.9471928e-65
3.9471926e-65
3.9471937e-65
3.9471987e-65
3.9472185e-65
3.9485539e-65
3.9473108e-65
3.9469212e-65
3.9468255e-65
3.9468065e-65
3.9468034e-65
3.9468032e-65
3.9468046e-65
3.9468107e-65
3.946833e-65
3.948458e-65
3.947215e-65
3.9468255e-65
3.9467297e-65
3.9467107e-65
3.9467076e-65
3.9467074e-65
3.9467089e-65
3.9467153e-65
3.9467381e-65
3.948439e-65
3.9471959e-65
3.9468065e-65
3.9467107e-65
3.9466917e-65
3.9466886e-65
3.9466884e-65
3.9466899e-65
3.9466963e-65
3.9467193e-65
3.9484358e-65
3.9471928e-65
3.9468034e-65
3.9467076e-65
3.9466886e-65
3.9466855e-65
3.9466853e-65
3.9466868e-65
3.9466933e-65
3.9467162e-65
3.9484355e-65
3.9471926e-65
3.9468032e-65
3.9467074e-65
3.9466884e-65
3.9466853e-65
3.9466852e-65
3.9466867e-65
3.9466931e-65
3.9467161e-65
3.9484361e-65
3.9471937e-65
3.9468046e-65
3.9467089e-65
3.9466899e-65
3.9466868e-65
3.9466867e-65
3.9466882e-65
3.9466946e-65
3.9467176e-65
3.9484386e-65
3.9471987e-65
3.9468107e-65
3.9467153e-65
3.9466963e-65
3.9466933e-65
3.9466931e-65
3.9466946e-65
3.946701e-65
3.946724e-65
3.9484481e-65
3.9472185e-65
3.946833e-65
3.9467381e-65
3.9467193e-65
3.9467162e-65
3.9467161e-65
3.9467176e-65
3.946724e-65
3.946747e-65
3.3928817e-64
3.3918474e-64
3.3915229e-64
3.3914431e-64
3.3914273e-64
3.3914247e-64
3.3914244e-64
3.3914249e-64
3.391427e-64
3.3914347e-64
3.3918474e-64
3.3908139e-64
3.3904896e-64
3.3904098e-64
3.390394e-64
3.3903914e-64
3.3903912e-64
3.3903921e-64
3.3903964e-64
3.3904129e-64
3.3915229e-64
3.3904896e-64
3.3901654e-64
3.3900856e-64
3.3900698e-64
3.3900672e-64
3.3900671e-64
3.3900682e-64
3.3900734e-64
3.390092e-64
3.3914431e-64
3.3904098e-64
3.3900856e-64
3.3900059e-64
3.38999e-64
3.3899875e-64
3.3899873e-64
3.3899886e-64
3.3899939e-64
3.390013e-64
3.3914273e-64
3.390394e-64
3.3900698e-64
3.38999e-64
3.3899742e-64
3.3899716e-64
3.3899715e-64
3.3899728e-64
3.3899782e-64
3.3899973e-64
3.3914247e-64
3.3903914e-64
3.3900672e-64
3.3899875e-64
3.3899716e-64
3.389969e-64
3.3899689e-64
3.3899702e-64
3.3899756e-64
3.3899948e-64
3.3914244e-64
3.3903912e-64
3.3900671e-64
3.3899873e-64
3.3899715e-64
3.3899689e-64
3.3899688e-64
3.3899701e-64
3.3899755e-64
3.3899947e-64
3.3914249e-64
3.3903921e-64
3.3900682e-64
3.3899886e-64
3.3899728e-64
3.3899702e-64
3.3899701e-64
3.3899713e-64
3.3899767e-64
3.3899959e-64
3.391427e-64
3.3903964e-64
3.3900734e-64
3.3899939e-64
3.3899782e-64
3.3899756e-64
3.3899755e-64
3.3899767e-64
3.3899822e-64
3.3900013e-64
3.3914347e-64
3.3904129e-64
3.390092e-64
3.390013e-64
3.3899973e-64
3.3899948e-64
3.3899947e-64
3.3899959e-64
3.3900013e-64
3.3900205e-64
2.9863799e-63
2.9854993e-63
2.9852228e-63
2.9851547e-63
2.9851412e-63
2.985139e-63
2.9851387e-63
2.9851391e-63
2.9851409e-63
2.9851475e-63
2.9854993e-63
2.9846194e-63
2.984343e-63
2.984275e-63
2.9842615e-63
2.9842592e-63
2.9842591e-63
2.9842599e-63
2.9842635e-63
2.9842776e-63
2.9852228e-63
2.984343e-63
2.9840666e-63
2.9839986e-63
2.9839851e-63
2.9839829e-63
2.9839828e-63
2.9839838e-63
2.9839882e-63
2.9840042e-63
2.9851547e-63
2.984275e-63
2.9839986e-63
2.9839306e-63
2.9839171e-63
2.9839149e-63
2.9839148e-63
2.9839159e-63
2.9839205e-63
2.9839368e-63
2.9851412e-63
2.9842615e-63
2.9839851e-63
2.9839171e-63
2.9839036e-63
2.9839014e-63
2.9839013e-63
2.9839024e-63
2.9839071e-63
2.9839235e-63
2.985139e-63
2.9842592e-63
2.9839829e-63
2.9839149e-63
2.9839014e-63
2.9838992e-63
2.9838991e-63
2.9839002e-63
2.9839049e-63
2.9839213e-63
2.9851387e-63
2.9842591e-63
2.9839828e-63
2.9839148e-63
2.9839013e-63
2.9838991e-63
2.983899e-63
2.9839001e-63
2.9839048e-63
2.9839212e-63
2.9851391e-63
2.9842599e-63
2.9839838e-63
2.9839159e-63
2.9839024e-63
2.9839002e-63
2.9839001e-63
2.9839012e-63
2.9839058e-63
2.9839223e-63
2.9851409e-63
2.9842635e-63
2.9839882e-63
2.9839205e-63
2.9839071e-63
2.9839049e-63
2.9839048e-63
2.9839058e-63
2.9839105e-63
2.9839269e-63
2.9851475e-63
2.9842776e-63
2.9840042e-63
2.9839368e-63
2.9839235e-63
2.9839213e-63
2.9839212e-63
2.9839223e-63
2.9839269e-63
2.9839434e-63
2.6933527e-62
2.6925851e-62
2.6923437e-62
2.6922842e-62
2.6922724e-62
2.6922705e-62
2.6922703e-62
2.6922706e-62
2.6922722e-62
2.6922778e-62
2.6925851e-62
2.691818e-62
2.6915767e-62
2.6915173e-62
2.6915055e-62
2.6915035e-62
2.6915034e-62
2.6915041e-62
2.6915073e-62
2.6915197e-62
2.6923437e-62
2.6915767e-62
2.6913354e-62
2.691276e-62
2.6912642e-62
2.6912623e-62
2.6912622e-62
2.6912631e-62
2.691267e-62
2.691281e-62
2.6922842e-62
2.6915173e-62
2.691276e-62
2.6912167e-62
2.6912049e-62
2.6912029e-62
2.6912029e-62
2.6912038e-62
2.6912079e-62
2.6912222e-62
2.6922724e-62
2.6915055e-62
2.6912642e-62
2.6912049e-62
2.6911931e-62
2.6911911e-62
2.6911911e-62
2.691192e-62
2.6911961e-62
2.6912105e-62
2.6922705e-62
2.6915035e-62
2.6912623e-62
2.6912029e-62
2.6911911e-62
2.6911892e-62
2.6911891e-62
2.6911901e-62
2.6911942e-62
2.6912086e-62
2.6922703e-62
2.6915034e-62
2.6912622e-62
2.6912029e-62
2.6911911e-62
2.6911891e-62
2.6911891e-62
2.69119e-62
2.6911942e-62
2.6912086e-62
2.6922706e-62
2.6915041e-62
2.6912631e-62
2.6912038e-62
2.691192e-62
2.6911901e-62
2.69119e-62
2.691191e-62
2.6911951e-62
2.6912095e-62
2.6922722e-62
2.6915073e-62
2.691267e-62
2.6912079e-62
2.6911961e-62
2.6911942e-62
2.6911942e-62
2.6911951e-62
2.6911993e-62
2.6912137e-62
2.6922778e-62
2.6915197e-62
2.691281e-62
2.6912222e-62
2.6912105e-62
2.6912086e-62
2.6912086e-62
2.6912095e-62
2.6912137e-62
2.6912281e-62
2.4885911e-61
2.4879059e-61
2.4876902e-61
2.4876371e-61
2.4876265e-61
2.4876248e-61
2.4876246e-61
2.4876249e-61
2.4876263e-61
2.4876313e-61
2.4879059e-61
2.4872212e-61
2.4870056e-61
2.4869525e-61
2.4869419e-61
2.4869402e-61
2.4869401e-61
2.4869407e-61
2.4869436e-61
2.4869547e-61
2.4876902e-61
2.4870056e-61
2.48679e-61
2.4867369e-61
2.4867263e-61
2.4867246e-61
2.4867245e-61
2.4867253e-61
2.4867289e-61
2.4867414e-61
2.4876371e-61
2.4869525e-61
2.4867369e-61
2.4866838e-61
2.4866732e-61
2.4866715e-61
2.4866714e-61
2.4866723e-61
2.486676e-61
2.4866889e-61
2.4876265e-61
2.4869419e-61
2.4867263e-61
2.4866732e-61
2.4866627e-61
2.486661e-61
2.4866609e-61
2.4866618e-61
2.4866655e-61
2.4866784e-61
2.4876248e-61
2.4869402e-61
2.4867246e-61
2.4866715e-61
2.486661e-61
2.4866592e-61
2.4866592e-61
2.4866601e-61
2.4866638e-61
2.4866767e-61
2.4876246e-61
2.4869401e-61
2.4867245e-61
2.4866714e-61
2.4866609e-61
2.4866592e-61
2.4866591e-61
2.48666e-61
2.4866637e-61
2.4866767e-61
2.4876249e-61
2.4869407e-61
2.4867253e-61
2.4866723e-61
2.4866618e-61
2.4866601e-61
2.48666e-61
2.4866609e-61
2.4866646e-61
2.4866775e-61
2.4876263e-61
2.4869436e-61
2.4867289e-61
2.486676e-61
2.4866655e-61
2.4866638e-61
2.4866637e-61
2.4866646e-61
2.4866683e-61
2.4866813e-61
2.4876313e-61
2.4869547e-61
2.4867414e-61
2.4866889e-61
2.4866784e-61
2.4866767e-61
2.4866767e-61
2.4866775e-61
2.4866813e-61
2.4866942e-61
2.3553741e-60
2.354748e-60
2.3545507e-60
2.354502e-60
2.3544924e-60
2.3544908e-60
2.3544906e-60
2.3544909e-60
2.3544922e-60
2.3544967e-60
2.354748e-60
2.3541223e-60
2.3539251e-60
2.3538765e-60
2.3538668e-60
2.3538652e-60
2.3538651e-60
2.3538657e-60
2.3538684e-60
2.3538786e-60
2.3545507e-60
2.3539251e-60
2.3537279e-60
2.3536793e-60
2.3536696e-60
2.353668e-60
2.353668e-60
2.3536687e-60
2.353672e-60
2.3536836e-60
2.354502e-60
2.3538765e-60
2.3536793e-60
2.3536307e-60
2.353621e-60
2.3536194e-60
2.3536194e-60
2.3536202e-60
2.3536236e-60
2.3536355e-60
2.3544924e-60
2.3538668e-60
2.3536696e-60
2.353621e-60
2.3536113e-60
2.3536098e-60
2.3536097e-60
2.3536105e-60
2.353614e-60
2.3536259e-60
2.3544908e-60
2.3538652e-60
2.353668e-60
2.3536194e-60
2.3536098e-60
2.3536082e-60
2.3536081e-60
2.353609e-60
2.3536124e-60
2.3536244e-60
2.3544906e-60
2.3538651e-60
2.353668e-60
2.3536194e-60
2.3536097e-60
2.3536081e-60
2.3536081e-60
2.3536089e-60
2.3536124e-60
2.3536243e-60
2.3544909e-60
2.3538657e-60
2.3536687e-60
2.3536202e-60
2.3536105e-60
2.353609e-60
2.3536089e-60
2.3536097e-60
2.3536132e-60
2.3536251e-60
2.3544922e-60
2.3538684e-60
2.353672e-60
2.3536236e-60
2.353614e-60
2.3536124e-60
2.3536124e-60
2.3536132e-60
2.3536167e-60
2.3536286e-60
2.3544967e-60
2.3538786e-60
2.3536836e-60
2.3536355e-60
2.3536259e-60
2.3536244e-60
2.3536243e-60
2.3536251e-60
2.3536286e-60
2.3536405e-60
2.2831768e-59
2.2825913e-59
2.2824065e-59
2.282361e-59
2.2823519e-59
2.2823504e-59
2.2823503e-59
2.2823506e-59
2.2823518e-59
2.282356e-59
2.2825913e-59
2.2820061e-59
2.2818215e-59
2.2817759e-59
2.2817669e-59
2.2817654e-59
2.2817653e-59
2.2817659e-59
2.2817685e-59
2.281778e-59
2.2824065e-59
2.2818215e-59
2.2816368e-59
2.2815913e-59
2.2815823e-59
2.2815808e-59
2.2815807e-59
2.2815814e-59
2.2815846e-59
2.2815955e-59
2.282361e-59
2.2817759e-59
2.2815913e-59
2.2815458e-59
2.2815367e-59
2.2815353e-59
2.2815352e-59
2.281536e-59
2.2815392e-59
2.2815504e-59
2.2823519e-59
2.2817669e-59
2.2815823e-59
2.2815367e-59
2.2815277e-59
2.2815262e-59
2.2815262e-59
2.2815269e-59
2.2815302e-59
2.2815415e-59
2.2823504e-59
2.2817654e-59
2.2815808e-59
2.2815353e-59
2.2815262e-59
2.2815248e-59
2.2815247e-59
2.2815255e-59
2.2815288e-59
2.28154e-59
2.2823503e-59
2.2817653e-59
2.2815807e-59
2.2815352e-59
2.2815262e-59
2.2815247e-59
2.2815246e-59
2.2815254e-59
2.2815287e-59
2.28154e-59
2.2823506e-59
2.2817659e-59
2.2815814e-59
2.281536e-59
2.2815269e-59
2.2815255e-59
2.2815254e-59
2.2815262e-59
2.2815295e-59
2.2815407e-59
2.2823518e-59
2.2817685e-59
2.2815846e-59
2.2815392e-59
2.2815302e-59
2.2815288e-59
2.2815287e-59
2.2815295e-59
2.2815328e-59
2.281544e-59
2.282356e-59
2.281778e-59
2.2815955e-59
2.2815504e-59
2.2815415e-59
2.28154e-59
2.28154e-59
2.2815407e-59
2.281544e-59
2.2815553e-59
2.2662767e-58
2.2657163e-58
2.2655393e-58
2.2654957e-58
2.265487e-58
2.2654856e-58
2.2654854e-58
2.2654857e-58
2.2654869e-58
2.2654908e-58
2.2657163e-58
2.2651564e-58
2.2649794e-58
2.2649358e-58
2.2649271e-58
2.2649257e-58
2.2649256e-58
2.2649262e-58
2.2649287e-58
2.2649379e-58
2.2655393e-58
2.2649794e-58
2.2648026e-58
2.2647589e-58
2.2647503e-58
2.2647488e-58
2.2647488e-58
2.2647495e-58
2.2647525e-58
2.2647631e-58
2.2654957e-58
2.2649358e-58
2.2647589e-58
2.2647153e-58
2.2647066e-58
2.2647052e-58
2.2647052e-58
2.2647059e-58
2.2647091e-58
2.2647199e-58
2.265487e-58
2.2649271e-58
2.2647503e-58
2.2647066e-58
2.264698e-58
2.2646966e-58
2.2646965e-58
2.2646973e-58
2.2647005e-58
2.2647113e-58
2.2654856e-58
2.2649257e-58
2.2647488e-58
2.2647052e-58
2.2646966e-58
2.2646951e-58
2.2646951e-58
2.2646958e-58
2.2646991e-58
2.2647099e-58
2.2654854e-58
2.2649256e-58
2.2647488e-58
2.2647052e-58
2.2646965e-58
2.2646951e-58
2.264695e-58
2.2646958e-58
2.264699e-58
2.2647099e-58
2.2654857e-58
2.2649262e-58
2.2647495e-58
2.2647059e-58
2.2646973e-58
2.2646958e-58
2.2646958e-58
2.2646966e-58
2.2646998e-58
2.2647106e-58
2.2654869e-58
2.2649287e-58
2.2647525e-58
2.2647091e-58
2.2647005e-58
2.2646991e-58
2.264699e-58
2.2646998e-58
2.264703e-58
2.2647138e-58
2.2654908e-58
2.2649379e-58
2.2647631e-58
2.2647199e-58
2.2647113e-58
2.2647099e-58
2.2647099e-58
2.2647106e-58
2.2647138e-58
2.2647247e-58
2.3029969e-57
2.3024483e-57
2.3022749e-57
2.3022321e-57
2.3022236e-57
2.3022222e-57
2.302222e-57
2.3022223e-57
2.3022235e-57
2.3022273e-57
2.3024483e-57
2.3019001e-57
2.3017267e-57
2.3016839e-57
2.3016754e-57
2.3016741e-57
2.301674e-57
2.3016745e-57
2.301677e-57
2.3016861e-57
2.3022749e-57
2.3017267e-57
2.3015534e-57
2.3015106e-57
2.3015021e-57
2.3015007e-57
2.3015006e-57
2.3015013e-57
2.3015044e-57
2.3015148e-57
2.3022321e-57
2.3016839e-57
2.3015106e-57
2.3014678e-57
2.3014593e-57
2.3014579e-57
2.3014579e-57
2.3014586e-57
2.3014618e-57
2.3014725e-57
2.3022236e-57
2.3016754e-57
2.3015021e-57
2.3014593e-57
2.3014508e-57
2.3014494e-57
2.3014494e-57
2.3014501e-57
2.3014533e-57
2.3014641e-57
2.3022222e-57
2.3016741e-57
2.3015007e-57
2.3014579e-57
2.3014494e-57
2.3014481e-57
2.301448e-57
2.3014488e-57
2.301452e-57
2.3014627e-57
2.302222e-57
2.301674e-57
2.3015006e-57
2.3014579e-57
2.3014494e-57
2.301448e-57
2.301448e-57
2.3014487e-57
2.3014519e-57
2.3014627e-57
2.3022223e-57
2.3016745e-57
2.3015013e-57
2.3014586e-57
2.3014501e-57
2.3014488e-57
2.3014487e-57
2.3014495e-57
2.3014527e-57
2.3014634e-57
2.3022235e-57
2.301677e-57
2.3015044e-57
2.3014618e-57
2.3014533e-57
2.301452e-57
2.3014519e-57
2.3014527e-57
2.3014559e-57
2.3014666e-57
2.3022273e-57
2.3016861e-57
2.3015148e-57
2.3014725e-57
2.3014641e-57
2.3014627e-57
2.3014627e-57
2.3014634e-57
2.3014666e-57
2.3014774e-57
2.3954481e-56
2.3948988e-56
2.3947249e-56
2.394682e-56
2.3946734e-56
2.394672e-56
2.3946719e-56
2.3946722e-56
2.3946734e-56
2.3946772e-56
2.3948988e-56
2.3943498e-56
2.394176e-56
2.3941331e-56
2.3941246e-56
2.3941232e-56
2.3941231e-56
2.3941237e-56
2.3941262e-56
2.3941354e-56
2.3947249e-56
2.394176e-56
2.3940022e-56
2.3939594e-56
2.3939508e-56
2.3939494e-56
2.3939494e-56
2.3939501e-56
2.3939532e-56
2.3939637e-56
2.394682e-56
2.3941331e-56
2.3939594e-56
2.3939165e-56
2.3939079e-56
2.3939066e-56
2.3939065e-56
2.3939073e-56
2.3939105e-56
2.3939213e-56
2.3946734e-56
2.3941246e-56
2.3939508e-56
2.3939079e-56
2.3938994e-56
2.393898e-56
2.393898e-56
2.3938987e-56
2.393902e-56
2.3939129e-56
2.394672e-56
2.3941232e-56
2.3939494e-56
2.3939066e-56
2.393898e-56
2.3938966e-56
2.3938966e-56
2.3938974e-56
2.3939006e-56
2.3939115e-56
2.3946719e-56
2.3941231e-56
2.3939494e-56
2.3939065e-56
2.393898e-56
2.3938966e-56
2.3938966e-56
2.3938973e-56
2.3939006e-56
2.3939115e-56
2.3946722e-56
2.3941237e-56
2.3939501e-56
2.3939073e-56
2.3938987e-56
2.3938974e-56
2.3938973e-56
2.3938981e-56
2.3939013e-56
2.3939122e-56
2.3946734e-56
2.3941262e-56
2.3939532e-56
2.3939105e-56
2.393902e-56
2.3939006e-56
2.3939006e-56
2.3939013e-56
2.3939046e-56
2.3939155e-56
2.3946772e-56
2.3941354e-56
2.3939637e-56
2.3939213e-56
2.3939129e-56
2.3939115e-56
2.3939115e-56
2.3939122e-56
2.3939155e-56
2.3939264e-56