/*--------------------------------*- C++ -*----------------------------------*\
| =========                 |                                                 |
| \\      /  F ield         | OpenFOAM: The Open Source CFD Toolbox           |
|  \\    /   O peration     | Version:  dev                                   |
|   \\  /    A nd           | Web:      www.OpenFOAM.org                      |
|    \\/     M anipulation  |                                                 |
\*---------------------------------------------------------------------------*/
FoamFile
{
    version     2.0;
    format      ascii;
    class       volScalarField;
    location    "9";
    object      A_0;
}
// * * * * * * * * * * * * * * * * * * * * * * * * * * * * * * * * * * * * * //

dimensions      [0 0 0 0 1 0 0];

internalField   nonuniform List<scalar> 
10000
(
8.8458117e-75
8.8419517e-75
8.840767e-75
8.8404775e-75
8.8404202e-75
8.8404108e-75
8.8404098e-75
8.8404113e-75
8.840419e-75
8.8404534e-75
8.8419517e-75
8.8380948e-75
8.836911e-75
8.8366217e-75
8.8365644e-75
8.8365551e-75
8.8365543e-75
8.8365572e-75
8.8365714e-75
8.8366325e-75
8.840767e-75
8.836911e-75
8.8357274e-75
8.8354382e-75
8.835381e-75
8.8353716e-75
8.835371e-75
8.8353746e-75
8.8353916e-75
8.8354591e-75
8.8404775e-75
8.8366217e-75
8.8354382e-75
8.8351491e-75
8.8350918e-75
8.8350825e-75
8.8350819e-75
8.8350857e-75
8.8351034e-75
8.8351723e-75
8.8404202e-75
8.8365644e-75
8.835381e-75
8.8350918e-75
8.8350345e-75
8.8350252e-75
8.8350247e-75
8.8350285e-75
8.8350463e-75
8.8351155e-75
8.8404108e-75
8.8365551e-75
8.8353716e-75
8.8350825e-75
8.8350252e-75
8.8350159e-75
8.8350153e-75
8.8350192e-75
8.835037e-75
8.8351063e-75
8.8404098e-75
8.8365543e-75
8.835371e-75
8.8350819e-75
8.8350247e-75
8.8350153e-75
8.8350148e-75
8.8350187e-75
8.8350365e-75
8.8351057e-75
8.8404113e-75
8.8365572e-75
8.8353746e-75
8.8350857e-75
8.8350285e-75
8.8350192e-75
8.8350187e-75
8.8350226e-75
8.8350404e-75
8.8351096e-75
8.840419e-75
8.8365714e-75
8.8353916e-75
8.8351034e-75
8.8350463e-75
8.835037e-75
8.8350365e-75
8.8350404e-75
8.8350582e-75
8.8351274e-75
8.8404534e-75
8.8366325e-75
8.8354591e-75
8.8351723e-75
8.8351155e-75
8.8351063e-75
8.8351057e-75
8.8351096e-75
8.8351274e-75
8.8351967e-75
6.7989655e-74
6.7960763e-74
6.795185e-74
6.7949671e-74
6.7949239e-74
6.7949168e-74
6.7949161e-74
6.7949172e-74
6.794923e-74
6.7949497e-74
6.7960763e-74
6.7931895e-74
6.7922988e-74
6.792081e-74
6.7920378e-74
6.7920308e-74
6.7920302e-74
6.7920324e-74
6.7920432e-74
6.7920902e-74
6.795185e-74
6.7922988e-74
6.7914083e-74
6.7911905e-74
6.7911474e-74
6.7911404e-74
6.7911399e-74
6.7911427e-74
6.7911555e-74
6.7912075e-74
6.7949671e-74
6.792081e-74
6.7911905e-74
6.7909728e-74
6.7909297e-74
6.7909227e-74
6.7909223e-74
6.7909252e-74
6.7909385e-74
6.7909916e-74
6.7949239e-74
6.7920378e-74
6.7911474e-74
6.7909297e-74
6.7908866e-74
6.7908796e-74
6.7908792e-74
6.7908821e-74
6.7908956e-74
6.7909488e-74
6.7949168e-74
6.7920308e-74
6.7911404e-74
6.7909227e-74
6.7908796e-74
6.7908726e-74
6.7908722e-74
6.7908751e-74
6.7908886e-74
6.7909419e-74
6.7949161e-74
6.7920302e-74
6.7911399e-74
6.7909223e-74
6.7908792e-74
6.7908722e-74
6.7908718e-74
6.7908747e-74
6.7908882e-74
6.7909415e-74
6.7949172e-74
6.7920324e-74
6.7911427e-74
6.7909252e-74
6.7908821e-74
6.7908751e-74
6.7908747e-74
6.7908777e-74
6.7908912e-74
6.7909444e-74
6.794923e-74
6.7920432e-74
6.7911555e-74
6.7909385e-74
6.7908956e-74
6.7908886e-74
6.7908882e-74
6.7908912e-74
6.7909046e-74
6.7909579e-74
6.7949497e-74
6.7920902e-74
6.7912075e-74
6.7909916e-74
6.7909488e-74
6.7909419e-74
6.7909415e-74
6.7909444e-74
6.7909579e-74
6.7910112e-74
4.5719581e-73
4.5700683e-73
4.5694842e-73
4.5693413e-73
4.569313e-73
4.5693084e-73
4.5693079e-73
4.5693086e-73
4.5693124e-73
4.5693297e-73
4.5700683e-73
4.56818e-73
4.5675963e-73
4.5674535e-73
4.5674252e-73
4.5674206e-73
4.5674202e-73
4.5674217e-73
4.5674288e-73
4.5674595e-73
4.5694842e-73
4.5675963e-73
4.5670128e-73
4.56687e-73
4.5668417e-73
4.5668371e-73
4.5668368e-73
4.5668386e-73
4.5668471e-73
4.5668811e-73
4.5693413e-73
4.5674535e-73
4.56687e-73
4.5667273e-73
4.566699e-73
4.5666944e-73
4.5666941e-73
4.566696e-73
4.5667048e-73
4.5667396e-73
4.569313e-73
4.5674252e-73
4.5668417e-73
4.566699e-73
4.5666707e-73
4.5666661e-73
4.5666658e-73
4.5666678e-73
4.5666767e-73
4.5667115e-73
4.5693084e-73
4.5674206e-73
4.5668371e-73
4.5666944e-73
4.5666661e-73
4.5666615e-73
4.5666612e-73
4.5666632e-73
4.5666721e-73
4.566707e-73
4.5693079e-73
4.5674202e-73
4.5668368e-73
4.5666941e-73
4.5666658e-73
4.5666612e-73
4.566661e-73
4.5666629e-73
4.5666718e-73
4.5667067e-73
4.5693086e-73
4.5674217e-73
4.5668386e-73
4.566696e-73
4.5666678e-73
4.5666632e-73
4.5666629e-73
4.5666649e-73
4.5666738e-73
4.5667087e-73
4.5693124e-73
4.5674288e-73
4.5668471e-73
4.5667048e-73
4.5666767e-73
4.5666721e-73
4.5666718e-73
4.5666738e-73
4.5666827e-73
4.5667176e-73
4.5693297e-73
4.5674595e-73
4.5668811e-73
4.5667396e-73
4.5667115e-73
4.566707e-73
4.5667067e-73
4.5667087e-73
4.5667176e-73
4.5667525e-73
3.1417925e-72
3.14053e-72
3.1401391e-72
3.1400434e-72
3.1400245e-72
3.1400214e-72
3.140021e-72
3.1400216e-72
3.1400241e-72
3.1400353e-72
3.14053e-72
3.1392684e-72
3.1388778e-72
3.1387822e-72
3.1387633e-72
3.1387602e-72
3.1387599e-72
3.1387609e-72
3.1387657e-72
3.1387861e-72
3.1401391e-72
3.1388778e-72
3.1384873e-72
3.1383917e-72
3.1383728e-72
3.1383697e-72
3.1383695e-72
3.1383707e-72
3.1383764e-72
3.1383991e-72
3.1400434e-72
3.1387822e-72
3.1383917e-72
3.1382962e-72
3.1382772e-72
3.1382741e-72
3.138274e-72
3.1382753e-72
3.1382812e-72
3.1383043e-72
3.1400245e-72
3.1387633e-72
3.1383728e-72
3.1382772e-72
3.1382583e-72
3.1382552e-72
3.138255e-72
3.1382564e-72
3.1382623e-72
3.1382855e-72
3.1400214e-72
3.1387602e-72
3.1383697e-72
3.1382741e-72
3.1382552e-72
3.1382521e-72
3.1382519e-72
3.1382533e-72
3.1382593e-72
3.1382825e-72
3.140021e-72
3.1387599e-72
3.1383695e-72
3.138274e-72
3.138255e-72
3.1382519e-72
3.1382518e-72
3.1382531e-72
3.1382591e-72
3.1382823e-72
3.1400216e-72
3.1387609e-72
3.1383707e-72
3.1382753e-72
3.1382564e-72
3.1382533e-72
3.1382531e-72
3.1382544e-72
3.1382604e-72
3.1382836e-72
3.1400241e-72
3.1387657e-72
3.1383764e-72
3.1382812e-72
3.1382623e-72
3.1382593e-72
3.1382591e-72
3.1382604e-72
3.1382664e-72
3.1382896e-72
3.1400353e-72
3.1387861e-72
3.1383991e-72
3.1383043e-72
3.1382855e-72
3.1382825e-72
3.1382823e-72
3.1382836e-72
3.1382896e-72
3.1383129e-72
2.2135034e-71
2.212639e-71
2.212371e-71
2.2123054e-71
2.2122923e-71
2.2122902e-71
2.21229e-71
2.2122903e-71
2.212292e-71
2.2122996e-71
2.212639e-71
2.2117753e-71
2.2115074e-71
2.2114418e-71
2.2114288e-71
2.2114267e-71
2.2114266e-71
2.2114272e-71
2.2114305e-71
2.2114444e-71
2.212371e-71
2.2115074e-71
2.2112397e-71
2.2111741e-71
2.2111611e-71
2.211159e-71
2.2111588e-71
2.2111597e-71
2.2111636e-71
2.2111791e-71
2.2123054e-71
2.2114418e-71
2.2111741e-71
2.2111085e-71
2.2110955e-71
2.2110934e-71
2.2110933e-71
2.2110942e-71
2.2110983e-71
2.2111141e-71
2.2122923e-71
2.2114288e-71
2.2111611e-71
2.2110955e-71
2.2110825e-71
2.2110804e-71
2.2110803e-71
2.2110812e-71
2.2110853e-71
2.2111012e-71
2.2122902e-71
2.2114267e-71
2.211159e-71
2.2110934e-71
2.2110804e-71
2.2110783e-71
2.2110782e-71
2.2110791e-71
2.2110832e-71
2.2110991e-71
2.21229e-71
2.2114266e-71
2.2111588e-71
2.2110933e-71
2.2110803e-71
2.2110782e-71
2.211078e-71
2.211079e-71
2.2110831e-71
2.211099e-71
2.2122903e-71
2.2114272e-71
2.2111597e-71
2.2110942e-71
2.2110812e-71
2.2110791e-71
2.211079e-71
2.2110799e-71
2.211084e-71
2.2110999e-71
2.212292e-71
2.2114305e-71
2.2111636e-71
2.2110983e-71
2.2110853e-71
2.2110832e-71
2.2110831e-71
2.211084e-71
2.2110882e-71
2.211104e-71
2.2122996e-71
2.2114444e-71
2.2111791e-71
2.2111141e-71
2.2111012e-71
2.2110991e-71
2.211099e-71
2.2110999e-71
2.211104e-71
2.2111199e-71
1.5989506e-70
1.5983441e-70
1.5981558e-70
1.5981096e-70
1.5981005e-70
1.598099e-70
1.5980988e-70
1.5980991e-70
1.5981003e-70
1.5981055e-70
1.5983441e-70
1.5977381e-70
1.5975499e-70
1.5975038e-70
1.5974946e-70
1.5974931e-70
1.597493e-70
1.5974935e-70
1.5974958e-70
1.5975055e-70
1.5981558e-70
1.5975499e-70
1.5973617e-70
1.5973156e-70
1.5973065e-70
1.597305e-70
1.5973049e-70
1.5973055e-70
1.5973083e-70
1.5973191e-70
1.5981096e-70
1.5975038e-70
1.5973156e-70
1.5972695e-70
1.5972604e-70
1.5972589e-70
1.5972588e-70
1.5972594e-70
1.5972623e-70
1.5972734e-70
1.5981005e-70
1.5974946e-70
1.5973065e-70
1.5972604e-70
1.5972512e-70
1.5972497e-70
1.5972496e-70
1.5972503e-70
1.5972532e-70
1.5972643e-70
1.598099e-70
1.5974931e-70
1.597305e-70
1.5972589e-70
1.5972497e-70
1.5972482e-70
1.5972482e-70
1.5972488e-70
1.5972517e-70
1.5972628e-70
1.5980988e-70
1.597493e-70
1.5973049e-70
1.5972588e-70
1.5972496e-70
1.5972482e-70
1.5972481e-70
1.5972487e-70
1.5972517e-70
1.5972628e-70
1.5980991e-70
1.5974935e-70
1.5973055e-70
1.5972594e-70
1.5972503e-70
1.5972488e-70
1.5972487e-70
1.5972494e-70
1.5972523e-70
1.5972634e-70
1.5981003e-70
1.5974958e-70
1.5973083e-70
1.5972623e-70
1.5972532e-70
1.5972517e-70
1.5972517e-70
1.5972523e-70
1.5972553e-70
1.5972664e-70
1.5981055e-70
1.5975055e-70
1.5973191e-70
1.5972734e-70
1.5972643e-70
1.5972628e-70
1.5972628e-70
1.5972634e-70
1.5972664e-70
1.5972775e-70
1.1842206e-69
1.1837845e-69
1.1836489e-69
1.1836156e-69
1.1836091e-69
1.183608e-69
1.1836079e-69
1.183608e-69
1.1836089e-69
1.1836125e-69
1.1837845e-69
1.1833488e-69
1.1832132e-69
1.18318e-69
1.1831734e-69
1.1831723e-69
1.1831722e-69
1.1831726e-69
1.1831743e-69
1.1831812e-69
1.1836489e-69
1.1832132e-69
1.1830777e-69
1.1830445e-69
1.1830379e-69
1.1830368e-69
1.1830368e-69
1.1830372e-69
1.1830392e-69
1.183047e-69
1.1836156e-69
1.18318e-69
1.1830445e-69
1.1830113e-69
1.1830047e-69
1.1830036e-69
1.1830035e-69
1.183004e-69
1.1830061e-69
1.1830141e-69
1.1836091e-69
1.1831734e-69
1.1830379e-69
1.1830047e-69
1.1829981e-69
1.182997e-69
1.182997e-69
1.1829974e-69
1.1829996e-69
1.1830075e-69
1.183608e-69
1.1831723e-69
1.1830368e-69
1.1830036e-69
1.182997e-69
1.1829959e-69
1.1829959e-69
1.1829964e-69
1.1829985e-69
1.1830065e-69
1.1836079e-69
1.1831722e-69
1.1830368e-69
1.1830035e-69
1.182997e-69
1.1829959e-69
1.1829958e-69
1.1829963e-69
1.1829984e-69
1.1830064e-69
1.183608e-69
1.1831726e-69
1.1830372e-69
1.183004e-69
1.1829974e-69
1.1829964e-69
1.1829963e-69
1.1829968e-69
1.1829989e-69
1.1830069e-69
1.1836089e-69
1.1831743e-69
1.1830392e-69
1.1830061e-69
1.1829996e-69
1.1829985e-69
1.1829984e-69
1.1829989e-69
1.183001e-69
1.183009e-69
1.1836125e-69
1.1831812e-69
1.183047e-69
1.1830141e-69
1.1830075e-69
1.1830065e-69
1.1830064e-69
1.1830069e-69
1.183009e-69
1.183017e-69
8.9920332e-69
8.9888199e-69
8.9878191e-69
8.9875736e-69
8.9875249e-69
8.9875169e-69
8.987516e-69
8.9875174e-69
8.9875238e-69
8.98755e-69
8.9888199e-69
8.985609e-69
8.9846088e-69
8.9843634e-69
8.9843148e-69
8.9843068e-69
8.9843062e-69
8.9843089e-69
8.9843214e-69
8.9843725e-69
8.9878191e-69
8.9846088e-69
8.9836088e-69
8.9833635e-69
8.9833148e-69
8.9833069e-69
8.9833064e-69
8.9833098e-69
8.9833248e-69
8.983382e-69
8.9875736e-69
8.9843634e-69
8.9833635e-69
8.9831182e-69
8.9830696e-69
8.9830616e-69
8.9830612e-69
8.9830647e-69
8.9830804e-69
8.9831389e-69
8.9875249e-69
8.9843148e-69
8.9833148e-69
8.9830696e-69
8.9830209e-69
8.983013e-69
8.9830126e-69
8.9830162e-69
8.983032e-69
8.9830907e-69
8.9875169e-69
8.9843068e-69
8.9833069e-69
8.9830616e-69
8.983013e-69
8.9830051e-69
8.9830047e-69
8.9830082e-69
8.9830241e-69
8.9830829e-69
8.987516e-69
8.9843062e-69
8.9833064e-69
8.9830612e-69
8.9830126e-69
8.9830047e-69
8.9830043e-69
8.9830078e-69
8.9830237e-69
8.9830825e-69
8.9875174e-69
8.9843089e-69
8.9833098e-69
8.9830647e-69
8.9830162e-69
8.9830082e-69
8.9830078e-69
8.9830114e-69
8.9830273e-69
8.983086e-69
8.9875238e-69
8.9843214e-69
8.9833248e-69
8.9830804e-69
8.983032e-69
8.9830241e-69
8.9830237e-69
8.9830273e-69
8.9830431e-69
8.9831019e-69
8.98755e-69
8.9843725e-69
8.983382e-69
8.9831389e-69
8.9830907e-69
8.9830829e-69
8.9830825e-69
8.983086e-69
8.9831019e-69
8.9831607e-69
6.9998839e-68
6.9974578e-68
6.996701e-68
6.9965153e-68
6.9964784e-68
6.9964724e-68
6.9964717e-68
6.9964728e-68
6.9964776e-68
6.9964971e-68
6.9974578e-68
6.9950334e-68
6.9942771e-68
6.9940915e-68
6.9940547e-68
6.9940487e-68
6.9940482e-68
6.9940503e-68
6.9940598e-68
6.9940983e-68
6.996701e-68
6.9942771e-68
6.993521e-68
6.9933354e-68
6.9932986e-68
6.9932926e-68
6.9932923e-68
6.9932948e-68
6.9933063e-68
6.9933495e-68
6.9965153e-68
6.9940915e-68
6.9933354e-68
6.9931499e-68
6.9931131e-68
6.9931071e-68
6.9931068e-68
6.9931095e-68
6.9931214e-68
6.9931656e-68
6.9964784e-68
6.9940547e-68
6.9932986e-68
6.9931131e-68
6.9930763e-68
6.9930703e-68
6.99307e-68
6.9930727e-68
6.9930848e-68
6.9931292e-68
6.9964724e-68
6.9940487e-68
6.9932926e-68
6.9931071e-68
6.9930703e-68
6.9930643e-68
6.993064e-68
6.9930667e-68
6.9930788e-68
6.9931232e-68
6.9964717e-68
6.9940482e-68
6.9932923e-68
6.9931068e-68
6.99307e-68
6.993064e-68
6.9930637e-68
6.9930664e-68
6.9930785e-68
6.9931229e-68
6.9964728e-68
6.9940503e-68
6.9932948e-68
6.9931095e-68
6.9930727e-68
6.9930667e-68
6.9930664e-68
6.9930692e-68
6.9930813e-68
6.9931257e-68
6.9964776e-68
6.9940598e-68
6.9933063e-68
6.9931214e-68
6.9930848e-68
6.9930788e-68
6.9930785e-68
6.9930813e-68
6.9930934e-68
6.9931378e-68
6.9964971e-68
6.9940983e-68
6.9933495e-68
6.9931656e-68
6.9931292e-68
6.9931232e-68
6.9931229e-68
6.9931257e-68
6.9931378e-68
6.9931822e-68
5.5860672e-67
5.5841904e-67
5.5836041e-67
5.5834601e-67
5.5834316e-67
5.5834269e-67
5.5834264e-67
5.5834272e-67
5.583431e-67
5.5834457e-67
5.5841904e-67
5.5823148e-67
5.5817289e-67
5.5815851e-67
5.5815565e-67
5.5815519e-67
5.5815515e-67
5.5815531e-67
5.5815606e-67
5.5815904e-67
5.5836041e-67
5.5817289e-67
5.5811432e-67
5.5809993e-67
5.5809708e-67
5.5809662e-67
5.5809659e-67
5.5809679e-67
5.5809769e-67
5.5810103e-67
5.5834601e-67
5.5815851e-67
5.5809993e-67
5.5808555e-67
5.580827e-67
5.5808223e-67
5.5808221e-67
5.5808242e-67
5.5808336e-67
5.5808679e-67
5.5834316e-67
5.5815565e-67
5.5809708e-67
5.580827e-67
5.5807985e-67
5.5807938e-67
5.5807936e-67
5.5807957e-67
5.5808052e-67
5.5808396e-67
5.5834269e-67
5.5815519e-67
5.5809662e-67
5.5808223e-67
5.5807938e-67
5.5807892e-67
5.5807889e-67
5.5807911e-67
5.5808006e-67
5.580835e-67
5.5834264e-67
5.5815515e-67
5.5809659e-67
5.5808221e-67
5.5807936e-67
5.5807889e-67
5.5807887e-67
5.5807909e-67
5.5808003e-67
5.5808348e-67
5.5834272e-67
5.5815531e-67
5.5809679e-67
5.5808242e-67
5.5807957e-67
5.5807911e-67
5.5807909e-67
5.580793e-67
5.5808025e-67
5.5808369e-67
5.583431e-67
5.5815606e-67
5.5809769e-67
5.5808336e-67
5.5808052e-67
5.5808006e-67
5.5808003e-67
5.5808025e-67
5.580812e-67
5.5808464e-67
5.5834457e-67
5.5815904e-67
5.5810103e-67
5.5808679e-67
5.5808396e-67
5.580835e-67
5.5808348e-67
5.5808369e-67
5.5808464e-67
5.5808808e-67
4.5695483e-66
4.5680607e-66
4.5675954e-66
4.5674811e-66
4.5674584e-66
4.5674547e-66
4.5674543e-66
4.567455e-66
4.567458e-66
4.5674695e-66
4.5680607e-66
4.5665742e-66
4.5661092e-66
4.565995e-66
4.5659723e-66
4.5659686e-66
4.5659683e-66
4.5659696e-66
4.5659756e-66
4.5659992e-66
4.5675954e-66
4.5661092e-66
4.5656443e-66
4.5655301e-66
4.5655074e-66
4.5655037e-66
4.5655035e-66
4.5655051e-66
4.5655123e-66
4.5655389e-66
4.5674811e-66
4.565995e-66
4.5655301e-66
4.5654159e-66
4.5653932e-66
4.5653895e-66
4.5653894e-66
4.5653911e-66
4.5653986e-66
4.5654258e-66
4.5674584e-66
4.5659723e-66
4.5655074e-66
4.5653932e-66
4.5653706e-66
4.5653669e-66
4.5653667e-66
4.5653684e-66
4.565376e-66
4.5654034e-66
4.5674547e-66
4.5659686e-66
4.5655037e-66
4.5653895e-66
4.5653669e-66
4.5653632e-66
4.565363e-66
4.5653648e-66
4.5653724e-66
4.5653997e-66
4.5674543e-66
4.5659683e-66
4.5655035e-66
4.5653894e-66
4.5653667e-66
4.565363e-66
4.5653628e-66
4.5653646e-66
4.5653722e-66
4.5653995e-66
4.567455e-66
4.5659696e-66
4.5655051e-66
4.5653911e-66
4.5653684e-66
4.5653648e-66
4.5653646e-66
4.5653663e-66
4.5653739e-66
4.5654013e-66
4.567458e-66
4.5659756e-66
4.5655123e-66
4.5653986e-66
4.565376e-66
4.5653724e-66
4.5653722e-66
4.5653739e-66
4.5653815e-66
4.5654089e-66
4.5674695e-66
4.5659992e-66
4.5655389e-66
4.5654258e-66
4.5654034e-66
4.5653997e-66
4.5653995e-66
4.5654013e-66
4.5654089e-66
4.5654362e-66
3.8313875e-65
3.8301797e-65
3.8298014e-65
3.8297085e-65
3.82969e-65
3.829687e-65
3.8296867e-65
3.8296872e-65
3.8296896e-65
3.8296988e-65
3.8301797e-65
3.8289728e-65
3.8285947e-65
3.8285018e-65
3.8284833e-65
3.8284803e-65
3.8284801e-65
3.8284812e-65
3.8284861e-65
3.8285053e-65
3.8298014e-65
3.8285947e-65
3.8282167e-65
3.8281238e-65
3.8281054e-65
3.8281024e-65
3.8281022e-65
3.8281036e-65
3.8281095e-65
3.8281311e-65
3.8297085e-65
3.8285018e-65
3.8281238e-65
3.8280309e-65
3.8280125e-65
3.8280095e-65
3.8280094e-65
3.8280108e-65
3.828017e-65
3.8280391e-65
3.82969e-65
3.8284833e-65
3.8281054e-65
3.8280125e-65
3.8279941e-65
3.8279911e-65
3.8279909e-65
3.8279924e-65
3.8279986e-65
3.8280209e-65
3.829687e-65
3.8284803e-65
3.8281024e-65
3.8280095e-65
3.8279911e-65
3.8279881e-65
3.8279879e-65
3.8279894e-65
3.8279956e-65
3.8280179e-65
3.8296867e-65
3.8284801e-65
3.8281022e-65
3.8280094e-65
3.8279909e-65
3.8279879e-65
3.8279878e-65
3.8279892e-65
3.8279955e-65
3.8280178e-65
3.8296872e-65
3.8284812e-65
3.8281036e-65
3.8280108e-65
3.8279924e-65
3.8279894e-65
3.8279892e-65
3.8279907e-65
3.8279969e-65
3.8280192e-65
3.8296896e-65
3.8284861e-65
3.8281095e-65
3.828017e-65
3.8279986e-65
3.8279956e-65
3.8279955e-65
3.8279969e-65
3.8280032e-65
3.8280254e-65
3.8296988e-65
3.8285053e-65
3.8281311e-65
3.8280391e-65
3.8280209e-65
3.8280179e-65
3.8280178e-65
3.8280192e-65
3.8280254e-65
3.8280477e-65
3.2924019e-64
3.2913974e-64
3.2910824e-64
3.291005e-64
3.2909896e-64
3.2909871e-64
3.2909868e-64
3.2909873e-64
3.2909893e-64
3.2909968e-64
3.2913974e-64
3.2903937e-64
3.2900788e-64
3.2900014e-64
3.2899861e-64
3.2899835e-64
3.2899834e-64
3.2899843e-64
3.2899884e-64
3.2900044e-64
3.2910824e-64
3.2900788e-64
3.2897641e-64
3.2896867e-64
3.2896713e-64
3.2896688e-64
3.2896687e-64
3.2896698e-64
3.2896748e-64
3.2896929e-64
3.291005e-64
3.2900014e-64
3.2896867e-64
3.2896093e-64
3.2895939e-64
3.2895914e-64
3.2895913e-64
3.2895925e-64
3.2895977e-64
3.2896162e-64
3.2909896e-64
3.2899861e-64
3.2896713e-64
3.2895939e-64
3.2895786e-64
3.2895761e-64
3.289576e-64
3.2895772e-64
3.2895824e-64
3.289601e-64
3.2909871e-64
3.2899835e-64
3.2896688e-64
3.2895914e-64
3.2895761e-64
3.2895736e-64
3.2895735e-64
3.2895747e-64
3.2895799e-64
3.2895986e-64
3.2909868e-64
3.2899834e-64
3.2896687e-64
3.2895913e-64
3.289576e-64
3.2895735e-64
3.2895734e-64
3.2895746e-64
3.2895798e-64
3.2895984e-64
3.2909873e-64
3.2899843e-64
3.2896698e-64
3.2895925e-64
3.2895772e-64
3.2895747e-64
3.2895746e-64
3.2895758e-64
3.289581e-64
3.2895997e-64
3.2909893e-64
3.2899884e-64
3.2896748e-64
3.2895977e-64
3.2895824e-64
3.2895799e-64
3.2895798e-64
3.289581e-64
3.2895863e-64
3.2896049e-64
3.2909968e-64
3.2900044e-64
3.2896929e-64
3.2896162e-64
3.289601e-64
3.2895986e-64
3.2895984e-64
3.2895997e-64
3.2896049e-64
3.2896235e-64
2.8993191e-63
2.8984635e-63
2.8981949e-63
2.8981288e-63
2.8981157e-63
2.8981135e-63
2.8981133e-63
2.8981137e-63
2.8981154e-63
2.8981218e-63
2.8984635e-63
2.8976085e-63
2.89734e-63
2.897274e-63
2.8972609e-63
2.8972587e-63
2.8972586e-63
2.8972594e-63
2.8972629e-63
2.8972766e-63
2.8981949e-63
2.89734e-63
2.8970716e-63
2.8970056e-63
2.8969925e-63
2.8969903e-63
2.8969902e-63
2.8969912e-63
2.8969955e-63
2.897011e-63
2.8981288e-63
2.897274e-63
2.8970056e-63
2.8969396e-63
2.8969264e-63
2.8969243e-63
2.8969242e-63
2.8969252e-63
2.8969297e-63
2.8969456e-63
2.8981157e-63
2.8972609e-63
2.8969925e-63
2.8969264e-63
2.8969133e-63
2.8969112e-63
2.8969111e-63
2.8969122e-63
2.8969167e-63
2.8969326e-63
2.8981135e-63
2.8972587e-63
2.8969903e-63
2.8969243e-63
2.8969112e-63
2.8969091e-63
2.896909e-63
2.89691e-63
2.8969146e-63
2.8969305e-63
2.8981133e-63
2.8972586e-63
2.8969902e-63
2.8969242e-63
2.8969111e-63
2.896909e-63
2.8969089e-63
2.8969099e-63
2.8969145e-63
2.8969304e-63
2.8981137e-63
2.8972594e-63
2.8969912e-63
2.8969252e-63
2.8969122e-63
2.89691e-63
2.8969099e-63
2.896911e-63
2.8969155e-63
2.8969315e-63
2.8981154e-63
2.8972629e-63
2.8969955e-63
2.8969297e-63
2.8969167e-63
2.8969146e-63
2.8969145e-63
2.8969155e-63
2.8969201e-63
2.896936e-63
2.8981218e-63
2.8972766e-63
2.897011e-63
2.8969456e-63
2.8969326e-63
2.8969305e-63
2.8969304e-63
2.8969315e-63
2.896936e-63
2.896952e-63
2.6160862e-62
2.6153399e-62
2.6151053e-62
2.6150476e-62
2.6150361e-62
2.6150342e-62
2.615034e-62
2.6150344e-62
2.6150359e-62
2.6150414e-62
2.6153399e-62
2.6145942e-62
2.6143597e-62
2.614302e-62
2.6142905e-62
2.6142886e-62
2.6142885e-62
2.6142892e-62
2.6142923e-62
2.6143043e-62
2.6151053e-62
2.6143597e-62
2.6141253e-62
2.6140676e-62
2.6140561e-62
2.6140542e-62
2.6140542e-62
2.614055e-62
2.6140588e-62
2.6140724e-62
2.6150476e-62
2.614302e-62
2.6140676e-62
2.6140099e-62
2.6139984e-62
2.6139966e-62
2.6139965e-62
2.6139974e-62
2.6140014e-62
2.6140153e-62
2.6150361e-62
2.6142905e-62
2.6140561e-62
2.6139984e-62
2.613987e-62
2.6139851e-62
2.613985e-62
2.613986e-62
2.61399e-62
2.614004e-62
2.6150342e-62
2.6142886e-62
2.6140542e-62
2.6139966e-62
2.6139851e-62
2.6139832e-62
2.6139832e-62
2.6139841e-62
2.6139881e-62
2.6140021e-62
2.615034e-62
2.6142885e-62
2.6140542e-62
2.6139965e-62
2.613985e-62
2.6139832e-62
2.6139831e-62
2.613984e-62
2.613988e-62
2.614002e-62
2.6150344e-62
2.6142892e-62
2.614055e-62
2.6139974e-62
2.613986e-62
2.6139841e-62
2.613984e-62
2.6139849e-62
2.613989e-62
2.614003e-62
2.6150359e-62
2.6142923e-62
2.6140588e-62
2.6140014e-62
2.61399e-62
2.6139881e-62
2.613988e-62
2.613989e-62
2.613993e-62
2.614007e-62
2.6150414e-62
2.6143043e-62
2.6140724e-62
2.6140153e-62
2.614004e-62
2.6140021e-62
2.614002e-62
2.614003e-62
2.614007e-62
2.614021e-62
2.4183613e-61
2.4176949e-61
2.4174851e-61
2.4174335e-61
2.4174232e-61
2.4174215e-61
2.4174213e-61
2.4174217e-61
2.417423e-61
2.4174278e-61
2.4176949e-61
2.4170289e-61
2.4168192e-61
2.4167676e-61
2.4167574e-61
2.4167557e-61
2.4167556e-61
2.4167562e-61
2.416759e-61
2.4167698e-61
2.4174851e-61
2.4168192e-61
2.4166096e-61
2.416558e-61
2.4165478e-61
2.4165461e-61
2.416546e-61
2.4165468e-61
2.4165502e-61
2.4165625e-61
2.4174335e-61
2.4167676e-61
2.416558e-61
2.4165064e-61
2.4164962e-61
2.4164945e-61
2.4164944e-61
2.4164953e-61
2.4164989e-61
2.4165114e-61
2.4174232e-61
2.4167574e-61
2.4165478e-61
2.4164962e-61
2.4164859e-61
2.4164843e-61
2.4164842e-61
2.416485e-61
2.4164887e-61
2.4165012e-61
2.4174215e-61
2.4167557e-61
2.4165461e-61
2.4164945e-61
2.4164843e-61
2.4164826e-61
2.4164825e-61
2.4164834e-61
2.416487e-61
2.4164996e-61
2.4174213e-61
2.4167556e-61
2.416546e-61
2.4164944e-61
2.4164842e-61
2.4164825e-61
2.4164825e-61
2.4164833e-61
2.4164869e-61
2.4164995e-61
2.4174217e-61
2.4167562e-61
2.4165468e-61
2.4164953e-61
2.416485e-61
2.4164834e-61
2.4164833e-61
2.4164841e-61
2.4164878e-61
2.4165004e-61
2.417423e-61
2.416759e-61
2.4165502e-61
2.4164989e-61
2.4164887e-61
2.416487e-61
2.4164869e-61
2.4164878e-61
2.4164914e-61
2.416504e-61
2.4174278e-61
2.4167698e-61
2.4165625e-61
2.4165114e-61
2.4165012e-61
2.4164996e-61
2.4164995e-61
2.4165004e-61
2.416504e-61
2.4165166e-61
2.2900096e-60
2.2894004e-60
2.2892084e-60
2.2891611e-60
2.2891517e-60
2.2891502e-60
2.28915e-60
2.2891503e-60
2.2891516e-60
2.2891559e-60
2.2894004e-60
2.2887915e-60
2.2885996e-60
2.2885524e-60
2.288543e-60
2.2885415e-60
2.2885414e-60
2.2885419e-60
2.2885446e-60
2.2885545e-60
2.2892084e-60
2.2885996e-60
2.2884078e-60
2.2883606e-60
2.2883512e-60
2.2883497e-60
2.2883496e-60
2.2883503e-60
2.2883535e-60
2.2883648e-60
2.2891611e-60
2.2885524e-60
2.2883606e-60
2.2883133e-60
2.2883039e-60
2.2883024e-60
2.2883023e-60
2.2883031e-60
2.2883065e-60
2.288318e-60
2.2891517e-60
2.288543e-60
2.2883512e-60
2.2883039e-60
2.2882946e-60
2.288293e-60
2.288293e-60
2.2882937e-60
2.2882971e-60
2.2883087e-60
2.2891502e-60
2.2885415e-60
2.2883497e-60
2.2883024e-60
2.288293e-60
2.2882915e-60
2.2882914e-60
2.2882922e-60
2.2882956e-60
2.2883072e-60
2.28915e-60
2.2885414e-60
2.2883496e-60
2.2883023e-60
2.288293e-60
2.2882914e-60
2.2882914e-60
2.2882922e-60
2.2882955e-60
2.2883071e-60
2.2891503e-60
2.2885419e-60
2.2883503e-60
2.2883031e-60
2.2882937e-60
2.2882922e-60
2.2882922e-60
2.288293e-60
2.2882963e-60
2.2883079e-60
2.2891516e-60
2.2885446e-60
2.2883535e-60
2.2883065e-60
2.2882971e-60
2.2882956e-60
2.2882955e-60
2.2882963e-60
2.2882997e-60
2.2883113e-60
2.2891559e-60
2.2885545e-60
2.2883648e-60
2.288318e-60
2.2883087e-60
2.2883072e-60
2.2883071e-60
2.2883079e-60
2.2883113e-60
2.2883229e-60
2.2208931e-59
2.2203231e-59
2.2201433e-59
2.220099e-59
2.2200902e-59
2.2200887e-59
2.2200886e-59
2.2200888e-59
2.22009e-59
2.2200941e-59
2.2203231e-59
2.2197534e-59
2.2195737e-59
2.2195294e-59
2.2195206e-59
2.2195192e-59
2.2195191e-59
2.2195196e-59
2.2195221e-59
2.2195315e-59
2.2201433e-59
2.2195737e-59
2.219394e-59
2.2193497e-59
2.2193409e-59
2.2193395e-59
2.2193394e-59
2.2193401e-59
2.2193432e-59
2.2193538e-59
2.220099e-59
2.2195294e-59
2.2193497e-59
2.2193055e-59
2.2192967e-59
2.2192952e-59
2.2192952e-59
2.2192959e-59
2.2192991e-59
2.21931e-59
2.2200902e-59
2.2195206e-59
2.2193409e-59
2.2192967e-59
2.2192879e-59
2.2192864e-59
2.2192864e-59
2.2192871e-59
2.2192903e-59
2.2193013e-59
2.2200887e-59
2.2195192e-59
2.2193395e-59
2.2192952e-59
2.2192864e-59
2.219285e-59
2.2192849e-59
2.2192857e-59
2.2192889e-59
2.2192998e-59
2.2200886e-59
2.2195191e-59
2.2193394e-59
2.2192952e-59
2.2192864e-59
2.2192849e-59
2.2192849e-59
2.2192856e-59
2.2192889e-59
2.2192998e-59
2.2200888e-59
2.2195196e-59
2.2193401e-59
2.2192959e-59
2.2192871e-59
2.2192857e-59
2.2192856e-59
2.2192864e-59
2.2192896e-59
2.2193005e-59
2.22009e-59
2.2195221e-59
2.2193432e-59
2.2192991e-59
2.2192903e-59
2.2192889e-59
2.2192889e-59
2.2192896e-59
2.2192928e-59
2.2193038e-59
2.2200941e-59
2.2195315e-59
2.2193538e-59
2.21931e-59
2.2193013e-59
2.2192998e-59
2.2192998e-59
2.2193005e-59
2.2193038e-59
2.2193147e-59
2.2055284e-58
2.2049826e-58
2.2048103e-58
2.2047678e-58
2.2047593e-58
2.204758e-58
2.2047578e-58
2.2047581e-58
2.2047593e-58
2.2047631e-58
2.2049826e-58
2.2044372e-58
2.2042649e-58
2.2042225e-58
2.204214e-58
2.2042127e-58
2.2042126e-58
2.2042131e-58
2.2042155e-58
2.2042245e-58
2.2048103e-58
2.2042649e-58
2.2040927e-58
2.2040503e-58
2.2040418e-58
2.2040404e-58
2.2040404e-58
2.2040411e-58
2.204044e-58
2.2040543e-58
2.2047678e-58
2.2042225e-58
2.2040503e-58
2.2040078e-58
2.2039994e-58
2.203998e-58
2.2039979e-58
2.2039987e-58
2.2040018e-58
2.2040123e-58
2.2047593e-58
2.204214e-58
2.2040418e-58
2.2039994e-58
2.2039909e-58
2.2039896e-58
2.2039895e-58
2.2039902e-58
2.2039934e-58
2.2040039e-58
2.204758e-58
2.2042127e-58
2.2040404e-58
2.203998e-58
2.2039896e-58
2.2039882e-58
2.2039881e-58
2.2039889e-58
2.203992e-58
2.2040026e-58
2.2047578e-58
2.2042126e-58
2.2040404e-58
2.2039979e-58
2.2039895e-58
2.2039881e-58
2.2039881e-58
2.2039888e-58
2.203992e-58
2.2040025e-58
2.2047581e-58
2.2042131e-58
2.2040411e-58
2.2039987e-58
2.2039902e-58
2.2039889e-58
2.2039888e-58
2.2039896e-58
2.2039927e-58
2.2040033e-58
2.2047593e-58
2.2042155e-58
2.204044e-58
2.2040018e-58
2.2039934e-58
2.203992e-58
2.203992e-58
2.2039927e-58
2.2039958e-58
2.2040064e-58
2.2047631e-58
2.2042245e-58
2.2040543e-58
2.2040123e-58
2.2040039e-58
2.2040026e-58
2.2040025e-58
2.2040033e-58
2.2040064e-58
2.204017e-58
2.2423612e-57
2.2418267e-57
2.2416577e-57
2.241616e-57
2.2416077e-57
2.2416064e-57
2.2416062e-57
2.2416065e-57
2.2416076e-57
2.2416114e-57
2.2418267e-57
2.2412924e-57
2.2411235e-57
2.2410819e-57
2.2410736e-57
2.2410722e-57
2.2410722e-57
2.2410727e-57
2.2410751e-57
2.241084e-57
2.2416577e-57
2.2411235e-57
2.2409546e-57
2.240913e-57
2.2409047e-57
2.2409034e-57
2.2409033e-57
2.240904e-57
2.2409069e-57
2.2409171e-57
2.241616e-57
2.2410819e-57
2.240913e-57
2.2408714e-57
2.2408631e-57
2.2408617e-57
2.2408617e-57
2.2408624e-57
2.2408655e-57
2.2408759e-57
2.2416077e-57
2.2410736e-57
2.2409047e-57
2.2408631e-57
2.2408548e-57
2.2408535e-57
2.2408534e-57
2.2408541e-57
2.2408572e-57
2.2408677e-57
2.2416064e-57
2.2410722e-57
2.2409034e-57
2.2408617e-57
2.2408535e-57
2.2408521e-57
2.2408521e-57
2.2408528e-57
2.2408559e-57
2.2408664e-57
2.2416062e-57
2.2410722e-57
2.2409033e-57
2.2408617e-57
2.2408534e-57
2.2408521e-57
2.240852e-57
2.2408528e-57
2.2408559e-57
2.2408663e-57
2.2416065e-57
2.2410727e-57
2.240904e-57
2.2408624e-57
2.2408541e-57
2.2408528e-57
2.2408528e-57
2.2408535e-57
2.2408566e-57
2.2408671e-57
2.2416076e-57
2.2410751e-57
2.2409069e-57
2.2408655e-57
2.2408572e-57
2.2408559e-57
2.2408559e-57
2.2408566e-57
2.2408597e-57
2.2408702e-57
2.2416114e-57
2.241084e-57
2.2409171e-57
2.2408759e-57
2.2408677e-57
2.2408664e-57
2.2408663e-57
2.2408671e-57
2.2408702e-57
2.2408807e-57
2.3335244e-56
2.3329888e-56
2.3328193e-56
2.3327775e-56
2.3327692e-56
2.3327679e-56
2.3327677e-56
2.332768e-56
2.3327692e-56
2.3327729e-56
2.3329888e-56
2.3324536e-56
2.3322842e-56
2.3322424e-56
2.3322341e-56
2.3322328e-56
2.3322327e-56
2.3322332e-56
2.3322357e-56
2.3322447e-56
2.3328193e-56
2.3322842e-56
2.3321149e-56
2.3320731e-56
2.3320648e-56
2.3320634e-56
2.3320634e-56
2.3320641e-56
2.3320671e-56
2.3320773e-56
2.3327775e-56
2.3322424e-56
2.3320731e-56
2.3320313e-56
2.332023e-56
2.3320216e-56
2.3320216e-56
2.3320223e-56
2.3320255e-56
2.332036e-56
2.3327692e-56
2.3322341e-56
2.3320648e-56
2.332023e-56
2.3320147e-56
2.3320133e-56
2.3320133e-56
2.332014e-56
2.3320172e-56
2.3320278e-56
2.3327679e-56
2.3322328e-56
2.3320634e-56
2.3320216e-56
2.3320133e-56
2.332012e-56
2.332012e-56
2.3320127e-56
2.3320159e-56
2.3320265e-56
2.3327677e-56
2.3322327e-56
2.3320634e-56
2.3320216e-56
2.3320133e-56
2.332012e-56
2.3320119e-56
2.3320127e-56
2.3320158e-56
2.3320264e-56
2.332768e-56
2.3322332e-56
2.3320641e-56
2.3320223e-56
2.332014e-56
2.3320127e-56
2.3320127e-56
2.3320134e-56
2.3320166e-56
2.3320272e-56
2.3327692e-56
2.3322357e-56
2.3320671e-56
2.3320255e-56
2.3320172e-56
2.3320159e-56
2.3320158e-56
2.3320166e-56
2.3320197e-56
2.3320304e-56
2.3327729e-56
2.3322447e-56
2.3320773e-56
2.332036e-56
2.3320278e-56
2.3320265e-56
2.3320264e-56
2.3320272e-56
2.3320304e-56
2.332041e-56
2.4850273e-55