/*--------------------------------*- C++ -*----------------------------------*\
| =========                 |                                                 |
| \\      /  F ield         | OpenFOAM: The Open Source CFD Toolbox           |
|  \\    /   O peration     | Version:  dev                                   |
|   \\  /    A nd           | Web:      www.OpenFOAM.org                      |
|    \\/     M anipulation  |                                                 |
\*---------------------------------------------------------------------------*/
FoamFile
{
    version     2.0;
    format      ascii;
    class       volScalarField;
    location    "34";
    object      A;
}
// * * * * * * * * * * * * * * * * * * * * * * * * * * * * * * * * * * * * * //

dimensions      [0 0 0 0 1 0 0];

internalField   nonuniform List<scalar> 
10000
(
4.6873694e-41
4.6871269e-41
4.6870023e-41
4.6869387e-41
4.6869082e-41
4.6868952e-41
4.6868909e-41
4.686892e-41
4.686899e-41
4.686918e-41
4.6871269e-41
4.6868845e-41
4.68676e-41
4.6866964e-41
4.6866659e-41
4.6866529e-41
4.6866488e-41
4.6866503e-41
4.6866584e-41
4.6866809e-41
4.6870023e-41
4.68676e-41
4.6866355e-41
4.6865719e-41
4.6865415e-41
4.6865285e-41
4.6865246e-41
4.6865265e-41
4.6865354e-41
4.686559e-41
4.6869387e-41
4.6866964e-41
4.6865719e-41
4.6865083e-41
4.6864779e-41
4.686465e-41
4.6864613e-41
4.6864634e-41
4.6864726e-41
4.6864967e-41
4.6869082e-41
4.6866659e-41
4.6865415e-41
4.6864779e-41
4.6864476e-41
4.6864347e-41
4.686431e-41
4.6864333e-41
4.6864427e-41
4.6864669e-41
4.6868952e-41
4.6866529e-41
4.6865285e-41
4.686465e-41
4.6864347e-41
4.6864219e-41
4.6864183e-41
4.6864206e-41
4.68643e-41
4.6864543e-41
4.6868909e-41
4.6866488e-41
4.6865246e-41
4.6864613e-41
4.686431e-41
4.6864183e-41
4.6864147e-41
4.686417e-41
4.6864265e-41
4.6864508e-41
4.686892e-41
4.6866503e-41
4.6865265e-41
4.6864634e-41
4.6864333e-41
4.6864206e-41
4.686417e-41
4.6864193e-41
4.6864288e-41
4.6864531e-41
4.686899e-41
4.6866584e-41
4.6865354e-41
4.6864726e-41
4.6864427e-41
4.68643e-41
4.6864265e-41
4.6864288e-41
4.6864384e-41
4.6864627e-41
4.686918e-41
4.6866809e-41
4.686559e-41
4.6864967e-41
4.6864669e-41
4.6864543e-41
4.6864508e-41
4.6864531e-41
4.6864627e-41
4.686487e-41
1.881488e-40
1.8813938e-40
1.8813446e-40
1.8813193e-40
1.8813073e-40
1.8813021e-40
1.8813004e-40
1.8813008e-40
1.8813036e-40
1.8813114e-40
1.8813938e-40
1.8812997e-40
1.8812504e-40
1.8812252e-40
1.8812132e-40
1.881208e-40
1.8812064e-40
1.881207e-40
1.8812102e-40
1.8812194e-40
1.8813446e-40
1.8812504e-40
1.8812012e-40
1.881176e-40
1.8811639e-40
1.8811588e-40
1.8811573e-40
1.881158e-40
1.8811615e-40
1.8811711e-40
1.8813193e-40
1.8812252e-40
1.881176e-40
1.8811508e-40
1.8811387e-40
1.8811336e-40
1.8811321e-40
1.881133e-40
1.8811366e-40
1.8811464e-40
1.8813073e-40
1.8812132e-40
1.8811639e-40
1.8811387e-40
1.8811267e-40
1.8811216e-40
1.8811202e-40
1.881121e-40
1.8811248e-40
1.8811346e-40
1.8813021e-40
1.881208e-40
1.8811588e-40
1.8811336e-40
1.8811216e-40
1.8811165e-40
1.8811151e-40
1.881116e-40
1.8811197e-40
1.8811296e-40
1.8813004e-40
1.8812064e-40
1.8811573e-40
1.8811321e-40
1.8811202e-40
1.8811151e-40
1.8811137e-40
1.8811146e-40
1.8811183e-40
1.8811282e-40
1.8813008e-40
1.881207e-40
1.881158e-40
1.881133e-40
1.881121e-40
1.881116e-40
1.8811146e-40
1.8811155e-40
1.8811193e-40
1.8811292e-40
1.8813036e-40
1.8812102e-40
1.8811615e-40
1.8811366e-40
1.8811248e-40
1.8811197e-40
1.8811183e-40
1.8811193e-40
1.881123e-40
1.8811329e-40
1.8813114e-40
1.8812194e-40
1.8811711e-40
1.8811464e-40
1.8811346e-40
1.8811296e-40
1.8811282e-40
1.8811292e-40
1.8811329e-40
1.8811429e-40
5.2679171e-40
5.2676614e-40
5.2675265e-40
5.2674573e-40
5.2674241e-40
5.2674098e-40
5.2674052e-40
5.2674064e-40
5.2674138e-40
5.2674353e-40
5.2676614e-40
5.2674057e-40
5.2672708e-40
5.2672016e-40
5.2671685e-40
5.2671543e-40
5.2671499e-40
5.2671515e-40
5.2671602e-40
5.2671855e-40
5.2675265e-40
5.2672708e-40
5.267136e-40
5.2670669e-40
5.2670337e-40
5.2670196e-40
5.2670154e-40
5.2670174e-40
5.267027e-40
5.2670536e-40
5.2674573e-40
5.2672016e-40
5.2670669e-40
5.2669977e-40
5.2669646e-40
5.2669506e-40
5.2669465e-40
5.2669488e-40
5.2669587e-40
5.2669858e-40
5.2674241e-40
5.2671685e-40
5.2670337e-40
5.2669646e-40
5.2669316e-40
5.2669176e-40
5.2669136e-40
5.266916e-40
5.2669262e-40
5.2669534e-40
5.2674098e-40
5.2671543e-40
5.2670196e-40
5.2669506e-40
5.2669176e-40
5.2669037e-40
5.2668997e-40
5.2669022e-40
5.2669124e-40
5.2669397e-40
5.2674052e-40
5.2671499e-40
5.2670154e-40
5.2669465e-40
5.2669136e-40
5.2668997e-40
5.2668958e-40
5.2668983e-40
5.2669085e-40
5.2669358e-40
5.2674064e-40
5.2671515e-40
5.2670174e-40
5.2669488e-40
5.266916e-40
5.2669022e-40
5.2668983e-40
5.2669008e-40
5.2669111e-40
5.2669384e-40
5.2674138e-40
5.2671602e-40
5.267027e-40
5.2669587e-40
5.2669262e-40
5.2669124e-40
5.2669085e-40
5.2669111e-40
5.2669214e-40
5.2669487e-40
5.2674353e-40
5.2671855e-40
5.2670536e-40
5.2669858e-40
5.2669534e-40
5.2669397e-40
5.2669358e-40
5.2669384e-40
5.2669487e-40
5.266976e-40
1.4370815e-39
1.4370138e-39
1.4369779e-39
1.4369595e-39
1.4369506e-39
1.4369468e-39
1.4369456e-39
1.4369459e-39
1.4369479e-39
1.4369535e-39
1.4370138e-39
1.4369462e-39
1.4369103e-39
1.4368919e-39
1.436883e-39
1.4368793e-39
1.4368781e-39
1.4368785e-39
1.4368808e-39
1.4368874e-39
1.4369779e-39
1.4369103e-39
1.4368745e-39
1.436856e-39
1.4368472e-39
1.4368434e-39
1.4368423e-39
1.4368429e-39
1.4368454e-39
1.4368523e-39
1.4369595e-39
1.4368919e-39
1.436856e-39
1.4368376e-39
1.4368288e-39
1.436825e-39
1.4368239e-39
1.4368246e-39
1.4368272e-39
1.4368343e-39
1.4369506e-39
1.436883e-39
1.4368472e-39
1.4368288e-39
1.43682e-39
1.4368162e-39
1.4368152e-39
1.4368158e-39
1.4368185e-39
1.4368256e-39
1.4369468e-39
1.4368793e-39
1.4368434e-39
1.436825e-39
1.4368162e-39
1.4368125e-39
1.4368115e-39
1.4368121e-39
1.4368148e-39
1.436822e-39
1.4369456e-39
1.4368781e-39
1.4368423e-39
1.4368239e-39
1.4368152e-39
1.4368115e-39
1.4368104e-39
1.4368111e-39
1.4368138e-39
1.436821e-39
1.4369459e-39
1.4368785e-39
1.4368429e-39
1.4368246e-39
1.4368158e-39
1.4368121e-39
1.4368111e-39
1.4368118e-39
1.4368145e-39
1.4368217e-39
1.4369479e-39
1.4368808e-39
1.4368454e-39
1.4368272e-39
1.4368185e-39
1.4368148e-39
1.4368138e-39
1.4368145e-39
1.4368172e-39
1.4368244e-39
1.4369535e-39
1.4368874e-39
1.4368523e-39
1.4368343e-39
1.4368256e-39
1.436822e-39
1.436821e-39
1.4368217e-39
1.4368244e-39
1.4368315e-39
3.9619201e-39
3.9617393e-39
3.9616431e-39
3.9615934e-39
3.9615696e-39
3.9615593e-39
3.961556e-39
3.9615568e-39
3.961562e-39
3.9615766e-39
3.9617393e-39
3.9615586e-39
3.9614624e-39
3.9614128e-39
3.9613889e-39
3.9613787e-39
3.9613756e-39
3.9613767e-39
3.9613828e-39
3.9614002e-39
3.9616431e-39
3.9614624e-39
3.9613662e-39
3.9613165e-39
3.9612927e-39
3.9612826e-39
3.9612796e-39
3.961281e-39
3.9612877e-39
3.9613061e-39
3.9615934e-39
3.9614128e-39
3.9613165e-39
3.9612669e-39
3.9612432e-39
3.9612331e-39
3.9612301e-39
3.9612318e-39
3.9612388e-39
3.9612575e-39
3.9615696e-39
3.9613889e-39
3.9612927e-39
3.9612432e-39
3.9612194e-39
3.9612094e-39
3.9612065e-39
3.9612082e-39
3.9612154e-39
3.9612342e-39
3.9615593e-39
3.9613787e-39
3.9612826e-39
3.9612331e-39
3.9612094e-39
3.9611993e-39
3.9611965e-39
3.9611983e-39
3.9612055e-39
3.9612244e-39
3.961556e-39
3.9613756e-39
3.9612796e-39
3.9612301e-39
3.9612065e-39
3.9611965e-39
3.9611937e-39
3.9611955e-39
3.9612027e-39
3.9612216e-39
3.9615568e-39
3.9613767e-39
3.961281e-39
3.9612318e-39
3.9612082e-39
3.9611983e-39
3.9611955e-39
3.9611973e-39
3.9612046e-39
3.9612235e-39
3.961562e-39
3.9613828e-39
3.9612877e-39
3.9612388e-39
3.9612154e-39
3.9612055e-39
3.9612027e-39
3.9612046e-39
3.9612118e-39
3.9612308e-39
3.9615766e-39
3.9614002e-39
3.9613061e-39
3.9612575e-39
3.9612342e-39
3.9612244e-39
3.9612216e-39
3.9612235e-39
3.9612308e-39
3.9612497e-39
1.1094041e-38
1.109355e-38
1.1093288e-38
1.1093152e-38
1.1093087e-38
1.1093059e-38
1.109305e-38
1.1093052e-38
1.1093066e-38
1.1093105e-38
1.109355e-38
1.109306e-38
1.1092798e-38
1.1092662e-38
1.1092597e-38
1.1092569e-38
1.1092561e-38
1.1092564e-38
1.109258e-38
1.1092627e-38
1.1093288e-38
1.1092798e-38
1.1092536e-38
1.10924e-38
1.1092335e-38
1.1092307e-38
1.1092299e-38
1.1092303e-38
1.1092321e-38
1.109237e-38
1.1093152e-38
1.1092662e-38
1.10924e-38
1.1092265e-38
1.10922e-38
1.1092172e-38
1.1092164e-38
1.1092169e-38
1.1092188e-38
1.1092238e-38
1.1093087e-38
1.1092597e-38
1.1092335e-38
1.10922e-38
1.1092135e-38
1.1092107e-38
1.1092099e-38
1.1092104e-38
1.1092124e-38
1.1092174e-38
1.1093059e-38
1.1092569e-38
1.1092307e-38
1.1092172e-38
1.1092107e-38
1.109208e-38
1.1092072e-38
1.1092077e-38
1.1092097e-38
1.1092147e-38
1.109305e-38
1.1092561e-38
1.1092299e-38
1.1092164e-38
1.1092099e-38
1.1092072e-38
1.1092064e-38
1.1092069e-38
1.1092089e-38
1.109214e-38
1.1093052e-38
1.1092564e-38
1.1092303e-38
1.1092169e-38
1.1092104e-38
1.1092077e-38
1.1092069e-38
1.1092074e-38
1.1092094e-38
1.1092145e-38
1.1093066e-38
1.109258e-38
1.1092321e-38
1.1092188e-38
1.1092124e-38
1.1092097e-38
1.1092089e-38
1.1092094e-38
1.1092114e-38
1.1092164e-38
1.1093105e-38
1.1092627e-38
1.109237e-38
1.1092238e-38
1.1092174e-38
1.1092147e-38
1.109214e-38
1.1092145e-38
1.1092164e-38
1.1092215e-38
3.1575788e-38
3.1574436e-38
3.157371e-38
3.1573334e-38
3.1573152e-38
3.1573075e-38
3.1573049e-38
3.1573055e-38
3.1573093e-38
3.1573198e-38
3.1574436e-38
3.1573085e-38
3.1572359e-38
3.1571983e-38
3.1571802e-38
3.1571724e-38
3.15717e-38
3.1571709e-38
3.1571754e-38
3.157188e-38
3.157371e-38
3.1572359e-38
3.1571633e-38
3.1571257e-38
3.1571076e-38
3.1570999e-38
3.1570976e-38
3.1570987e-38
3.1571037e-38
3.1571171e-38
3.1573334e-38
3.1571983e-38
3.1571257e-38
3.1570881e-38
3.15707e-38
3.1570624e-38
3.1570601e-38
3.1570614e-38
3.1570666e-38
3.1570803e-38
3.1573152e-38
3.1571802e-38
3.1571076e-38
3.15707e-38
3.157052e-38
3.1570444e-38
3.1570422e-38
3.1570435e-38
3.1570489e-38
3.1570626e-38
3.1573075e-38
3.1571724e-38
3.1570999e-38
3.1570624e-38
3.1570444e-38
3.1570367e-38
3.1570346e-38
3.157036e-38
3.1570413e-38
3.1570551e-38
3.1573049e-38
3.15717e-38
3.1570976e-38
3.1570601e-38
3.1570422e-38
3.1570346e-38
3.1570325e-38
3.1570338e-38
3.1570393e-38
3.157053e-38
3.1573055e-38
3.1571709e-38
3.1570987e-38
3.1570614e-38
3.1570435e-38
3.157036e-38
3.1570338e-38
3.1570352e-38
3.1570407e-38
3.1570544e-38
3.1573093e-38
3.1571754e-38
3.1571037e-38
3.1570666e-38
3.1570489e-38
3.1570413e-38
3.1570393e-38
3.1570407e-38
3.1570461e-38
3.1570599e-38
3.1573198e-38
3.157188e-38
3.1571171e-38
3.1570803e-38
3.1570626e-38
3.1570551e-38
3.157053e-38
3.1570544e-38
3.1570599e-38
3.1570737e-38
9.1362379e-38
9.1358593e-38
9.135655e-38
9.1355489e-38
9.1354978e-38
9.1354757e-38
9.1354687e-38
9.1354703e-38
9.1354809e-38
9.1355095e-38
9.1358593e-38
9.1354809e-38
9.1352766e-38
9.1351705e-38
9.1351195e-38
9.1350976e-38
9.1350907e-38
9.1350932e-38
9.1351058e-38
9.1351407e-38
9.135655e-38
9.1352766e-38
9.1350723e-38
9.1349663e-38
9.1349153e-38
9.1348935e-38
9.134887e-38
9.1348901e-38
9.1349041e-38
9.1349411e-38
9.1355489e-38
9.1351705e-38
9.1349663e-38
9.1348603e-38
9.1348094e-38
9.1347877e-38
9.1347814e-38
9.134785e-38
9.1347997e-38
9.1348373e-38
9.1354978e-38
9.1351195e-38
9.1349153e-38
9.1348094e-38
9.1347585e-38
9.1347369e-38
9.1347308e-38
9.1347345e-38
9.1347495e-38
9.1347875e-38
9.1354757e-38
9.1350976e-38
9.1348935e-38
9.1347877e-38
9.1347369e-38
9.1347154e-38
9.1347093e-38
9.1347132e-38
9.1347283e-38
9.1347664e-38
9.1354687e-38
9.1350907e-38
9.134887e-38
9.1347814e-38
9.1347308e-38
9.1347093e-38
9.1347033e-38
9.1347072e-38
9.1347224e-38
9.1347605e-38
9.1354703e-38
9.1350932e-38
9.1348901e-38
9.134785e-38
9.1347345e-38
9.1347132e-38
9.1347072e-38
9.1347112e-38
9.1347264e-38
9.1347645e-38
9.1354809e-38
9.1351058e-38
9.1349041e-38
9.1347997e-38
9.1347495e-38
9.1347283e-38
9.1347224e-38
9.1347264e-38
9.1347416e-38
9.1347798e-38
9.1355095e-38
9.1351407e-38
9.1349411e-38
9.1348373e-38
9.1347875e-38
9.1347664e-38
9.1347605e-38
9.1347645e-38
9.1347798e-38
9.1348179e-38
2.6875829e-37
2.6874752e-37
2.6874168e-37
2.6873864e-37
2.6873717e-37
2.6873654e-37
2.6873634e-37
2.6873639e-37
2.6873668e-37
2.6873748e-37
2.6874752e-37
2.6873675e-37
2.6873091e-37
2.6872787e-37
2.687264e-37
2.6872578e-37
2.6872558e-37
2.6872565e-37
2.6872601e-37
2.6872699e-37
2.6874168e-37
2.6873091e-37
2.6872507e-37
2.6872203e-37
2.6872057e-37
2.6871994e-37
2.6871976e-37
2.6871985e-37
2.6872025e-37
2.6872128e-37
2.6873864e-37
2.6872787e-37
2.6872203e-37
2.68719e-37
2.6871753e-37
2.6871691e-37
2.6871673e-37
2.6871683e-37
2.6871725e-37
2.6871831e-37
2.6873717e-37
2.687264e-37
2.6872057e-37
2.6871753e-37
2.6871607e-37
2.6871545e-37
2.6871528e-37
2.6871539e-37
2.6871581e-37
2.6871688e-37
2.6873654e-37
2.6872578e-37
2.6871994e-37
2.6871691e-37
2.6871545e-37
2.6871484e-37
2.6871466e-37
2.6871478e-37
2.6871521e-37
2.6871628e-37
2.6873634e-37
2.6872558e-37
2.6871976e-37
2.6871673e-37
2.6871528e-37
2.6871466e-37
2.6871449e-37
2.6871461e-37
2.6871504e-37
2.6871611e-37
2.6873639e-37
2.6872565e-37
2.6871985e-37
2.6871683e-37
2.6871539e-37
2.6871478e-37
2.6871461e-37
2.6871472e-37
2.6871515e-37
2.6871623e-37
2.6873668e-37
2.6872601e-37
2.6872025e-37
2.6871725e-37
2.6871581e-37
2.6871521e-37
2.6871504e-37
2.6871515e-37
2.6871559e-37
2.6871666e-37
2.6873748e-37
2.6872699e-37
2.6872128e-37
2.6871831e-37
2.6871688e-37
2.6871628e-37
2.6871611e-37
2.6871623e-37
2.6871666e-37
2.6871773e-37
8.0382621e-37
8.0379504e-37
8.0377807e-37
8.0376922e-37
8.0376495e-37
8.0376311e-37
8.0376252e-37
8.0376265e-37
8.0376351e-37
8.0376577e-37
8.0379504e-37
8.0376388e-37
8.0374691e-37
8.0373807e-37
8.037338e-37
8.0373197e-37
8.037314e-37
8.037316e-37
8.0373264e-37
8.0373543e-37
8.0377807e-37
8.0374691e-37
8.0372995e-37
8.0372111e-37
8.0371685e-37
8.0371503e-37
8.0371448e-37
8.0371474e-37
8.037159e-37
8.0371886e-37
8.0376922e-37
8.0373807e-37
8.0372111e-37
8.0371227e-37
8.0370801e-37
8.037062e-37
8.0370568e-37
8.0370598e-37
8.0370719e-37
8.0371022e-37
8.0376495e-37
8.037338e-37
8.0371685e-37
8.0370801e-37
8.0370376e-37
8.0370195e-37
8.0370144e-37
8.0370176e-37
8.03703e-37
8.0370605e-37
8.0376311e-37
8.0373197e-37
8.0371503e-37
8.037062e-37
8.0370195e-37
8.0370016e-37
8.0369965e-37
8.0369998e-37
8.0370123e-37
8.0370429e-37
8.0376252e-37
8.037314e-37
8.0371448e-37
8.0370568e-37
8.0370144e-37
8.0369965e-37
8.0369915e-37
8.0369948e-37
8.0370074e-37
8.037038e-37
8.0376265e-37
8.037316e-37
8.0371474e-37
8.0370598e-37
8.0370176e-37
8.0369998e-37
8.0369948e-37
8.0369982e-37
8.0370108e-37
8.0370414e-37
8.0376351e-37
8.0373264e-37
8.037159e-37
8.0370719e-37
8.03703e-37
8.0370123e-37
8.0370074e-37
8.0370108e-37
8.0370233e-37
8.037054e-37
8.0376577e-37
8.0373543e-37
8.0371886e-37
8.0371022e-37
8.0370605e-37
8.0370429e-37
8.037038e-37
8.0370414e-37
8.037054e-37
8.0370847e-37
2.444489e-36
2.4443973e-36
2.4443472e-36
2.4443211e-36
2.4443084e-36
2.444303e-36
2.4443012e-36
2.4443016e-36
2.4443041e-36
2.4443106e-36
2.4443973e-36
2.4443057e-36
2.4442556e-36
2.4442295e-36
2.4442168e-36
2.4442114e-36
2.4442097e-36
2.4442103e-36
2.4442134e-36
2.4442215e-36
2.4443472e-36
2.4442556e-36
2.4442056e-36
2.4441794e-36
2.4441668e-36
2.4441614e-36
2.4441598e-36
2.4441606e-36
2.444164e-36
2.4441726e-36
2.4443211e-36
2.4442295e-36
2.4441794e-36
2.4441533e-36
2.4441406e-36
2.4441353e-36
2.4441337e-36
2.4441346e-36
2.4441382e-36
2.444147e-36
2.4443084e-36
2.4442168e-36
2.4441668e-36
2.4441406e-36
2.444128e-36
2.4441227e-36
2.4441212e-36
2.4441221e-36
2.4441258e-36
2.4441347e-36
2.444303e-36
2.4442114e-36
2.4441614e-36
2.4441353e-36
2.4441227e-36
2.4441174e-36
2.4441159e-36
2.4441169e-36
2.4441205e-36
2.4441295e-36
2.4443012e-36
2.4442097e-36
2.4441598e-36
2.4441337e-36
2.4441212e-36
2.4441159e-36
2.4441144e-36
2.4441154e-36
2.4441191e-36
2.444128e-36
2.4443016e-36
2.4442103e-36
2.4441606e-36
2.4441346e-36
2.4441221e-36
2.4441169e-36
2.4441154e-36
2.4441164e-36
2.4441201e-36
2.444129e-36
2.4443041e-36
2.4442134e-36
2.444164e-36
2.4441382e-36
2.4441258e-36
2.4441205e-36
2.4441191e-36
2.4441201e-36
2.4441238e-36
2.4441327e-36
2.4443106e-36
2.4442215e-36
2.4441726e-36
2.444147e-36
2.4441347e-36
2.4441295e-36
2.444128e-36
2.444129e-36
2.4441327e-36
2.4441417e-36
7.5588364e-36
7.5585625e-36
7.5584122e-36
7.5583335e-36
7.5582955e-36
7.558279e-36
7.5582738e-36
7.558275e-36
7.5582825e-36
7.5583014e-36
7.5585625e-36
7.5582888e-36
7.5581385e-36
7.5580599e-36
7.5580218e-36
7.5580055e-36
7.5580004e-36
7.5580022e-36
7.5580113e-36
7.5580352e-36
7.5584122e-36
7.5581385e-36
7.5579883e-36
7.5579096e-36
7.5578716e-36
7.5578554e-36
7.5578506e-36
7.557853e-36
7.5578631e-36
7.5578886e-36
7.5583335e-36
7.5580599e-36
7.5579096e-36
7.557831e-36
7.5577931e-36
7.5577769e-36
7.5577723e-36
7.557775e-36
7.5577857e-36
7.5578118e-36
7.5582955e-36
7.5580218e-36
7.5578716e-36
7.5577931e-36
7.5577552e-36
7.5577391e-36
7.5577346e-36
7.5577374e-36
7.5577484e-36
7.5577747e-36
7.558279e-36
7.5580055e-36
7.5578554e-36
7.5577769e-36
7.5577391e-36
7.5577231e-36
7.5577186e-36
7.5577216e-36
7.5577326e-36
7.557759e-36
7.5582738e-36
7.5580004e-36
7.5578506e-36
7.5577723e-36
7.5577346e-36
7.5577186e-36
7.5577142e-36
7.5577172e-36
7.5577283e-36
7.5577547e-36
7.558275e-36
7.5580022e-36
7.557853e-36
7.557775e-36
7.5577374e-36
7.5577216e-36
7.5577172e-36
7.5577202e-36
7.5577313e-36
7.5577577e-36
7.5582825e-36
7.5580113e-36
7.5578631e-36
7.5577857e-36
7.5577484e-36
7.5577326e-36
7.5577283e-36
7.5577313e-36
7.5577424e-36
7.5577689e-36
7.5583014e-36
7.5580352e-36
7.5578886e-36
7.5578118e-36
7.5577747e-36
7.557759e-36
7.5577547e-36
7.5577577e-36
7.5577689e-36
7.5577953e-36
2.3766944e-35
2.3766113e-35
2.3765654e-35
2.3765414e-35
2.3765298e-35
2.3765247e-35
2.3765231e-35
2.3765235e-35
2.3765258e-35
2.3765314e-35
2.3766113e-35
2.3765281e-35
2.3764823e-35
2.3764583e-35
2.3764466e-35
2.3764417e-35
2.3764401e-35
2.3764407e-35
2.3764434e-35
2.3764506e-35
2.3765654e-35
2.3764823e-35
2.3764365e-35
2.3764125e-35
2.3764009e-35
2.3763959e-35
2.3763944e-35
2.3763952e-35
2.3763982e-35
2.3764059e-35
2.3765414e-35
2.3764583e-35
2.3764125e-35
2.3763885e-35
2.3763769e-35
2.3763719e-35
2.3763705e-35
2.3763713e-35
2.3763746e-35
2.3763825e-35
2.3765298e-35
2.3764466e-35
2.3764009e-35
2.3763769e-35
2.3763653e-35
2.3763604e-35
2.376359e-35
2.3763599e-35
2.3763632e-35
2.3763711e-35
2.3765247e-35
2.3764417e-35
2.3763959e-35
2.3763719e-35
2.3763604e-35
2.3763555e-35
2.3763541e-35
2.376355e-35
2.3763584e-35
2.3763663e-35
2.3765231e-35
2.3764401e-35
2.3763944e-35
2.3763705e-35
2.376359e-35
2.3763541e-35
2.3763528e-35
2.3763537e-35
2.376357e-35
2.376365e-35
2.3765235e-35
2.3764407e-35
2.3763952e-35
2.3763713e-35
2.3763599e-35
2.376355e-35
2.3763537e-35
2.3763546e-35
2.376358e-35
2.3763659e-35
2.3765258e-35
2.3764434e-35
2.3763982e-35
2.3763746e-35
2.3763632e-35
2.3763584e-35
2.376357e-35
2.376358e-35
2.3763614e-35
2.3763693e-35
2.3765314e-35
2.3764506e-35
2.3764059e-35
2.3763825e-35
2.3763711e-35
2.3763663e-35
2.376365e-35
2.3763659e-35
2.3763693e-35
2.3763773e-35
7.5988692e-35
7.5986124e-35
7.5984704e-35
7.5983958e-35
7.5983596e-35
7.598344e-35
7.598339e-35
7.5983402e-35
7.5983471e-35
7.5983642e-35
7.5986124e-35
7.5983558e-35
7.5982138e-35
7.5981392e-35
7.5981031e-35
7.5980875e-35
7.5980828e-35
7.5980845e-35
7.598093e-35
7.5981149e-35
7.5984704e-35
7.5982138e-35
7.5980719e-35
7.5979973e-35
7.5979612e-35
7.5979458e-35
7.5979412e-35
7.5979435e-35
7.5979531e-35
7.5979765e-35
7.5983958e-35
7.5981392e-35
7.5979973e-35
7.5979228e-35
7.5978867e-35
7.5978714e-35
7.597867e-35
7.5978696e-35
7.5978797e-35
7.5979037e-35
7.5983596e-35
7.5981031e-35
7.5979612e-35
7.5978867e-35
7.5978507e-35
7.5978354e-35
7.5978311e-35
7.5978339e-35
7.5978442e-35
7.5978685e-35
7.598344e-35
7.5980875e-35
7.5979458e-35
7.5978714e-35
7.5978354e-35
7.5978202e-35
7.597816e-35
7.5978188e-35
7.5978292e-35
7.5978536e-35
7.598339e-35
7.5980828e-35
7.5979412e-35
7.597867e-35
7.5978311e-35
7.597816e-35
7.5978118e-35
7.5978147e-35
7.5978252e-35
7.5978495e-35
7.5983402e-35
7.5980845e-35
7.5979435e-35
7.5978696e-35
7.5978339e-35
7.5978188e-35
7.5978147e-35
7.5978176e-35
7.5978281e-35
7.5978525e-35
7.5983471e-35
7.598093e-35
7.5979531e-35
7.5978797e-35
7.5978442e-35
7.5978292e-35
7.5978252e-35
7.5978281e-35
7.5978386e-35
7.597863e-35
7.5983642e-35
7.5981149e-35
7.5979765e-35
7.5979037e-35
7.5978685e-35
7.5978536e-35
7.5978495e-35
7.5978525e-35
7.597863e-35
7.5978873e-35
2.4704853e-34
2.4704047e-34
2.47036e-34
2.4703365e-34
2.470325e-34
2.4703201e-34
2.4703185e-34
2.4703189e-34
2.4703211e-34
2.4703263e-34
2.4704047e-34
2.4703242e-34
2.4702795e-34
2.470256e-34
2.4702446e-34
2.4702397e-34
2.4702382e-34
2.4702387e-34
2.4702414e-34
2.4702482e-34
2.47036e-34
2.4702795e-34
2.4702348e-34
2.4702113e-34
2.4701999e-34
2.470195e-34
2.4701936e-34
2.4701943e-34
2.4701973e-34
2.4702046e-34
2.4703365e-34
2.470256e-34
2.4702113e-34
2.4701878e-34
2.4701764e-34
2.4701715e-34
2.4701702e-34
2.470171e-34
2.4701742e-34
2.4701817e-34
2.470325e-34
2.4702446e-34
2.4701999e-34
2.4701764e-34
2.470165e-34
2.4701602e-34
2.4701588e-34
2.4701597e-34
2.470163e-34
2.4701705e-34
2.4703201e-34
2.4702397e-34
2.470195e-34
2.4701715e-34
2.4701602e-34
2.4701554e-34
2.4701541e-34
2.470155e-34
2.4701583e-34
2.4701658e-34
2.4703185e-34
2.4702382e-34
2.4701936e-34
2.4701702e-34
2.4701588e-34
2.4701541e-34
2.4701528e-34
2.4701537e-34
2.470157e-34
2.4701646e-34
2.4703189e-34
2.4702387e-34
2.4701943e-34
2.470171e-34
2.4701597e-34
2.470155e-34
2.4701537e-34
2.4701546e-34
2.4701579e-34
2.4701655e-34
2.4703211e-34
2.4702414e-34
2.4701973e-34
2.4701742e-34
2.470163e-34
2.4701583e-34
2.470157e-34
2.4701579e-34
2.4701612e-34
2.4701688e-34
2.4703263e-34
2.4702482e-34
2.4702046e-34
2.4701817e-34
2.4701705e-34
2.4701658e-34
2.4701646e-34
2.4701655e-34
2.4701688e-34
2.4701764e-34
8.1671076e-34
8.1668509e-34
8.1667078e-34
8.1666323e-34
8.1665956e-34
8.1665798e-34
8.1665747e-34
8.1665759e-34
8.1665828e-34
8.1665993e-34
8.1668509e-34
8.1665942e-34
8.1664512e-34
8.1663757e-34
8.166339e-34
8.1663233e-34
8.1663185e-34
8.1663203e-34
8.1663288e-34
8.1663503e-34
8.1667078e-34
8.1664512e-34
8.1663081e-34
8.1662327e-34
8.1661961e-34
8.1661805e-34
8.1661759e-34
8.1661782e-34
8.1661879e-34
8.166211e-34
8.1666323e-34
8.1663757e-34
8.1662327e-34
8.1661573e-34
8.1661207e-34
8.1661052e-34
8.1661008e-34
8.1661035e-34
8.1661137e-34
8.1661374e-34
8.1665956e-34
8.166339e-34
8.1661961e-34
8.1661207e-34
8.1660842e-34
8.1660688e-34
8.1660645e-34
8.1660673e-34
8.1660778e-34
8.1661017e-34
8.1665798e-34
8.1663233e-34
8.1661805e-34
8.1661052e-34
8.1660688e-34
8.1660534e-34
8.1660491e-34
8.1660521e-34
8.1660626e-34
8.1660866e-34
8.1665747e-34
8.1663185e-34
8.1661759e-34
8.1661008e-34
8.1660645e-34
8.1660491e-34
8.1660449e-34
8.1660479e-34
8.1660585e-34
8.1660825e-34
8.1665759e-34
8.1663203e-34
8.1661782e-34
8.1661035e-34
8.1660673e-34
8.1660521e-34
8.1660479e-34
8.1660509e-34
8.1660616e-34
8.1660856e-34
8.1665828e-34
8.1663288e-34
8.1661879e-34
8.1661137e-34
8.1660778e-34
8.1660626e-34
8.1660585e-34
8.1660616e-34
8.1660722e-34
8.1660962e-34
8.1665993e-34
8.1663503e-34
8.166211e-34
8.1661374e-34
8.1661017e-34
8.1660866e-34
8.1660825e-34
8.1660856e-34
8.1660962e-34
8.1661203e-34
2.745341e-33
2.7452578e-33
2.7452113e-33
2.7451867e-33
2.7451747e-33
2.7451696e-33
2.7451679e-33
2.7451683e-33
2.7451705e-33
2.7451758e-33
2.7452578e-33
2.7451746e-33
2.7451281e-33
2.7451035e-33
2.7450916e-33
2.7450865e-33
2.7450849e-33
2.7450855e-33
2.7450883e-33
2.7450951e-33
2.7452113e-33
2.7451281e-33
2.7450816e-33
2.745057e-33
2.7450451e-33
2.74504e-33
2.7450385e-33
2.7450393e-33
2.7450424e-33
2.7450499e-33
2.7451867e-33
2.7451035e-33
2.745057e-33
2.7450325e-33
2.7450206e-33
2.7450155e-33
2.7450141e-33
2.745015e-33
2.7450183e-33
2.7450259e-33
2.7451747e-33
2.7450916e-33
2.7450451e-33
2.7450206e-33
2.7450087e-33
2.7450036e-33
2.7450022e-33
2.7450032e-33
2.7450066e-33
2.7450143e-33
2.7451696e-33
2.7450865e-33
2.74504e-33
2.7450155e-33
2.7450036e-33
2.7449986e-33
2.7449972e-33
2.7449982e-33
2.7450016e-33
2.7450094e-33
2.7451679e-33
2.7450849e-33
2.7450385e-33
2.7450141e-33
2.7450022e-33
2.7449972e-33
2.7449959e-33
2.7449968e-33
2.7450003e-33
2.745008e-33
2.7451683e-33
2.7450855e-33
2.7450393e-33
2.745015e-33
2.7450032e-33
2.7449982e-33
2.7449968e-33
2.7449978e-33
2.7450013e-33
2.7450091e-33
2.7451705e-33
2.7450883e-33
2.7450424e-33
2.7450183e-33
2.7450066e-33
2.7450016e-33
2.7450003e-33
2.7450013e-33
2.7450048e-33
2.7450125e-33
2.7451758e-33
2.7450951e-33
2.7450499e-33
2.7450259e-33
2.7450143e-33
2.7450094e-33
2.745008e-33
2.7450091e-33
2.7450125e-33
2.7450203e-33
9.38317e-33
9.3828961e-33
9.3827424e-33
9.382661e-33
9.3826214e-33
9.3826043e-33
9.3825989e-33
9.3826002e-33
9.3826075e-33
9.3826244e-33
9.3828961e-33
9.3826224e-33
9.3824687e-33
9.3823873e-33
9.3823477e-33
9.3823307e-33
9.3823255e-33
9.3823275e-33
9.3823367e-33
9.3823592e-33
9.3827424e-33
9.3824687e-33
9.382315e-33
9.3822337e-33
9.3821942e-33
9.3821773e-33
9.3821724e-33
9.382175e-33
9.3821854e-33
9.3822097e-33
9.382661e-33
9.3823873e-33
9.3822337e-33
9.3821524e-33
9.3821129e-33
9.3820961e-33
9.3820914e-33
9.3820944e-33
9.3821054e-33
9.3821304e-33
9.3826214e-33
9.3823477e-33
9.3821942e-33
9.3821129e-33
9.3820735e-33
9.3820568e-33
9.3820522e-33
9.3820553e-33
9.3820666e-33
9.3820919e-33
9.3826043e-33
9.3823307e-33
9.3821773e-33
9.3820961e-33
9.3820568e-33
9.3820401e-33
9.3820356e-33
9.3820389e-33
9.3820503e-33
9.3820756e-33
9.3825989e-33
9.3823255e-33
9.3821724e-33
9.3820914e-33
9.3820522e-33
9.3820356e-33
9.3820311e-33
9.3820344e-33
9.3820459e-33
9.3820713e-33
9.3826002e-33
9.3823275e-33
9.382175e-33
9.3820944e-33
9.3820553e-33
9.3820389e-33
9.3820344e-33
9.3820378e-33
9.3820492e-33
9.3820747e-33
9.3826075e-33
9.3823367e-33
9.3821854e-33
9.3821054e-33
9.3820666e-33
9.3820503e-33
9.3820459e-33
9.3820492e-33
9.3820607e-33
9.3820861e-33
9.3826244e-33
9.3823592e-33
9.3822097e-33
9.3821304e-33
9.3820919e-33
9.3820756e-33
9.3820713e-33
9.3820747e-33
9.3820861e-33
9.3821115e-33
3.2606569e-32
3.2605653e-32
3.2605137e-32
3.2604863e-32
3.260473e-32
3.2604673e-32
3.2604654e-32
3.2604659e-32
3.2604683e-32
3.2604739e-32
3.2605653e-32
3.2604737e-32
3.2604221e-32
3.2603948e-32
3.2603815e-32
3.2603757e-32
3.260374e-32
3.2603747e-32
3.2603778e-32
3.2603852e-32
3.2605137e-32
3.2604221e-32
3.2603706e-32
3.2603432e-32
3.2603299e-32
3.2603242e-32
3.2603226e-32
3.2603235e-32
3.260327e-32
3.2603351e-32
3.2604863e-32
3.2603948e-32
3.2603432e-32
3.2603159e-32
3.2603026e-32
3.2602969e-32
3.2602954e-32
3.2602964e-32
3.2603001e-32
3.2603084e-32
3.260473e-32
3.2603815e-32
3.2603299e-32
3.2603026e-32
3.2602893e-32
3.2602837e-32
3.2602822e-32
3.2602832e-32
3.260287e-32
3.2602955e-32
3.2604673e-32
3.2603757e-32
3.2603242e-32
3.2602969e-32
3.2602837e-32
3.2602781e-32
3.2602766e-32
3.2602777e-32
3.2602815e-32
3.26029e-32
3.2604654e-32
3.260374e-32
3.2603226e-32
3.2602954e-32
3.2602822e-32
3.2602766e-32
3.2602751e-32
3.2602762e-32
3.2602801e-32
3.2602885e-32
3.2604659e-32
3.2603747e-32
3.2603235e-32
3.2602964e-32
3.2602832e-32
3.2602777e-32
3.2602762e-32
3.2602773e-32
3.2602812e-32
3.2602897e-32
3.2604683e-32
3.2603778e-32
3.260327e-32
3.2603001e-32
3.260287e-32
3.2602815e-32
3.2602801e-32
3.2602812e-32
3.2602851e-32
3.2602936e-32
3.2604739e-32
3.2603852e-32
3.2603351e-32
3.2603084e-32
3.2602955e-32
3.26029e-32
3.2602885e-32
3.2602897e-32
3.2602936e-32
3.260302e-32
1.1519488e-31
1.1519176e-31
1.1519e-31
1.1518907e-31
1.1518861e-31
1.1518842e-31
1.1518835e-31
1.1518837e-31
1.1518845e-31
1.1518864e-31
1.1519176e-31
1.1518865e-31
1.1518689e-31
1.1518596e-31
1.151855e-31
1.1518531e-31
1.1518525e-31
1.1518527e-31
1.1518537e-31
1.1518563e-31
1.1519e-31
1.1518689e-31
1.1518513e-31
1.151842e-31
1.1518374e-31
1.1518355e-31
1.1518349e-31
1.1518352e-31
1.1518364e-31
1.1518392e-31
1.1518907e-31
1.1518596e-31
1.151842e-31
1.1518326e-31
1.1518281e-31
1.1518262e-31
1.1518256e-31
1.151826e-31
1.1518273e-31
1.1518301e-31
1.1518861e-31
1.151855e-31
1.1518374e-31
1.1518281e-31
1.1518236e-31
1.1518216e-31
1.1518211e-31
1.1518215e-31
1.1518228e-31
1.1518256e-31
1.1518842e-31
1.1518531e-31
1.1518355e-31
1.1518262e-31
1.1518216e-31
1.1518197e-31
1.1518192e-31
1.1518196e-31
1.1518209e-31
1.1518238e-31
1.1518835e-31
1.1518525e-31
1.1518349e-31
1.1518256e-31
1.1518211e-31
1.1518192e-31
1.1518187e-31
1.1518191e-31
1.1518204e-31
1.1518233e-31
1.1518837e-31
1.1518527e-31
1.1518352e-31
1.151826e-31
1.1518215e-31
1.1518196e-31
1.1518191e-31
1.1518195e-31
1.1518208e-31
1.1518237e-31
1.1518845e-31
1.1518537e-31
1.1518364e-31
1.1518273e-31
1.1518228e-31
1.1518209e-31
1.1518204e-31
1.1518208e-31
1.1518221e-31
1.151825e-31
1.1518864e-31
1.1518563e-31
1.1518392e-31
1.1518301e-31
1.1518256e-31
1.1518238e-31
1.1518233e-31
1.1518237e-31
1.151825e-31
1.1518279e-31
4.1371102e-31
4.1370026e-31
4.1369417e-31
4.1369092e-31
4.1368934e-31
4.1368865e-31
4.1368844e-31
4.1368849e-31
4.1368878e-31
4.1368942e-31
4.1370026e-31
4.1368951e-31
4.1368342e-31
4.1368017e-31
4.1367859e-31
4.1367791e-31
4.1367771e-31
4.1367779e-31
4.1367816e-31
4.1367902e-31
4.1369417e-31
4.1368342e-31
4.1367733e-31
4.1367408e-31
4.136725e-31
4.1367183e-31
4.1367164e-31
4.1367174e-31
4.1367216e-31
4.1367311e-31
4.1369092e-31
4.1368017e-31
4.1367408e-31
4.1367084e-31
4.1366926e-31
4.1366859e-31
4.1366841e-31
4.1366853e-31
4.1366897e-31
4.1366995e-31
4.1368934e-31
4.1367859e-31
4.136725e-31
4.1366926e-31
4.1366769e-31
4.1366702e-31
4.1366684e-31
4.1366697e-31
4.1366743e-31
4.1366841e-31
4.1368865e-31
4.1367791e-31
4.1367183e-31
4.1366859e-31
4.1366702e-31
4.1366636e-31
4.1366618e-31
4.1366631e-31
4.1366677e-31
4.1366776e-31
4.1368844e-31
4.1367771e-31
4.1367164e-31
4.1366841e-31
4.1366684e-31
4.1366618e-31
4.13666e-31
4.1366614e-31
4.136666e-31
4.1366759e-31
4.1368849e-31
4.1367779e-31
4.1367174e-31
4.1366853e-31
4.1366697e-31
4.1366631e-31
4.1366614e-31
4.1366628e-31
4.1366674e-31
4.1366773e-31
4.1368878e-31
4.1367816e-31
4.1367216e-31
4.1366897e-31
4.1366743e-31
4.1366677e-31
4.136666e-31
4.1366674e-31
4.136672e-31
4.1366819e-31
4.1368942e-31
4.1367902e-31
4.1367311e-31
4.1366995e-31
4.1366841e-31
4.1366776e-31
4.1366759e-31
4.1366773e-31
4.1366819e-31