/*--------------------------------*- C++ -*----------------------------------*\
| =========                 |                                                 |
| \\      /  F ield         | OpenFOAM: The Open Source CFD Toolbox           |
|  \\    /   O peration     | Version:  dev                                   |
|   \\  /    A nd           | Web:      www.OpenFOAM.org                      |
|    \\/     M anipulation  |                                                 |
\*---------------------------------------------------------------------------*/
FoamFile
{
    version     2.0;
    format      ascii;
    class       volScalarField;
    location    "34";
    object      A_0;
}
// * * * * * * * * * * * * * * * * * * * * * * * * * * * * * * * * * * * * * //

dimensions      [0 0 0 0 1 0 0];

internalField   nonuniform List<scalar> 
10000
(
4.6521591e-41
4.6519184e-41
4.6517947e-41
4.6517315e-41
4.6517013e-41
4.6516883e-41
4.6516842e-41
4.6516852e-41
4.6516921e-41
4.651711e-41
4.6519184e-41
4.6516777e-41
4.6515541e-41
4.651491e-41
4.6514608e-41
4.6514478e-41
4.6514438e-41
4.6514453e-41
4.6514533e-41
4.6514756e-41
4.6517947e-41
4.6515541e-41
4.6514306e-41
4.6513674e-41
4.6513372e-41
4.6513244e-41
4.6513205e-41
4.6513224e-41
4.6513312e-41
4.6513546e-41
4.6517315e-41
4.651491e-41
4.6513674e-41
4.6513043e-41
4.6512741e-41
4.6512613e-41
4.6512576e-41
4.6512597e-41
4.6512689e-41
4.6512927e-41
4.6517013e-41
4.6514608e-41
4.6513372e-41
4.6512741e-41
4.651244e-41
4.6512313e-41
4.6512276e-41
4.6512298e-41
4.6512392e-41
4.6512632e-41
4.6516883e-41
4.6514478e-41
4.6513244e-41
4.6512613e-41
4.6512313e-41
4.6512186e-41
4.651215e-41
4.6512172e-41
4.6512266e-41
4.6512507e-41
4.6516842e-41
4.6514438e-41
4.6513205e-41
4.6512576e-41
4.6512276e-41
4.651215e-41
4.6512114e-41
4.6512137e-41
4.6512231e-41
4.6512472e-41
4.6516852e-41
4.6514453e-41
4.6513224e-41
4.6512597e-41
4.6512298e-41
4.6512172e-41
4.6512137e-41
4.651216e-41
4.6512254e-41
4.6512495e-41
4.6516921e-41
4.6514533e-41
4.6513312e-41
4.6512689e-41
4.6512392e-41
4.6512266e-41
4.6512231e-41
4.6512254e-41
4.6512349e-41
4.651259e-41
4.651711e-41
4.6514756e-41
4.6513546e-41
4.6512927e-41
4.6512632e-41
4.6512507e-41
4.6512472e-41
4.6512495e-41
4.651259e-41
4.6512831e-41
1.8674401e-40
1.8673466e-40
1.8672977e-40
1.8672727e-40
1.8672607e-40
1.8672556e-40
1.8672539e-40
1.8672543e-40
1.867257e-40
1.8672648e-40
1.8673466e-40
1.8672532e-40
1.8672043e-40
1.8671793e-40
1.8671673e-40
1.8671622e-40
1.8671606e-40
1.8671611e-40
1.8671643e-40
1.8671734e-40
1.8672977e-40
1.8672043e-40
1.8671554e-40
1.8671304e-40
1.8671184e-40
1.8671133e-40
1.8671118e-40
1.8671125e-40
1.867116e-40
1.8671256e-40
1.8672727e-40
1.8671793e-40
1.8671304e-40
1.8671054e-40
1.8670934e-40
1.8670883e-40
1.8670869e-40
1.8670877e-40
1.8670913e-40
1.867101e-40
1.8672607e-40
1.8671673e-40
1.8671184e-40
1.8670934e-40
1.8670815e-40
1.8670764e-40
1.867075e-40
1.8670758e-40
1.8670795e-40
1.8670893e-40
1.8672556e-40
1.8671622e-40
1.8671133e-40
1.8670883e-40
1.8670764e-40
1.8670714e-40
1.8670699e-40
1.8670708e-40
1.8670746e-40
1.8670844e-40
1.8672539e-40
1.8671606e-40
1.8671118e-40
1.8670869e-40
1.867075e-40
1.8670699e-40
1.8670685e-40
1.8670694e-40
1.8670732e-40
1.867083e-40
1.8672543e-40
1.8671611e-40
1.8671125e-40
1.8670877e-40
1.8670758e-40
1.8670708e-40
1.8670694e-40
1.8670703e-40
1.8670741e-40
1.8670839e-40
1.867257e-40
1.8671643e-40
1.867116e-40
1.8670913e-40
1.8670795e-40
1.8670746e-40
1.8670732e-40
1.8670741e-40
1.8670778e-40
1.8670877e-40
1.8672648e-40
1.8671734e-40
1.8671256e-40
1.867101e-40
1.8670893e-40
1.8670844e-40
1.867083e-40
1.8670839e-40
1.8670877e-40
1.8670975e-40
5.2289627e-40
5.2287087e-40
5.2285748e-40
5.2285061e-40
5.2284732e-40
5.228459e-40
5.2284545e-40
5.2284556e-40
5.228463e-40
5.2284843e-40
5.2287087e-40
5.2284549e-40
5.228321e-40
5.2282523e-40
5.2282194e-40
5.2282053e-40
5.2282009e-40
5.2282025e-40
5.2282112e-40
5.2282363e-40
5.2285748e-40
5.228321e-40
5.2281872e-40
5.2281185e-40
5.2280856e-40
5.2280716e-40
5.2280674e-40
5.2280694e-40
5.2280789e-40
5.2281053e-40
5.2285061e-40
5.2282523e-40
5.2281185e-40
5.2280498e-40
5.228017e-40
5.2280031e-40
5.227999e-40
5.2280013e-40
5.2280112e-40
5.228038e-40
5.2284732e-40
5.2282194e-40
5.2280856e-40
5.228017e-40
5.2279842e-40
5.2279703e-40
5.2279663e-40
5.2279688e-40
5.2279788e-40
5.2280058e-40
5.228459e-40
5.2282053e-40
5.2280716e-40
5.2280031e-40
5.2279703e-40
5.2279565e-40
5.2279525e-40
5.227955e-40
5.2279652e-40
5.2279923e-40
5.2284545e-40
5.2282009e-40
5.2280674e-40
5.227999e-40
5.2279663e-40
5.2279525e-40
5.2279486e-40
5.2279512e-40
5.2279613e-40
5.2279884e-40
5.2284556e-40
5.2282025e-40
5.2280694e-40
5.2280013e-40
5.2279688e-40
5.227955e-40
5.2279512e-40
5.2279537e-40
5.2279639e-40
5.227991e-40
5.228463e-40
5.2282112e-40
5.2280789e-40
5.2280112e-40
5.2279788e-40
5.2279652e-40
5.2279613e-40
5.2279639e-40
5.2279741e-40
5.2280012e-40
5.2284843e-40
5.2282363e-40
5.2281053e-40
5.228038e-40
5.2280058e-40
5.2279923e-40
5.2279884e-40
5.227991e-40
5.2280012e-40
5.2280283e-40
1.4265717e-39
1.4265045e-39
1.4264689e-39
1.4264506e-39
1.4264418e-39
1.426438e-39
1.4264368e-39
1.4264371e-39
1.426439e-39
1.4264446e-39
1.4265045e-39
1.4264374e-39
1.4264018e-39
1.4263834e-39
1.4263747e-39
1.4263709e-39
1.4263697e-39
1.4263702e-39
1.4263724e-39
1.426379e-39
1.4264689e-39
1.4264018e-39
1.4263662e-39
1.4263479e-39
1.4263391e-39
1.4263353e-39
1.4263342e-39
1.4263348e-39
1.4263373e-39
1.4263442e-39
1.4264506e-39
1.4263834e-39
1.4263479e-39
1.4263296e-39
1.4263208e-39
1.4263171e-39
1.426316e-39
1.4263166e-39
1.4263192e-39
1.4263263e-39
1.4264418e-39
1.4263747e-39
1.4263391e-39
1.4263208e-39
1.426312e-39
1.4263083e-39
1.4263073e-39
1.4263079e-39
1.4263106e-39
1.4263177e-39
1.426438e-39
1.4263709e-39
1.4263353e-39
1.4263171e-39
1.4263083e-39
1.4263046e-39
1.4263036e-39
1.4263043e-39
1.4263069e-39
1.426314e-39
1.4264368e-39
1.4263697e-39
1.4263342e-39
1.426316e-39
1.4263073e-39
1.4263036e-39
1.4263026e-39
1.4263032e-39
1.4263059e-39
1.426313e-39
1.4264371e-39
1.4263702e-39
1.4263348e-39
1.4263166e-39
1.4263079e-39
1.4263043e-39
1.4263032e-39
1.4263039e-39
1.4263066e-39
1.4263137e-39
1.426439e-39
1.4263724e-39
1.4263373e-39
1.4263192e-39
1.4263106e-39
1.4263069e-39
1.4263059e-39
1.4263066e-39
1.4263093e-39
1.4263164e-39
1.4264446e-39
1.426379e-39
1.4263442e-39
1.4263263e-39
1.4263177e-39
1.426314e-39
1.426313e-39
1.4263137e-39
1.4263164e-39
1.4263235e-39
3.9332804e-39
3.9331009e-39
3.9330053e-39
3.932956e-39
3.9329323e-39
3.9329222e-39
3.9329189e-39
3.9329197e-39
3.9329248e-39
3.9329394e-39
3.9331009e-39
3.9329215e-39
3.9328259e-39
3.9327766e-39
3.932753e-39
3.9327428e-39
3.9327397e-39
3.9327408e-39
3.9327469e-39
3.9327642e-39
3.9330053e-39
3.9328259e-39
3.9327303e-39
3.9326811e-39
3.9326574e-39
3.9326474e-39
3.9326444e-39
3.9326458e-39
3.9326525e-39
3.9326707e-39
3.932956e-39
3.9327766e-39
3.9326811e-39
3.9326318e-39
3.9326082e-39
3.9325982e-39
3.9325953e-39
3.9325969e-39
3.9326039e-39
3.9326225e-39
3.9329323e-39
3.932753e-39
3.9326574e-39
3.9326082e-39
3.9325846e-39
3.9325747e-39
3.9325718e-39
3.9325735e-39
3.9325806e-39
3.9325994e-39
3.9329222e-39
3.9327428e-39
3.9326474e-39
3.9325982e-39
3.9325747e-39
3.9325647e-39
3.9325619e-39
3.9325637e-39
3.9325708e-39
3.9325896e-39
3.9329189e-39
3.9327397e-39
3.9326444e-39
3.9325953e-39
3.9325718e-39
3.9325619e-39
3.9325591e-39
3.9325609e-39
3.9325681e-39
3.9325869e-39
3.9329197e-39
3.9327408e-39
3.9326458e-39
3.9325969e-39
3.9325735e-39
3.9325637e-39
3.9325609e-39
3.9325627e-39
3.9325699e-39
3.9325887e-39
3.9329248e-39
3.9327469e-39
3.9326525e-39
3.9326039e-39
3.9325806e-39
3.9325708e-39
3.9325681e-39
3.9325699e-39
3.9325771e-39
3.9325959e-39
3.9329394e-39
3.9327642e-39
3.9326707e-39
3.9326225e-39
3.9325994e-39
3.9325896e-39
3.9325869e-39
3.9325887e-39
3.9325959e-39
3.9326147e-39
1.1014799e-38
1.1014312e-38
1.1014052e-38
1.1013917e-38
1.1013852e-38
1.1013825e-38
1.1013816e-38
1.1013818e-38
1.1013832e-38
1.101387e-38
1.1014312e-38
1.1013826e-38
1.1013565e-38
1.101343e-38
1.1013366e-38
1.1013338e-38
1.1013329e-38
1.1013332e-38
1.1013349e-38
1.1013395e-38
1.1014052e-38
1.1013565e-38
1.1013305e-38
1.101317e-38
1.1013105e-38
1.1013078e-38
1.101307e-38
1.1013074e-38
1.1013092e-38
1.101314e-38
1.1013917e-38
1.101343e-38
1.101317e-38
1.1013036e-38
1.1012971e-38
1.1012944e-38
1.1012936e-38
1.101294e-38
1.1012959e-38
1.1013009e-38
1.1013852e-38
1.1013366e-38
1.1013105e-38
1.1012971e-38
1.1012906e-38
1.1012879e-38
1.1012871e-38
1.1012876e-38
1.1012895e-38
1.1012945e-38
1.1013825e-38
1.1013338e-38
1.1013078e-38
1.1012944e-38
1.1012879e-38
1.1012852e-38
1.1012844e-38
1.1012849e-38
1.1012869e-38
1.1012919e-38
1.1013816e-38
1.1013329e-38
1.101307e-38
1.1012936e-38
1.1012871e-38
1.1012844e-38
1.1012837e-38
1.1012842e-38
1.1012861e-38
1.1012911e-38
1.1013818e-38
1.1013332e-38
1.1013074e-38
1.101294e-38
1.1012876e-38
1.1012849e-38
1.1012842e-38
1.1012847e-38
1.1012866e-38
1.1012916e-38
1.1013832e-38
1.1013349e-38
1.1013092e-38
1.1012959e-38
1.1012895e-38
1.1012869e-38
1.1012861e-38
1.1012866e-38
1.1012886e-38
1.1012936e-38
1.101387e-38
1.1013395e-38
1.101314e-38
1.1013009e-38
1.1012945e-38
1.1012919e-38
1.1012911e-38
1.1012916e-38
1.1012936e-38
1.1012986e-38
3.1353004e-38
3.1351662e-38
3.135094e-38
3.1350567e-38
3.1350387e-38
3.1350309e-38
3.1350284e-38
3.135029e-38
3.1350328e-38
3.1350432e-38
3.1351662e-38
3.135032e-38
3.1349599e-38
3.1349225e-38
3.1349045e-38
3.1348968e-38
3.1348944e-38
3.1348953e-38
3.1348998e-38
3.1349123e-38
3.135094e-38
3.1349599e-38
3.1348877e-38
3.1348504e-38
3.1348324e-38
3.1348248e-38
3.1348225e-38
3.1348236e-38
3.1348286e-38
3.1348418e-38
3.1350567e-38
3.1349225e-38
3.1348504e-38
3.1348131e-38
3.1347951e-38
3.1347875e-38
3.1347853e-38
3.1347865e-38
3.1347918e-38
3.1348053e-38
3.1350387e-38
3.1349045e-38
3.1348324e-38
3.1347951e-38
3.1347772e-38
3.1347696e-38
3.1347675e-38
3.1347688e-38
3.1347741e-38
3.1347877e-38
3.1350309e-38
3.1348968e-38
3.1348248e-38
3.1347875e-38
3.1347696e-38
3.1347621e-38
3.1347599e-38
3.1347613e-38
3.1347666e-38
3.1347803e-38
3.1350284e-38
3.1348944e-38
3.1348225e-38
3.1347853e-38
3.1347675e-38
3.1347599e-38
3.1347578e-38
3.1347592e-38
3.1347646e-38
3.1347782e-38
3.135029e-38
3.1348953e-38
3.1348236e-38
3.1347865e-38
3.1347688e-38
3.1347613e-38
3.1347592e-38
3.1347606e-38
3.134766e-38
3.1347796e-38
3.1350328e-38
3.1348998e-38
3.1348286e-38
3.1347918e-38
3.1347741e-38
3.1347666e-38
3.1347646e-38
3.134766e-38
3.1347714e-38
3.134785e-38
3.1350432e-38
3.1349123e-38
3.1348418e-38
3.1348053e-38
3.1347877e-38
3.1347803e-38
3.1347782e-38
3.1347796e-38
3.134785e-38
3.1347987e-38
9.0725833e-38
9.0722073e-38
9.0720043e-38
9.071899e-38
9.0718482e-38
9.0718264e-38
9.0718193e-38
9.071821e-38
9.0718315e-38
9.0718599e-38
9.0722073e-38
9.0718314e-38
9.0716285e-38
9.0715232e-38
9.0714725e-38
9.0714507e-38
9.0714439e-38
9.0714463e-38
9.0714589e-38
9.0714935e-38
9.0720043e-38
9.0716285e-38
9.0714257e-38
9.0713204e-38
9.0712697e-38
9.0712481e-38
9.0712416e-38
9.0712447e-38
9.0712586e-38
9.0712953e-38
9.071899e-38
9.0715232e-38
9.0713204e-38
9.0712151e-38
9.0711645e-38
9.071143e-38
9.0711367e-38
9.0711403e-38
9.0711548e-38
9.0711923e-38
9.0718482e-38
9.0714725e-38
9.0712697e-38
9.0711645e-38
9.0711139e-38
9.0710925e-38
9.0710864e-38
9.0710901e-38
9.071105e-38
9.0711427e-38
9.0718264e-38
9.0714507e-38
9.0712481e-38
9.071143e-38
9.0710925e-38
9.0710711e-38
9.0710651e-38
9.071069e-38
9.071084e-38
9.0711218e-38
9.0718193e-38
9.0714439e-38
9.0712416e-38
9.0711367e-38
9.0710864e-38
9.0710651e-38
9.0710592e-38
9.0710631e-38
9.0710781e-38
9.071116e-38
9.071821e-38
9.0714463e-38
9.0712447e-38
9.0711403e-38
9.0710901e-38
9.071069e-38
9.0710631e-38
9.071067e-38
9.0710821e-38
9.0711199e-38
9.0718315e-38
9.0714589e-38
9.0712586e-38
9.0711548e-38
9.071105e-38
9.071084e-38
9.0710781e-38
9.0710821e-38
9.0710972e-38
9.0711351e-38
9.0718599e-38
9.0714935e-38
9.0712953e-38
9.0711923e-38
9.0711427e-38
9.0711218e-38
9.071116e-38
9.0711199e-38
9.0711351e-38
9.0711729e-38
2.669098e-37
2.6689909e-37
2.6689329e-37
2.6689027e-37
2.6688882e-37
2.6688819e-37
2.6688799e-37
2.6688803e-37
2.6688833e-37
2.6688912e-37
2.6689909e-37
2.6688839e-37
2.6688259e-37
2.6687957e-37
2.6687812e-37
2.668775e-37
2.668773e-37
2.6687737e-37
2.6687773e-37
2.668787e-37
2.6689329e-37
2.6688259e-37
2.6687679e-37
2.6687378e-37
2.6687232e-37
2.668717e-37
2.6687152e-37
2.6687161e-37
2.66872e-37
2.6687303e-37
2.6689027e-37
2.6687957e-37
2.6687378e-37
2.6687076e-37
2.6686931e-37
2.6686869e-37
2.6686851e-37
2.6686861e-37
2.6686903e-37
2.6687008e-37
2.6688882e-37
2.6687812e-37
2.6687232e-37
2.6686931e-37
2.6686786e-37
2.6686724e-37
2.6686707e-37
2.6686718e-37
2.668676e-37
2.6686866e-37
2.6688819e-37
2.668775e-37
2.668717e-37
2.6686869e-37
2.6686724e-37
2.6686663e-37
2.6686646e-37
2.6686657e-37
2.66867e-37
2.6686806e-37
2.6688799e-37
2.668773e-37
2.6687152e-37
2.6686851e-37
2.6686707e-37
2.6686646e-37
2.6686629e-37
2.668664e-37
2.6686683e-37
2.6686789e-37
2.6688803e-37
2.6687737e-37
2.6687161e-37
2.6686861e-37
2.6686718e-37
2.6686657e-37
2.668664e-37
2.6686651e-37
2.6686694e-37
2.6686801e-37
2.6688833e-37
2.6687773e-37
2.66872e-37
2.6686903e-37
2.668676e-37
2.66867e-37
2.6686683e-37
2.6686694e-37
2.6686738e-37
2.6686844e-37
2.6688912e-37
2.668787e-37
2.6687303e-37
2.6687008e-37
2.6686866e-37
2.6686806e-37
2.6686789e-37
2.6686801e-37
2.6686844e-37
2.6686951e-37
7.9837024e-37
7.9833927e-37
7.9832241e-37
7.9831362e-37
7.9830938e-37
7.9830755e-37
7.9830696e-37
7.983071e-37
7.9830795e-37
7.9831019e-37
7.9833927e-37
7.9830831e-37
7.9829146e-37
7.9828267e-37
7.9827843e-37
7.9827661e-37
7.9827605e-37
7.9827625e-37
7.9827728e-37
7.9828005e-37
7.9832241e-37
7.9829146e-37
7.9827461e-37
7.9826582e-37
7.9826159e-37
7.9825978e-37
7.9825924e-37
7.982595e-37
7.9826065e-37
7.9826359e-37
7.9831362e-37
7.9828267e-37
7.9826582e-37
7.9825704e-37
7.9825281e-37
7.9825101e-37
7.982505e-37
7.9825079e-37
7.98252e-37
7.9825501e-37
7.9830938e-37
7.9827843e-37
7.9826159e-37
7.9825281e-37
7.9824859e-37
7.982468e-37
7.9824629e-37
7.982466e-37
7.9824783e-37
7.9825087e-37
7.9830755e-37
7.9827661e-37
7.9825978e-37
7.9825101e-37
7.982468e-37
7.9824501e-37
7.9824451e-37
7.9824483e-37
7.9824608e-37
7.9824912e-37
7.9830696e-37
7.9827605e-37
7.9825924e-37
7.982505e-37
7.9824629e-37
7.9824451e-37
7.9824402e-37
7.9824434e-37
7.9824559e-37
7.9824863e-37
7.983071e-37
7.9827625e-37
7.982595e-37
7.9825079e-37
7.982466e-37
7.9824483e-37
7.9824434e-37
7.9824468e-37
7.9824592e-37
7.9824897e-37
7.9830795e-37
7.9827728e-37
7.9826065e-37
7.98252e-37
7.9824783e-37
7.9824608e-37
7.9824559e-37
7.9824592e-37
7.9824717e-37
7.9825022e-37
7.9831019e-37
7.9828005e-37
7.9826359e-37
7.9825501e-37
7.9825087e-37
7.9824912e-37
7.9824863e-37
7.9824897e-37
7.9825022e-37
7.9825327e-37
2.4281206e-36
2.4280296e-36
2.4279798e-36
2.4279538e-36
2.4279412e-36
2.4279358e-36
2.427934e-36
2.4279345e-36
2.4279369e-36
2.4279434e-36
2.4280296e-36
2.4279385e-36
2.4278888e-36
2.4278628e-36
2.4278502e-36
2.4278448e-36
2.4278432e-36
2.4278437e-36
2.4278468e-36
2.4278548e-36
2.4279798e-36
2.4278888e-36
2.427839e-36
2.427813e-36
2.4278005e-36
2.4277951e-36
2.4277935e-36
2.4277943e-36
2.4277977e-36
2.4278062e-36
2.4279538e-36
2.4278628e-36
2.427813e-36
2.4277871e-36
2.4277745e-36
2.4277692e-36
2.4277677e-36
2.4277685e-36
2.4277721e-36
2.4277808e-36
2.4279412e-36
2.4278502e-36
2.4278005e-36
2.4277745e-36
2.427762e-36
2.4277567e-36
2.4277552e-36
2.4277561e-36
2.4277598e-36
2.4277686e-36
2.4279358e-36
2.4278448e-36
2.4277951e-36
2.4277692e-36
2.4277567e-36
2.4277514e-36
2.4277499e-36
2.4277509e-36
2.4277546e-36
2.4277634e-36
2.427934e-36
2.4278432e-36
2.4277935e-36
2.4277677e-36
2.4277552e-36
2.4277499e-36
2.4277485e-36
2.4277495e-36
2.4277531e-36
2.427762e-36
2.4279345e-36
2.4278437e-36
2.4277943e-36
2.4277685e-36
2.4277561e-36
2.4277509e-36
2.4277495e-36
2.4277504e-36
2.4277541e-36
2.427763e-36
2.4279369e-36
2.4278468e-36
2.4277977e-36
2.4277721e-36
2.4277598e-36
2.4277546e-36
2.4277531e-36
2.4277541e-36
2.4277578e-36
2.4277667e-36
2.4279434e-36
2.4278548e-36
2.4278062e-36
2.4277808e-36
2.4277686e-36
2.4277634e-36
2.427762e-36
2.427763e-36
2.4277667e-36
2.4277755e-36
7.5089216e-36
7.5086495e-36
7.5085001e-36
7.5084219e-36
7.5083841e-36
7.5083678e-36
7.5083626e-36
7.5083638e-36
7.5083712e-36
7.50839e-36
7.5086495e-36
7.5083774e-36
7.5082281e-36
7.50815e-36
7.5081122e-36
7.508096e-36
7.5080909e-36
7.5080927e-36
7.5081018e-36
7.5081255e-36
7.5085001e-36
7.5082281e-36
7.5080789e-36
7.5080007e-36
7.507963e-36
7.5079469e-36
7.5079421e-36
7.5079444e-36
7.5079545e-36
7.5079798e-36
7.5084219e-36
7.50815e-36
7.5080007e-36
7.5079226e-36
7.5078849e-36
7.5078689e-36
7.5078643e-36
7.507867e-36
7.5078776e-36
7.5079035e-36
7.5083841e-36
7.5081122e-36
7.507963e-36
7.5078849e-36
7.5078473e-36
7.5078313e-36
7.5078268e-36
7.5078297e-36
7.5078405e-36
7.5078666e-36
7.5083678e-36
7.508096e-36
7.5079469e-36
7.5078689e-36
7.5078313e-36
7.5078154e-36
7.507811e-36
7.5078139e-36
7.5078248e-36
7.507851e-36
7.5083626e-36
7.5080909e-36
7.5079421e-36
7.5078643e-36
7.5078268e-36
7.507811e-36
7.5078066e-36
7.5078095e-36
7.5078205e-36
7.5078468e-36
7.5083638e-36
7.5080927e-36
7.5079444e-36
7.507867e-36
7.5078297e-36
7.5078139e-36
7.5078095e-36
7.5078125e-36
7.5078236e-36
7.5078498e-36
7.5083712e-36
7.5081018e-36
7.5079545e-36
7.5078776e-36
7.5078405e-36
7.5078248e-36
7.5078205e-36
7.5078236e-36
7.5078346e-36
7.5078609e-36
7.50839e-36
7.5081255e-36
7.5079798e-36
7.5079035e-36
7.5078666e-36
7.507851e-36
7.5078468e-36
7.5078498e-36
7.5078609e-36
7.5078871e-36
2.3612223e-35
2.3611397e-35
2.3610941e-35
2.3610702e-35
2.3610587e-35
2.3610537e-35
2.3610521e-35
2.3610525e-35
2.3610547e-35
2.3610603e-35
2.3611397e-35
2.3610571e-35
2.3610115e-35
2.3609876e-35
2.3609761e-35
2.3609711e-35
2.3609696e-35
2.3609701e-35
2.3609729e-35
2.36098e-35
2.3610941e-35
2.3610115e-35
2.360966e-35
2.3609421e-35
2.3609306e-35
2.3609257e-35
2.3609242e-35
2.3609249e-35
2.360928e-35
2.3609356e-35
2.3610702e-35
2.3609876e-35
2.3609421e-35
2.3609183e-35
2.3609067e-35
2.3609018e-35
2.3609004e-35
2.3609013e-35
2.3609045e-35
2.3609123e-35
2.3610587e-35
2.3609761e-35
2.3609306e-35
2.3609067e-35
2.3608952e-35
2.3608903e-35
2.360889e-35
2.3608898e-35
2.3608932e-35
2.360901e-35
2.3610537e-35
2.3609711e-35
2.3609257e-35
2.3609018e-35
2.3608903e-35
2.3608855e-35
2.3608841e-35
2.360885e-35
2.3608884e-35
2.3608963e-35
2.3610521e-35
2.3609696e-35
2.3609242e-35
2.3609004e-35
2.360889e-35
2.3608841e-35
2.3608828e-35
2.3608837e-35
2.3608871e-35
2.360895e-35
2.3610525e-35
2.3609701e-35
2.3609249e-35
2.3609013e-35
2.3608898e-35
2.360885e-35
2.3608837e-35
2.3608846e-35
2.360888e-35
2.3608959e-35
2.3610547e-35
2.3609729e-35
2.360928e-35
2.3609045e-35
2.3608932e-35
2.3608884e-35
2.3608871e-35
2.360888e-35
2.3608914e-35
2.3608993e-35
2.3610603e-35
2.36098e-35
2.3609356e-35
2.3609123e-35
2.360901e-35
2.3608963e-35
2.360895e-35
2.3608959e-35
2.3608993e-35
2.3609072e-35
7.55012e-35
7.5498649e-35
7.5497237e-35
7.5496496e-35
7.5496136e-35
7.5495981e-35
7.5495931e-35
7.5495943e-35
7.5496012e-35
7.5496181e-35
7.5498649e-35
7.5496098e-35
7.5494687e-35
7.5493946e-35
7.5493587e-35
7.5493432e-35
7.5493385e-35
7.5493402e-35
7.5493487e-35
7.5493704e-35
7.5497237e-35
7.5494687e-35
7.5493277e-35
7.5492536e-35
7.5492177e-35
7.5492024e-35
7.5491978e-35
7.5492001e-35
7.5492096e-35
7.5492329e-35
7.5496496e-35
7.5493946e-35
7.5492536e-35
7.5491795e-35
7.5491436e-35
7.5491284e-35
7.549124e-35
7.5491266e-35
7.5491367e-35
7.5491605e-35
7.5496136e-35
7.5493587e-35
7.5492177e-35
7.5491436e-35
7.5491078e-35
7.5490927e-35
7.5490884e-35
7.5490912e-35
7.5491014e-35
7.5491255e-35
7.5495981e-35
7.5493432e-35
7.5492024e-35
7.5491284e-35
7.5490927e-35
7.5490775e-35
7.5490734e-35
7.5490762e-35
7.5490865e-35
7.5491107e-35
7.5495931e-35
7.5493385e-35
7.5491978e-35
7.549124e-35
7.5490884e-35
7.5490734e-35
7.5490692e-35
7.5490721e-35
7.5490825e-35
7.5491067e-35
7.5495943e-35
7.5493402e-35
7.5492001e-35
7.5491266e-35
7.5490912e-35
7.5490762e-35
7.5490721e-35
7.549075e-35
7.5490854e-35
7.5491096e-35
7.5496012e-35
7.5493487e-35
7.5492096e-35
7.5491367e-35
7.5491014e-35
7.5490865e-35
7.5490825e-35
7.5490854e-35
7.5490958e-35
7.5491201e-35
7.5496181e-35
7.5493704e-35
7.5492329e-35
7.5491605e-35
7.5491255e-35
7.5491107e-35
7.5491067e-35
7.5491096e-35
7.5491201e-35
7.5491443e-35
2.4548726e-34
2.4547926e-34
2.4547481e-34
2.4547247e-34
2.4547134e-34
2.4547085e-34
2.4547069e-34
2.4547073e-34
2.4547094e-34
2.4547146e-34
2.4547926e-34
2.4547125e-34
2.4546681e-34
2.4546447e-34
2.4546334e-34
2.4546285e-34
2.454627e-34
2.4546276e-34
2.4546302e-34
2.454637e-34
2.4547481e-34
2.4546681e-34
2.4546237e-34
2.4546003e-34
2.454589e-34
2.4545841e-34
2.4545827e-34
2.4545834e-34
2.4545864e-34
2.4545937e-34
2.4547247e-34
2.4546447e-34
2.4546003e-34
2.4545769e-34
2.4545656e-34
2.4545608e-34
2.4545594e-34
2.4545603e-34
2.4545634e-34
2.4545709e-34
2.4547134e-34
2.4546334e-34
2.454589e-34
2.4545656e-34
2.4545543e-34
2.4545495e-34
2.4545482e-34
2.4545491e-34
2.4545523e-34
2.4545598e-34
2.4547085e-34
2.4546285e-34
2.4545841e-34
2.4545608e-34
2.4545495e-34
2.4545447e-34
2.4545434e-34
2.4545443e-34
2.4545476e-34
2.4545551e-34
2.4547069e-34
2.454627e-34
2.4545827e-34
2.4545594e-34
2.4545482e-34
2.4545434e-34
2.4545421e-34
2.454543e-34
2.4545463e-34
2.4545539e-34
2.4547073e-34
2.4546276e-34
2.4545834e-34
2.4545603e-34
2.4545491e-34
2.4545443e-34
2.454543e-34
2.454544e-34
2.4545473e-34
2.4545548e-34
2.4547094e-34
2.4546302e-34
2.4545864e-34
2.4545634e-34
2.4545523e-34
2.4545476e-34
2.4545463e-34
2.4545473e-34
2.4545505e-34
2.4545581e-34
2.4547146e-34
2.454637e-34
2.4545937e-34
2.4545709e-34
2.4545598e-34
2.4545551e-34
2.4545539e-34
2.4545548e-34
2.4545581e-34
2.4545656e-34
8.1162837e-34
8.1160285e-34
8.1158862e-34
8.1158112e-34
8.1157747e-34
8.115759e-34
8.115754e-34
8.1157552e-34
8.115762e-34
8.1157784e-34
8.1160285e-34
8.1157733e-34
8.1156311e-34
8.1155561e-34
8.1155197e-34
8.1155041e-34
8.1154993e-34
8.1155011e-34
8.1155096e-34
8.1155309e-34
8.1158862e-34
8.1156311e-34
8.115489e-34
8.115414e-34
8.1153776e-34
8.1153621e-34
8.1153576e-34
8.1153599e-34
8.1153695e-34
8.1153924e-34
8.1158112e-34
8.1155561e-34
8.115414e-34
8.115339e-34
8.1153027e-34
8.1152873e-34
8.1152829e-34
8.1152856e-34
8.1152957e-34
8.1153193e-34
8.1157747e-34
8.1155197e-34
8.1153776e-34
8.1153027e-34
8.1152664e-34
8.1152511e-34
8.1152468e-34
8.1152497e-34
8.11526e-34
8.1152838e-34
8.115759e-34
8.1155041e-34
8.1153621e-34
8.1152873e-34
8.1152511e-34
8.1152358e-34
8.1152316e-34
8.1152345e-34
8.115245e-34
8.1152688e-34
8.115754e-34
8.1154993e-34
8.1153576e-34
8.1152829e-34
8.1152468e-34
8.1152316e-34
8.1152274e-34
8.1152304e-34
8.1152409e-34
8.1152648e-34
8.1157552e-34
8.1155011e-34
8.1153599e-34
8.1152856e-34
8.1152497e-34
8.1152345e-34
8.1152304e-34
8.1152334e-34
8.1152439e-34
8.1152678e-34
8.115762e-34
8.1155096e-34
8.1153695e-34
8.1152957e-34
8.11526e-34
8.115245e-34
8.1152409e-34
8.1152439e-34
8.1152545e-34
8.1152784e-34
8.1157784e-34
8.1155309e-34
8.1153924e-34
8.1153193e-34
8.1152838e-34
8.1152688e-34
8.1152648e-34
8.1152678e-34
8.1152784e-34
8.1153023e-34
2.7285249e-33
2.7284422e-33
2.7283959e-33
2.7283715e-33
2.7283596e-33
2.7283545e-33
2.7283528e-33
2.7283532e-33
2.7283554e-33
2.7283606e-33
2.7284422e-33
2.7283595e-33
2.7283133e-33
2.7282888e-33
2.728277e-33
2.7282719e-33
2.7282703e-33
2.7282709e-33
2.7282737e-33
2.7282805e-33
2.7283959e-33
2.7283133e-33
2.7282671e-33
2.7282426e-33
2.7282308e-33
2.7282257e-33
2.7282242e-33
2.728225e-33
2.7282281e-33
2.7282355e-33
2.7283715e-33
2.7282888e-33
2.7282426e-33
2.7282182e-33
2.7282064e-33
2.7282013e-33
2.7281999e-33
2.7282008e-33
2.7282041e-33
2.7282117e-33
2.7283596e-33
2.728277e-33
2.7282308e-33
2.7282064e-33
2.7281945e-33
2.7281895e-33
2.7281881e-33
2.7281891e-33
2.7281925e-33
2.7282001e-33
2.7283545e-33
2.7282719e-33
2.7282257e-33
2.7282013e-33
2.7281895e-33
2.7281845e-33
2.7281832e-33
2.7281841e-33
2.7281875e-33
2.7281952e-33
2.7283528e-33
2.7282703e-33
2.7282242e-33
2.7281999e-33
2.7281881e-33
2.7281832e-33
2.7281818e-33
2.7281828e-33
2.7281862e-33
2.7281939e-33
2.7283532e-33
2.7282709e-33
2.728225e-33
2.7282008e-33
2.7281891e-33
2.7281841e-33
2.7281828e-33
2.7281838e-33
2.7281872e-33
2.7281949e-33
2.7283554e-33
2.7282737e-33
2.7282281e-33
2.7282041e-33
2.7281925e-33
2.7281875e-33
2.7281862e-33
2.7281872e-33
2.7281907e-33
2.7281984e-33
2.7283606e-33
2.7282805e-33
2.7282355e-33
2.7282117e-33
2.7282001e-33
2.7281952e-33
2.7281939e-33
2.7281949e-33
2.7281984e-33
2.7282061e-33
9.3266211e-33
9.3263488e-33
9.326196e-33
9.326115e-33
9.3260756e-33
9.3260586e-33
9.3260532e-33
9.3260545e-33
9.3260618e-33
9.3260787e-33
9.3263488e-33
9.3260766e-33
9.3259238e-33
9.3258429e-33
9.3258035e-33
9.3257866e-33
9.3257815e-33
9.3257834e-33
9.3257926e-33
9.3258149e-33
9.326196e-33
9.3259238e-33
9.325771e-33
9.3256902e-33
9.3256509e-33
9.3256341e-33
9.3256292e-33
9.3256318e-33
9.3256421e-33
9.3256663e-33
9.326115e-33
9.3258429e-33
9.3256902e-33
9.3256093e-33
9.3255701e-33
9.3255534e-33
9.3255487e-33
9.3255517e-33
9.3255626e-33
9.3255875e-33
9.3260756e-33
9.3258035e-33
9.3256509e-33
9.3255701e-33
9.3255309e-33
9.3255143e-33
9.3255097e-33
9.3255129e-33
9.3255241e-33
9.3255492e-33
9.3260586e-33
9.3257866e-33
9.3256341e-33
9.3255534e-33
9.3255143e-33
9.3254977e-33
9.3254933e-33
9.3254965e-33
9.3255078e-33
9.325533e-33
9.3260532e-33
9.3257815e-33
9.3256292e-33
9.3255487e-33
9.3255097e-33
9.3254933e-33
9.3254888e-33
9.3254921e-33
9.3255035e-33
9.3255287e-33
9.3260545e-33
9.3257834e-33
9.3256318e-33
9.3255517e-33
9.3255129e-33
9.3254965e-33
9.3254921e-33
9.3254954e-33
9.3255068e-33
9.3255321e-33
9.3260618e-33
9.3257926e-33
9.3256421e-33
9.3255626e-33
9.3255241e-33
9.3255078e-33
9.3255035e-33
9.3255068e-33
9.3255182e-33
9.3255435e-33
9.3260787e-33
9.3258149e-33
9.3256663e-33
9.3255875e-33
9.3255492e-33
9.325533e-33
9.3255287e-33
9.3255321e-33
9.3255435e-33
9.3255687e-33
3.2413312e-32
3.2412401e-32
3.2411888e-32
3.2411615e-32
3.2411483e-32
3.2411426e-32
3.2411408e-32
3.2411412e-32
3.2411436e-32
3.2411492e-32
3.2412401e-32
3.241149e-32
3.2410977e-32
3.2410705e-32
3.2410573e-32
3.2410516e-32
3.2410498e-32
3.2410505e-32
3.2410536e-32
3.241061e-32
3.2411888e-32
3.2410977e-32
3.2410464e-32
3.2410192e-32
3.241006e-32
3.2410004e-32
3.2409987e-32
3.2409996e-32
3.2410031e-32
3.2410111e-32
3.2411615e-32
3.2410705e-32
3.2410192e-32
3.240992e-32
3.2409788e-32
3.2409732e-32
3.2409717e-32
3.2409727e-32
3.2409763e-32
3.2409846e-32
3.2411483e-32
3.2410573e-32
3.241006e-32
3.2409788e-32
3.2409656e-32
3.2409601e-32
3.2409585e-32
3.2409596e-32
3.2409634e-32
3.2409717e-32
3.2411426e-32
3.2410516e-32
3.2410004e-32
3.2409732e-32
3.2409601e-32
3.2409545e-32
3.240953e-32
3.2409541e-32
3.2409579e-32
3.2409663e-32
3.2411408e-32
3.2410498e-32
3.2409987e-32
3.2409717e-32
3.2409585e-32
3.240953e-32
3.2409515e-32
3.2409526e-32
3.2409564e-32
3.2409649e-32
3.2411412e-32
3.2410505e-32
3.2409996e-32
3.2409727e-32
3.2409596e-32
3.2409541e-32
3.2409526e-32
3.2409537e-32
3.2409576e-32
3.240966e-32
3.2411436e-32
3.2410536e-32
3.2410031e-32
3.2409763e-32
3.2409634e-32
3.2409579e-32
3.2409564e-32
3.2409576e-32
3.2409614e-32
3.2409699e-32
3.2411492e-32
3.241061e-32
3.2410111e-32
3.2409846e-32
3.2409717e-32
3.2409663e-32
3.2409649e-32
3.240966e-32
3.2409699e-32
3.2409783e-32
1.1452372e-31
1.1452062e-31
1.1451887e-31
1.1451794e-31
1.1451749e-31
1.1451729e-31
1.1451723e-31
1.1451725e-31
1.1451733e-31
1.1451751e-31
1.1452062e-31
1.1451753e-31
1.1451578e-31
1.1451485e-31
1.1451439e-31
1.145142e-31
1.1451414e-31
1.1451416e-31
1.1451427e-31
1.1451452e-31
1.1451887e-31
1.1451578e-31
1.1451403e-31
1.145131e-31
1.1451265e-31
1.1451245e-31
1.145124e-31
1.1451243e-31
1.1451255e-31
1.1451282e-31
1.1451794e-31
1.1451485e-31
1.145131e-31
1.1451217e-31
1.1451172e-31
1.1451153e-31
1.1451147e-31
1.1451151e-31
1.1451163e-31
1.1451191e-31
1.1451749e-31
1.1451439e-31
1.1451265e-31
1.1451172e-31
1.1451127e-31
1.1451108e-31
1.1451102e-31
1.1451106e-31
1.1451119e-31
1.1451147e-31
1.1451729e-31
1.145142e-31
1.1451245e-31
1.1451153e-31
1.1451108e-31
1.1451089e-31
1.1451083e-31
1.1451087e-31
1.14511e-31
1.1451129e-31
1.1451723e-31
1.1451414e-31
1.145124e-31
1.1451147e-31
1.1451102e-31
1.1451083e-31
1.1451078e-31
1.1451082e-31
1.1451095e-31
1.1451124e-31
1.1451725e-31
1.1451416e-31
1.1451243e-31
1.1451151e-31
1.1451106e-31
1.1451087e-31
1.1451082e-31
1.1451086e-31
1.1451099e-31
1.1451128e-31
1.1451733e-31
1.1451427e-31
1.1451255e-31
1.1451163e-31
1.1451119e-31
1.14511e-31
1.1451095e-31
1.1451099e-31
1.1451113e-31
1.1451141e-31
1.1451751e-31
1.1451452e-31
1.1451282e-31
1.1451191e-31
1.1451147e-31
1.1451129e-31
1.1451124e-31
1.1451128e-31
1.1451141e-31
1.145117e-31
4.1134266e-31
4.1133197e-31
4.113259e-31
4.1132267e-31
4.113211e-31
4.1132042e-31
4.1132021e-31
4.1132026e-31
4.1132055e-31
4.1132118e-31
4.1133197e-31
4.1132127e-31
4.1131521e-31
4.1131199e-31
4.1131041e-31
4.1130974e-31
4.1130954e-31
4.1130962e-31
4.1130998e-31
4.1131084e-31
4.113259e-31
4.1131521e-31
4.1130915e-31
4.1130593e-31
4.1130436e-31
4.1130369e-31
4.113035e-31
4.113036e-31
4.1130402e-31
4.1130496e-31
4.1132267e-31
4.1131199e-31
4.1130593e-31
4.1130271e-31
4.1130114e-31
4.1130047e-31
4.1130029e-31
4.1130041e-31
4.1130085e-31
4.1130182e-31
4.113211e-31
4.1131041e-31
4.1130436e-31
4.1130114e-31
4.1129957e-31
4.1129891e-31
4.1129873e-31
4.1129886e-31
4.1129931e-31
4.1130029e-31
4.1132042e-31
4.1130974e-31
4.1130369e-31
4.1130047e-31
4.1129891e-31
4.1129825e-31
4.1129807e-31
4.112982e-31
4.1129866e-31
4.1129964e-31
4.1132021e-31
4.1130954e-31
4.113035e-31
4.1130029e-31
4.1129873e-31
4.1129807e-31
4.1129789e-31
4.1129803e-31
4.1129849e-31
4.1129947e-31
4.1132026e-31
4.1130962e-31
4.113036e-31
4.1130041e-31
4.1129886e-31
4.112982e-31
4.1129803e-31
4.1129817e-31
4.1129863e-31
4.1129961e-31
4.1132055e-31
4.1130998e-31
4.1130402e-31
4.1130085e-31
4.1129931e-31
4.1129866e-31
4.1129849e-31
4.1129863e-31
4.1129909e-31
4.1130007e-31
4.1132118e-31
4.1131084e-31
4.1130496e-31
4.1130182e-31
4.1130029e-31
4.1129964e-31
4.1129947e-31
4.1129961e-31