/*--------------------------------*- C++ -*----------------------------------*\
| =========                 |                                                 |
| \\      /  F ield         | OpenFOAM: The Open Source CFD Toolbox           |
|  \\    /   O peration     | Version:  dev                                   |
|   \\  /    A nd           | Web:      www.OpenFOAM.org                      |
|    \\/     M anipulation  |                                                 |
\*---------------------------------------------------------------------------*/
FoamFile
{
    version     2.0;
    format      ascii;
    class       volScalarField;
    location    "4";
    object      A;
}
// * * * * * * * * * * * * * * * * * * * * * * * * * * * * * * * * * * * * * //

dimensions      [0 0 0 0 1 0 0];

internalField   nonuniform List<scalar> 
10000
(
6.1687565e-98
6.1604538e-98
6.1590478e-98
6.1588751e-98
6.1588587e-98
6.1588574e-98
6.1588573e-98
6.1588576e-98
6.1588597e-98
6.1588756e-98
6.1604538e-98
6.1521659e-98
6.1507624e-98
6.1505899e-98
6.1505735e-98
6.1505722e-98
6.1505722e-98
6.150573e-98
6.1505801e-98
6.1506281e-98
6.1590478e-98
6.1507624e-98
6.1493593e-98
6.1491869e-98
6.1491705e-98
6.1491692e-98
6.1491692e-98
6.1491702e-98
6.1491783e-98
6.1492313e-98
6.1588751e-98
6.1505899e-98
6.1491869e-98
6.1490146e-98
6.1489981e-98
6.1489969e-98
6.1489969e-98
6.1489979e-98
6.1490062e-98
6.1490597e-98
6.1588587e-98
6.1505735e-98
6.1491705e-98
6.1489981e-98
6.1489817e-98
6.1489805e-98
6.1489805e-98
6.1489815e-98
6.1489898e-98
6.1490433e-98
6.1588574e-98
6.1505722e-98
6.1491692e-98
6.1489969e-98
6.1489805e-98
6.1489792e-98
6.1489792e-98
6.1489802e-98
6.1489885e-98
6.149042e-98
6.1588573e-98
6.1505722e-98
6.1491692e-98
6.1489969e-98
6.1489805e-98
6.1489792e-98
6.1489792e-98
6.1489802e-98
6.1489885e-98
6.1490421e-98
6.1588576e-98
6.150573e-98
6.1491702e-98
6.1489979e-98
6.1489815e-98
6.1489802e-98
6.1489802e-98
6.1489812e-98
6.1489895e-98
6.149043e-98
6.1588597e-98
6.1505801e-98
6.1491783e-98
6.1490062e-98
6.1489898e-98
6.1489885e-98
6.1489885e-98
6.1489895e-98
6.1489978e-98
6.1490513e-98
6.1588756e-98
6.1506281e-98
6.1492313e-98
6.1490597e-98
6.1490433e-98
6.149042e-98
6.1490421e-98
6.149043e-98
6.1490513e-98
6.1491049e-98
8.6646249e-97
8.6532648e-97
8.6513371e-97
8.6511003e-97
8.6510777e-97
8.651076e-97
8.6510759e-97
8.6510762e-97
8.6510791e-97
8.6511016e-97
8.6532648e-97
8.6419245e-97
8.6400001e-97
8.6397636e-97
8.6397411e-97
8.6397394e-97
8.6397393e-97
8.6397405e-97
8.6397502e-97
8.6398174e-97
8.6513371e-97
8.6400001e-97
8.6380763e-97
8.6378399e-97
8.6378174e-97
8.6378157e-97
8.6378157e-97
8.637817e-97
8.6378283e-97
8.6379022e-97
8.6511003e-97
8.6397636e-97
8.6378399e-97
8.6376036e-97
8.637581e-97
8.6375793e-97
8.6375793e-97
8.6375807e-97
8.6375922e-97
8.6376669e-97
8.6510777e-97
8.6397411e-97
8.6378174e-97
8.637581e-97
8.6375585e-97
8.6375568e-97
8.6375568e-97
8.6375582e-97
8.6375697e-97
8.6376445e-97
8.651076e-97
8.6397394e-97
8.6378157e-97
8.6375793e-97
8.6375568e-97
8.637555e-97
8.6375551e-97
8.6375564e-97
8.6375679e-97
8.6376427e-97
8.6510759e-97
8.6397393e-97
8.6378157e-97
8.6375793e-97
8.6375568e-97
8.6375551e-97
8.6375551e-97
8.6375564e-97
8.6375679e-97
8.6376428e-97
8.6510762e-97
8.6397405e-97
8.637817e-97
8.6375807e-97
8.6375582e-97
8.6375564e-97
8.6375564e-97
8.6375578e-97
8.6375693e-97
8.6376441e-97
8.6510791e-97
8.6397502e-97
8.6378283e-97
8.6375922e-97
8.6375697e-97
8.6375679e-97
8.6375679e-97
8.6375693e-97
8.6375808e-97
8.6376556e-97
8.6511016e-97
8.6398174e-97
8.6379022e-97
8.6376669e-97
8.6376445e-97
8.6376427e-97
8.6376428e-97
8.6376441e-97
8.6376556e-97
8.6377305e-97
1.1575661e-95
1.1560894e-95
1.1558387e-95
1.1558079e-95
1.155805e-95
1.1558047e-95
1.1558047e-95
1.1558048e-95
1.1558051e-95
1.155808e-95
1.1560894e-95
1.1546153e-95
1.154365e-95
1.1543343e-95
1.1543313e-95
1.1543311e-95
1.1543311e-95
1.1543312e-95
1.1543325e-95
1.1543413e-95
1.1558387e-95
1.154365e-95
1.1541148e-95
1.154084e-95
1.1540811e-95
1.1540809e-95
1.1540809e-95
1.154081e-95
1.1540825e-95
1.1540922e-95
1.1558079e-95
1.1543343e-95
1.154084e-95
1.1540533e-95
1.1540503e-95
1.1540501e-95
1.1540501e-95
1.1540503e-95
1.1540518e-95
1.1540616e-95
1.155805e-95
1.1543313e-95
1.1540811e-95
1.1540503e-95
1.1540474e-95
1.1540472e-95
1.1540472e-95
1.1540474e-95
1.1540489e-95
1.1540587e-95
1.1558047e-95
1.1543311e-95
1.1540809e-95
1.1540501e-95
1.1540472e-95
1.154047e-95
1.154047e-95
1.1540471e-95
1.1540487e-95
1.1540584e-95
1.1558047e-95
1.1543311e-95
1.1540809e-95
1.1540501e-95
1.1540472e-95
1.154047e-95
1.154047e-95
1.1540471e-95
1.1540487e-95
1.1540584e-95
1.1558048e-95
1.1543312e-95
1.154081e-95
1.1540503e-95
1.1540474e-95
1.1540471e-95
1.1540471e-95
1.1540473e-95
1.1540488e-95
1.1540586e-95
1.1558051e-95
1.1543325e-95
1.1540825e-95
1.1540518e-95
1.1540489e-95
1.1540487e-95
1.1540487e-95
1.1540488e-95
1.1540503e-95
1.1540601e-95
1.155808e-95
1.1543413e-95
1.1540922e-95
1.1540616e-95
1.1540587e-95
1.1540584e-95
1.1540584e-95
1.1540586e-95
1.1540601e-95
1.1540699e-95
1.5905447e-94
1.5885716e-94
1.5882363e-94
1.5881951e-94
1.5881911e-94
1.5881908e-94
1.5881908e-94
1.5881909e-94
1.5881914e-94
1.5881952e-94
1.5885716e-94
1.5866017e-94
1.586267e-94
1.5862258e-94
1.5862219e-94
1.5862216e-94
1.5862216e-94
1.5862218e-94
1.5862235e-94
1.5862353e-94
1.5882363e-94
1.586267e-94
1.5859323e-94
1.5858912e-94
1.5858873e-94
1.585887e-94
1.585887e-94
1.5858872e-94
1.5858892e-94
1.5859022e-94
1.5881951e-94
1.5862258e-94
1.5858912e-94
1.5858501e-94
1.5858462e-94
1.5858459e-94
1.5858459e-94
1.5858461e-94
1.5858482e-94
1.5858613e-94
1.5881911e-94
1.5862219e-94
1.5858873e-94
1.5858462e-94
1.5858422e-94
1.5858419e-94
1.5858419e-94
1.5858422e-94
1.5858442e-94
1.5858574e-94
1.5881908e-94
1.5862216e-94
1.585887e-94
1.5858459e-94
1.5858419e-94
1.5858416e-94
1.5858416e-94
1.5858419e-94
1.5858439e-94
1.5858571e-94
1.5881908e-94
1.5862216e-94
1.585887e-94
1.5858459e-94
1.5858419e-94
1.5858416e-94
1.5858416e-94
1.5858419e-94
1.5858439e-94
1.5858571e-94
1.5881909e-94
1.5862218e-94
1.5858872e-94
1.5858461e-94
1.5858422e-94
1.5858419e-94
1.5858419e-94
1.5858421e-94
1.5858442e-94
1.5858573e-94
1.5881914e-94
1.5862235e-94
1.5858892e-94
1.5858482e-94
1.5858442e-94
1.5858439e-94
1.5858439e-94
1.5858442e-94
1.5858462e-94
1.5858594e-94
1.5881952e-94
1.5862353e-94
1.5859022e-94
1.5858613e-94
1.5858574e-94
1.5858571e-94
1.5858571e-94
1.5858573e-94
1.5858594e-94
1.5858725e-94
2.2485354e-93
2.2458239e-93
2.2453628e-93
2.2453062e-93
2.2453008e-93
2.2453003e-93
2.2453003e-93
2.2453004e-93
2.2453011e-93
2.2453062e-93
2.2458239e-93
2.2431168e-93
2.2426565e-93
2.2425999e-93
2.2425945e-93
2.2425941e-93
2.2425941e-93
2.2425944e-93
2.2425968e-93
2.242613e-93
2.2453628e-93
2.2426565e-93
2.2421963e-93
2.2421398e-93
2.2421344e-93
2.242134e-93
2.242134e-93
2.2421343e-93
2.2421371e-93
2.242155e-93
2.2453062e-93
2.2425999e-93
2.2421398e-93
2.2420832e-93
2.2420778e-93
2.2420774e-93
2.2420774e-93
2.2420777e-93
2.2420806e-93
2.2420987e-93
2.2453008e-93
2.2425945e-93
2.2421344e-93
2.2420778e-93
2.2420724e-93
2.242072e-93
2.242072e-93
2.2420724e-93
2.2420752e-93
2.2420934e-93
2.2453003e-93
2.2425941e-93
2.242134e-93
2.2420774e-93
2.242072e-93
2.2420716e-93
2.2420716e-93
2.2420719e-93
2.2420748e-93
2.2420929e-93
2.2453003e-93
2.2425941e-93
2.242134e-93
2.2420774e-93
2.242072e-93
2.2420716e-93
2.2420716e-93
2.2420719e-93
2.2420748e-93
2.242093e-93
2.2453004e-93
2.2425944e-93
2.2421343e-93
2.2420777e-93
2.2420724e-93
2.2420719e-93
2.2420719e-93
2.2420723e-93
2.2420751e-93
2.2420933e-93
2.2453011e-93
2.2425968e-93
2.2421371e-93
2.2420806e-93
2.2420752e-93
2.2420748e-93
2.2420748e-93
2.2420751e-93
2.242078e-93
2.2420961e-93
2.2453062e-93
2.242613e-93
2.242155e-93
2.2420987e-93
2.2420934e-93
2.2420929e-93
2.242093e-93
2.2420933e-93
2.2420961e-93
2.2421143e-93
3.2701449e-92
3.2663134e-92
3.2656615e-92
3.2655813e-92
3.2655737e-92
3.2655731e-92
3.2655731e-92
3.2655732e-92
3.2655742e-92
3.2655812e-92
3.2663134e-92
3.262488e-92
3.2618372e-92
3.2617571e-92
3.2617495e-92
3.2617489e-92
3.2617489e-92
3.2617493e-92
3.2617527e-92
3.2617758e-92
3.2656615e-92
3.2618372e-92
3.2611865e-92
3.2611065e-92
3.2610989e-92
3.2610983e-92
3.2610983e-92
3.2610987e-92
3.2611027e-92
3.2611283e-92
3.2655813e-92
3.2617571e-92
3.2611065e-92
3.2610265e-92
3.2610188e-92
3.2610183e-92
3.2610183e-92
3.2610188e-92
3.2610228e-92
3.2610486e-92
3.2655737e-92
3.2617495e-92
3.2610989e-92
3.2610188e-92
3.2610112e-92
3.2610106e-92
3.2610106e-92
3.2610111e-92
3.2610152e-92
3.261041e-92
3.2655731e-92
3.2617489e-92
3.2610983e-92
3.2610183e-92
3.2610106e-92
3.26101e-92
3.2610101e-92
3.2610105e-92
3.2610146e-92
3.2610405e-92
3.2655731e-92
3.2617489e-92
3.2610983e-92
3.2610183e-92
3.2610106e-92
3.2610101e-92
3.2610101e-92
3.2610106e-92
3.2610146e-92
3.2610405e-92
3.2655732e-92
3.2617493e-92
3.2610987e-92
3.2610188e-92
3.2610111e-92
3.2610105e-92
3.2610106e-92
3.261011e-92
3.2610151e-92
3.261041e-92
3.2655742e-92
3.2617527e-92
3.2611027e-92
3.2610228e-92
3.2610152e-92
3.2610146e-92
3.2610146e-92
3.2610151e-92
3.2610192e-92
3.261045e-92
3.2655812e-92
3.2617758e-92
3.2611283e-92
3.2610486e-92
3.261041e-92
3.2610405e-92
3.2610405e-92
3.261041e-92
3.261045e-92
3.2610709e-92
4.8921745e-91
4.8866079e-91
4.8856602e-91
4.8855437e-91
4.8855326e-91
4.8855317e-91
4.8855317e-91
4.8855318e-91
4.8855333e-91
4.8855433e-91
4.8866079e-91
4.8810501e-91
4.8801039e-91
4.8799875e-91
4.8799764e-91
4.8799755e-91
4.8799755e-91
4.8799761e-91
4.8799812e-91
4.880015e-91
4.8856602e-91
4.8801039e-91
4.8791579e-91
4.8790416e-91
4.8790305e-91
4.8790296e-91
4.8790297e-91
4.8790304e-91
4.8790362e-91
4.8790736e-91
4.8855437e-91
4.8799875e-91
4.8790416e-91
4.8789253e-91
4.8789142e-91
4.8789133e-91
4.8789133e-91
4.8789141e-91
4.87892e-91
4.8789578e-91
4.8855326e-91
4.8799764e-91
4.8790305e-91
4.8789142e-91
4.8789031e-91
4.8789022e-91
4.8789022e-91
4.878903e-91
4.878909e-91
4.8789468e-91
4.8855317e-91
4.8799755e-91
4.8790296e-91
4.8789133e-91
4.8789022e-91
4.8789014e-91
4.8789014e-91
4.8789021e-91
4.8789081e-91
4.8789459e-91
4.8855317e-91
4.8799755e-91
4.8790297e-91
4.8789133e-91
4.8789022e-91
4.8789014e-91
4.8789014e-91
4.8789021e-91
4.8789081e-91
4.8789459e-91
4.8855318e-91
4.8799761e-91
4.8790304e-91
4.8789141e-91
4.878903e-91
4.8789021e-91
4.8789021e-91
4.8789029e-91
4.8789089e-91
4.8789467e-91
4.8855333e-91
4.8799812e-91
4.8790362e-91
4.87892e-91
4.878909e-91
4.8789081e-91
4.8789081e-91
4.8789089e-91
4.8789149e-91
4.8789527e-91
4.8855433e-91
4.880015e-91
4.8790736e-91
4.8789578e-91
4.8789468e-91
4.8789459e-91
4.8789459e-91
4.8789467e-91
4.8789527e-91
4.8789905e-91
7.5275602e-90
7.5192462e-90
7.51783e-90
7.5176558e-90
7.5176392e-90
7.5176379e-90
7.5176378e-90
7.5176381e-90
7.5176402e-90
7.5176551e-90
7.5192462e-90
7.510945e-90
7.5095309e-90
7.509357e-90
7.5093404e-90
7.5093391e-90
7.5093391e-90
7.50934e-90
7.5093477e-90
7.5093985e-90
7.51783e-90
7.5095309e-90
7.5081172e-90
7.5079434e-90
7.5079268e-90
7.5079255e-90
7.5079255e-90
7.5079266e-90
7.5079355e-90
7.5079917e-90
7.5176558e-90
7.509357e-90
7.5079434e-90
7.5077695e-90
7.5077529e-90
7.5077516e-90
7.5077516e-90
7.5077527e-90
7.5077618e-90
7.5078187e-90
7.5176392e-90
7.5093404e-90
7.5079268e-90
7.5077529e-90
7.5077363e-90
7.5077351e-90
7.5077351e-90
7.5077362e-90
7.5077453e-90
7.5078022e-90
7.5176379e-90
7.5093391e-90
7.5079255e-90
7.5077516e-90
7.5077351e-90
7.5077338e-90
7.5077338e-90
7.5077349e-90
7.507744e-90
7.5078009e-90
7.5176378e-90
7.5093391e-90
7.5079255e-90
7.5077516e-90
7.5077351e-90
7.5077338e-90
7.5077338e-90
7.5077349e-90
7.507744e-90
7.5078009e-90
7.5176381e-90
7.50934e-90
7.5079266e-90
7.5077527e-90
7.5077362e-90
7.5077349e-90
7.5077349e-90
7.507736e-90
7.5077451e-90
7.507802e-90
7.5176402e-90
7.5093477e-90
7.5079355e-90
7.5077618e-90
7.5077453e-90
7.507744e-90
7.507744e-90
7.5077451e-90
7.5077542e-90
7.5078111e-90
7.5176551e-90
7.5093985e-90
7.5079917e-90
7.5078187e-90
7.5078022e-90
7.5078009e-90
7.5078009e-90
7.507802e-90
7.5078111e-90
7.5078681e-90
1.1911568e-88
1.1898804e-88
1.1896629e-88
1.1896361e-88
1.1896335e-88
1.1896334e-88
1.1896333e-88
1.1896334e-88
1.1896337e-88
1.189636e-88
1.1898804e-88
1.188606e-88
1.1883888e-88
1.188362e-88
1.1883595e-88
1.1883593e-88
1.1883593e-88
1.1883594e-88
1.1883606e-88
1.1883685e-88
1.1896629e-88
1.1883888e-88
1.1881716e-88
1.1881449e-88
1.1881423e-88
1.1881421e-88
1.1881421e-88
1.1881423e-88
1.1881437e-88
1.1881524e-88
1.1896361e-88
1.188362e-88
1.1881449e-88
1.1881182e-88
1.1881156e-88
1.1881154e-88
1.1881154e-88
1.1881156e-88
1.188117e-88
1.1881258e-88
1.1896335e-88
1.1883595e-88
1.1881423e-88
1.1881156e-88
1.1881131e-88
1.1881129e-88
1.1881129e-88
1.1881131e-88
1.1881145e-88
1.1881233e-88
1.1896334e-88
1.1883593e-88
1.1881421e-88
1.1881154e-88
1.1881129e-88
1.1881127e-88
1.1881127e-88
1.1881129e-88
1.1881143e-88
1.1881231e-88
1.1896333e-88
1.1883593e-88
1.1881421e-88
1.1881154e-88
1.1881129e-88
1.1881127e-88
1.1881127e-88
1.1881129e-88
1.1881143e-88
1.1881231e-88
1.1896334e-88
1.1883594e-88
1.1881423e-88
1.1881156e-88
1.1881131e-88
1.1881129e-88
1.1881129e-88
1.188113e-88
1.1881144e-88
1.1881233e-88
1.1896337e-88
1.1883606e-88
1.1881437e-88
1.188117e-88
1.1881145e-88
1.1881143e-88
1.1881143e-88
1.1881144e-88
1.1881159e-88
1.1881247e-88
1.189636e-88
1.1883685e-88
1.1881524e-88
1.1881258e-88
1.1881233e-88
1.1881231e-88
1.1881231e-88
1.1881233e-88
1.1881247e-88
1.1881335e-88
1.9381449e-87
1.9361311e-87
1.9357877e-87
1.9357455e-87
1.9357415e-87
1.9357411e-87
1.9357411e-87
1.9357412e-87
1.9357417e-87
1.9357452e-87
1.9361311e-87
1.9341204e-87
1.9337774e-87
1.9337353e-87
1.9337312e-87
1.9337309e-87
1.9337309e-87
1.9337311e-87
1.9337331e-87
1.9337456e-87
1.9357877e-87
1.9337774e-87
1.9334346e-87
1.9333924e-87
1.9333884e-87
1.9333881e-87
1.9333881e-87
1.9333884e-87
1.9333906e-87
1.9334045e-87
1.9357455e-87
1.9337353e-87
1.9333924e-87
1.9333503e-87
1.9333462e-87
1.9333459e-87
1.9333459e-87
1.9333462e-87
1.9333485e-87
1.9333625e-87
1.9357415e-87
1.9337312e-87
1.9333884e-87
1.9333462e-87
1.9333422e-87
1.9333419e-87
1.9333419e-87
1.9333422e-87
1.9333445e-87
1.9333585e-87
1.9357411e-87
1.9337309e-87
1.9333881e-87
1.9333459e-87
1.9333419e-87
1.9333416e-87
1.9333416e-87
1.9333419e-87
1.9333441e-87
1.9333582e-87
1.9357411e-87
1.9337309e-87
1.9333881e-87
1.9333459e-87
1.9333419e-87
1.9333416e-87
1.9333416e-87
1.9333419e-87
1.9333442e-87
1.9333582e-87
1.9357412e-87
1.9337311e-87
1.9333884e-87
1.9333462e-87
1.9333422e-87
1.9333419e-87
1.9333419e-87
1.9333422e-87
1.9333444e-87
1.9333585e-87
1.9357417e-87
1.9337331e-87
1.9333906e-87
1.9333485e-87
1.9333445e-87
1.9333441e-87
1.9333442e-87
1.9333444e-87
1.9333467e-87
1.9333607e-87
1.9357452e-87
1.9337456e-87
1.9334045e-87
1.9333625e-87
1.9333585e-87
1.9333582e-87
1.9333582e-87
1.9333585e-87
1.9333607e-87
1.9333748e-87
3.2422134e-86
3.2389486e-86
3.2383916e-86
3.2383231e-86
3.2383165e-86
3.238316e-86
3.238316e-86
3.2383161e-86
3.238317e-86
3.2383226e-86
3.2389486e-86
3.2356887e-86
3.2351324e-86
3.2350639e-86
3.2350574e-86
3.2350569e-86
3.2350569e-86
3.2350573e-86
3.2350604e-86
3.2350809e-86
3.2383916e-86
3.2351324e-86
3.2345763e-86
3.2345078e-86
3.2345013e-86
3.2345008e-86
3.2345008e-86
3.2345013e-86
3.2345049e-86
3.2345276e-86
3.2383231e-86
3.2350639e-86
3.2345078e-86
3.2344394e-86
3.2344329e-86
3.2344324e-86
3.2344324e-86
3.2344329e-86
3.2344366e-86
3.2344595e-86
3.2383165e-86
3.2350574e-86
3.2345013e-86
3.2344329e-86
3.2344264e-86
3.2344259e-86
3.2344259e-86
3.2344263e-86
3.2344301e-86
3.2344531e-86
3.238316e-86
3.2350569e-86
3.2345008e-86
3.2344324e-86
3.2344259e-86
3.2344254e-86
3.2344254e-86
3.2344258e-86
3.2344296e-86
3.2344526e-86
3.238316e-86
3.2350569e-86
3.2345008e-86
3.2344324e-86
3.2344259e-86
3.2344254e-86
3.2344254e-86
3.2344258e-86
3.2344296e-86
3.2344526e-86
3.2383161e-86
3.2350573e-86
3.2345013e-86
3.2344329e-86
3.2344263e-86
3.2344258e-86
3.2344258e-86
3.2344263e-86
3.23443e-86
3.234453e-86
3.238317e-86
3.2350604e-86
3.2345049e-86
3.2344366e-86
3.2344301e-86
3.2344296e-86
3.2344296e-86
3.23443e-86
3.2344337e-86
3.2344567e-86
3.2383226e-86
3.2350809e-86
3.2345276e-86
3.2344595e-86
3.2344531e-86
3.2344526e-86
3.2344526e-86
3.234453e-86
3.2344567e-86
3.2344797e-86
5.5752625e-85
5.5698249e-85
5.5688966e-85
5.5687824e-85
5.5687715e-85
5.5687706e-85
5.5687706e-85
5.5687708e-85
5.5687722e-85
5.5687814e-85
5.5698249e-85
5.5643949e-85
5.5634679e-85
5.5633538e-85
5.563343e-85
5.5633421e-85
5.5633421e-85
5.5633428e-85
5.563348e-85
5.5633825e-85
5.5688966e-85
5.5634679e-85
5.5625412e-85
5.5624271e-85
5.5624162e-85
5.5624154e-85
5.5624154e-85
5.5624162e-85
5.5624223e-85
5.5624606e-85
5.5687824e-85
5.5633538e-85
5.5624271e-85
5.562313e-85
5.5623022e-85
5.5623013e-85
5.5623014e-85
5.5623021e-85
5.5623084e-85
5.5623471e-85
5.5687715e-85
5.563343e-85
5.5624162e-85
5.5623022e-85
5.5622913e-85
5.5622905e-85
5.5622905e-85
5.5622912e-85
5.5622976e-85
5.5623363e-85
5.5687706e-85
5.5633421e-85
5.5624154e-85
5.5623013e-85
5.5622905e-85
5.5622896e-85
5.5622896e-85
5.5622904e-85
5.5622967e-85
5.5623354e-85
5.5687706e-85
5.5633421e-85
5.5624154e-85
5.5623014e-85
5.5622905e-85
5.5622896e-85
5.5622897e-85
5.5622904e-85
5.5622967e-85
5.5623355e-85
5.5687708e-85
5.5633428e-85
5.5624162e-85
5.5623021e-85
5.5622912e-85
5.5622904e-85
5.5622904e-85
5.5622912e-85
5.5622975e-85
5.5623362e-85
5.5687722e-85
5.563348e-85
5.5624223e-85
5.5623084e-85
5.5622976e-85
5.5622967e-85
5.5622967e-85
5.5622975e-85
5.5623038e-85
5.5623425e-85
5.5687814e-85
5.5633825e-85
5.5624606e-85
5.5623471e-85
5.5623363e-85
5.5623354e-85
5.5623355e-85
5.5623362e-85
5.5623425e-85
5.5623813e-85
9.8533212e-84
9.8440183e-84
9.8424294e-84
9.8422338e-84
9.8422151e-84
9.8422137e-84
9.8422136e-84
9.8422139e-84
9.8422164e-84
9.842232e-84
9.8440183e-84
9.8347283e-84
9.8331415e-84
9.8329461e-84
9.8329275e-84
9.8329261e-84
9.8329261e-84
9.8329272e-84
9.8329364e-84
9.8329959e-84
9.8424294e-84
9.8331415e-84
9.8315551e-84
9.8313598e-84
9.8313412e-84
9.8313397e-84
9.8313398e-84
9.8313411e-84
9.8313518e-84
9.831418e-84
9.8422338e-84
9.8329461e-84
9.8313598e-84
9.8311645e-84
9.8311459e-84
9.8311445e-84
9.8311445e-84
9.8311458e-84
9.8311568e-84
9.8312237e-84
9.8422151e-84
9.8329275e-84
9.8313412e-84
9.8311459e-84
9.8311273e-84
9.8311259e-84
9.8311259e-84
9.8311272e-84
9.8311382e-84
9.8312052e-84
9.8422137e-84
9.8329261e-84
9.8313397e-84
9.8311445e-84
9.8311259e-84
9.8311244e-84
9.8311245e-84
9.8311258e-84
9.8311367e-84
9.8312038e-84
9.8422136e-84
9.8329261e-84
9.8313398e-84
9.8311445e-84
9.8311259e-84
9.8311245e-84
9.8311245e-84
9.8311258e-84
9.8311368e-84
9.8312038e-84
9.8422139e-84
9.8329272e-84
9.8313411e-84
9.8311458e-84
9.8311272e-84
9.8311258e-84
9.8311258e-84
9.8311272e-84
9.8311381e-84
9.8312051e-84
9.8422164e-84
9.8329364e-84
9.8313518e-84
9.8311568e-84
9.8311382e-84
9.8311367e-84
9.8311368e-84
9.8311381e-84
9.8311491e-84
9.8312161e-84
9.842232e-84
9.8329959e-84
9.831418e-84
9.8312237e-84
9.8312052e-84
9.8312038e-84
9.8312038e-84
9.8312051e-84
9.8312161e-84
9.8312831e-84
1.7894248e-82
1.7877903e-82
1.787511e-82
1.7874766e-82
1.7874733e-82
1.7874731e-82
1.7874731e-82
1.7874731e-82
1.7874736e-82
1.7874763e-82
1.7877903e-82
1.786158e-82
1.7858791e-82
1.7858447e-82
1.7858415e-82
1.7858412e-82
1.7858412e-82
1.7858414e-82
1.7858431e-82
1.7858536e-82
1.787511e-82
1.7858791e-82
1.7856002e-82
1.7855659e-82
1.7855626e-82
1.7855624e-82
1.7855624e-82
1.7855626e-82
1.7855645e-82
1.7855763e-82
1.7874766e-82
1.7858447e-82
1.7855659e-82
1.7855315e-82
1.7855283e-82
1.785528e-82
1.785528e-82
1.7855283e-82
1.7855302e-82
1.7855421e-82
1.7874733e-82
1.7858415e-82
1.7855626e-82
1.7855283e-82
1.785525e-82
1.7855247e-82
1.7855248e-82
1.785525e-82
1.7855269e-82
1.7855389e-82
1.7874731e-82
1.7858412e-82
1.7855624e-82
1.785528e-82
1.7855247e-82
1.7855245e-82
1.7855245e-82
1.7855247e-82
1.7855267e-82
1.7855386e-82
1.7874731e-82
1.7858412e-82
1.7855624e-82
1.785528e-82
1.7855248e-82
1.7855245e-82
1.7855245e-82
1.7855247e-82
1.7855267e-82
1.7855386e-82
1.7874731e-82
1.7858414e-82
1.7855626e-82
1.7855283e-82
1.785525e-82
1.7855247e-82
1.7855247e-82
1.785525e-82
1.7855269e-82
1.7855389e-82
1.7874736e-82
1.7858431e-82
1.7855645e-82
1.7855302e-82
1.7855269e-82
1.7855267e-82
1.7855267e-82
1.7855269e-82
1.7855289e-82
1.7855408e-82
1.7874763e-82
1.7858536e-82
1.7855763e-82
1.7855421e-82
1.7855389e-82
1.7855386e-82
1.7855386e-82
1.7855389e-82
1.7855408e-82
1.7855527e-82
3.3386598e-81
3.3357113e-81
3.3352072e-81
3.3351451e-81
3.3351392e-81
3.3351387e-81
3.3351387e-81
3.3351388e-81
3.3351396e-81
3.3351445e-81
3.3357113e-81
3.3327667e-81
3.3322632e-81
3.3322012e-81
3.3321953e-81
3.3321949e-81
3.3321949e-81
3.3321952e-81
3.3321982e-81
3.3322176e-81
3.3352072e-81
3.3322632e-81
3.3317599e-81
3.3316979e-81
3.331692e-81
3.3316916e-81
3.3316916e-81
3.331692e-81
3.3316955e-81
3.331717e-81
3.3351451e-81
3.3322012e-81
3.3316979e-81
3.3316359e-81
3.33163e-81
3.3316296e-81
3.3316296e-81
3.33163e-81
3.3316336e-81
3.3316554e-81
3.3351392e-81
3.3321953e-81
3.331692e-81
3.33163e-81
3.3316241e-81
3.3316237e-81
3.3316237e-81
3.3316241e-81
3.3316277e-81
3.3316495e-81
3.3351387e-81
3.3321949e-81
3.3316916e-81
3.3316296e-81
3.3316237e-81
3.3316232e-81
3.3316232e-81
3.3316237e-81
3.3316273e-81
3.331649e-81
3.3351387e-81
3.3321949e-81
3.3316916e-81
3.3316296e-81
3.3316237e-81
3.3316232e-81
3.3316232e-81
3.3316237e-81
3.3316273e-81
3.331649e-81
3.3351388e-81
3.3321952e-81
3.331692e-81
3.33163e-81
3.3316241e-81
3.3316237e-81
3.3316237e-81
3.3316241e-81
3.3316277e-81
3.3316495e-81
3.3351396e-81
3.3321982e-81
3.3316955e-81
3.3316336e-81
3.3316277e-81
3.3316273e-81
3.3316273e-81
3.3316277e-81
3.3316313e-81
3.3316531e-81
3.3351445e-81
3.3322176e-81
3.331717e-81
3.3316554e-81
3.3316495e-81
3.331649e-81
3.331649e-81
3.3316495e-81
3.3316531e-81
3.3316749e-81
6.3983439e-80
6.3928839e-80
6.3919501e-80
6.3918351e-80
6.3918241e-80
6.3918232e-80
6.3918232e-80
6.3918234e-80
6.3918249e-80
6.3918339e-80
6.3928839e-80
6.3874311e-80
6.3864984e-80
6.3863835e-80
6.3863726e-80
6.3863717e-80
6.3863717e-80
6.3863724e-80
6.3863781e-80
6.3864143e-80
6.3919501e-80
6.3864984e-80
6.3855659e-80
6.385451e-80
6.3854401e-80
6.3854393e-80
6.3854393e-80
6.3854401e-80
6.3854467e-80
6.385487e-80
6.3918351e-80
6.3863835e-80
6.385451e-80
6.3853362e-80
6.3853253e-80
6.3853244e-80
6.3853245e-80
6.3853253e-80
6.385332e-80
6.3853728e-80
6.3918241e-80
6.3863726e-80
6.3854401e-80
6.3853253e-80
6.3853143e-80
6.3853135e-80
6.3853135e-80
6.3853143e-80
6.3853211e-80
6.385362e-80
6.3918232e-80
6.3863717e-80
6.3854393e-80
6.3853244e-80
6.3853135e-80
6.3853126e-80
6.3853127e-80
6.3853135e-80
6.3853202e-80
6.3853611e-80
6.3918232e-80
6.3863717e-80
6.3854393e-80
6.3853245e-80
6.3853135e-80
6.3853127e-80
6.3853127e-80
6.3853135e-80
6.3853203e-80
6.3853611e-80
6.3918234e-80
6.3863724e-80
6.3854401e-80
6.3853253e-80
6.3853143e-80
6.3853135e-80
6.3853135e-80
6.3853143e-80
6.3853211e-80
6.385362e-80
6.3918249e-80
6.3863781e-80
6.3854467e-80
6.385332e-80
6.3853211e-80
6.3853202e-80
6.3853203e-80
6.3853211e-80
6.3853278e-80
6.3853687e-80
6.3918339e-80
6.3864143e-80
6.385487e-80
6.3853728e-80
6.385362e-80
6.3853611e-80
6.3853611e-80
6.385362e-80
6.3853687e-80
6.3854096e-80
1.2592229e-78
1.2581853e-78
1.2580077e-78
1.2579859e-78
1.2579838e-78
1.2579836e-78
1.2579836e-78
1.2579837e-78
1.257984e-78
1.2579857e-78
1.2581853e-78
1.257149e-78
1.2569717e-78
1.2569499e-78
1.2569478e-78
1.2569476e-78
1.2569476e-78
1.2569477e-78
1.2569488e-78
1.2569558e-78
1.2580077e-78
1.2569717e-78
1.2567944e-78
1.2567726e-78
1.2567705e-78
1.2567703e-78
1.2567703e-78
1.2567705e-78
1.2567718e-78
1.2567795e-78
1.2579859e-78
1.2569499e-78
1.2567726e-78
1.2567507e-78
1.2567487e-78
1.2567485e-78
1.2567485e-78
1.2567487e-78
1.25675e-78
1.2567578e-78
1.2579838e-78
1.2569478e-78
1.2567705e-78
1.2567487e-78
1.2567466e-78
1.2567464e-78
1.2567464e-78
1.2567466e-78
1.2567479e-78
1.2567558e-78
1.2579836e-78
1.2569476e-78
1.2567703e-78
1.2567485e-78
1.2567464e-78
1.2567462e-78
1.2567463e-78
1.2567464e-78
1.2567477e-78
1.2567556e-78
1.2579836e-78
1.2569476e-78
1.2567703e-78
1.2567485e-78
1.2567464e-78
1.2567463e-78
1.2567463e-78
1.2567464e-78
1.2567477e-78
1.2567556e-78
1.2579837e-78
1.2569477e-78
1.2567705e-78
1.2567487e-78
1.2567466e-78
1.2567464e-78
1.2567464e-78
1.2567466e-78
1.2567479e-78
1.2567558e-78
1.257984e-78
1.2569488e-78
1.2567718e-78
1.25675e-78
1.2567479e-78
1.2567477e-78
1.2567477e-78
1.2567479e-78
1.2567492e-78
1.2567571e-78
1.2579857e-78
1.2569558e-78
1.2567795e-78
1.2567578e-78
1.2567558e-78
1.2567556e-78
1.2567556e-78
1.2567558e-78
1.2567571e-78
1.2567649e-78
2.544334e-77
2.542311e-77
2.5419647e-77
2.541922e-77
2.5419179e-77
2.5419176e-77
2.5419176e-77
2.5419177e-77
2.5419183e-77
2.5419216e-77
2.542311e-77
2.5402905e-77
2.5399446e-77
2.539902e-77
2.5398979e-77
2.5398976e-77
2.5398976e-77
2.5398979e-77
2.5399e-77
2.5399138e-77
2.5419647e-77
2.5399446e-77
2.5395987e-77
2.5395561e-77
2.5395521e-77
2.5395518e-77
2.5395518e-77
2.5395521e-77
2.5395546e-77
2.53957e-77
2.541922e-77
2.539902e-77
2.5395561e-77
2.5395135e-77
2.5395095e-77
2.5395092e-77
2.5395092e-77
2.5395095e-77
2.5395121e-77
2.5395276e-77
2.5419179e-77
2.5398979e-77
2.5395521e-77
2.5395095e-77
2.5395054e-77
2.5395051e-77
2.5395051e-77
2.5395054e-77
2.539508e-77
2.5395236e-77
2.5419176e-77
2.5398976e-77
2.5395518e-77
2.5395092e-77
2.5395051e-77
2.5395048e-77
2.5395048e-77
2.5395051e-77
2.5395077e-77
2.5395233e-77
2.5419176e-77
2.5398976e-77
2.5395518e-77
2.5395092e-77
2.5395051e-77
2.5395048e-77
2.5395048e-77
2.5395051e-77
2.5395077e-77
2.5395233e-77
2.5419177e-77
2.5398979e-77
2.5395521e-77
2.5395095e-77
2.5395054e-77
2.5395051e-77
2.5395051e-77
2.5395054e-77
2.539508e-77
2.5395236e-77
2.5419183e-77
2.5399e-77
2.5395546e-77
2.5395121e-77
2.539508e-77
2.5395077e-77
2.5395077e-77
2.539508e-77
2.5395106e-77
2.5395262e-77
2.5419216e-77
2.5399138e-77
2.53957e-77
2.5395276e-77
2.5395236e-77
2.5395233e-77
2.5395233e-77
2.5395236e-77
2.5395262e-77
2.5395418e-77
5.2768252e-76
5.2727795e-76
5.2720866e-76
5.2720013e-76
5.2719931e-76
5.2719925e-76
5.2719925e-76
5.2719926e-76
5.2719938e-76
5.2720004e-76
5.2727795e-76
5.2687387e-76
5.2680466e-76
5.2679614e-76
5.2679532e-76
5.2679526e-76
5.2679526e-76
5.2679531e-76
5.2679576e-76
5.2679856e-76
5.2720866e-76
5.2680466e-76
5.2673547e-76
5.2672694e-76
5.2672613e-76
5.2672607e-76
5.2672607e-76
5.2672613e-76
5.2672665e-76
5.2672977e-76
5.2720013e-76
5.2679614e-76
5.2672694e-76
5.2671842e-76
5.2671761e-76
5.2671755e-76
5.2671755e-76
5.2671761e-76
5.2671814e-76
5.267213e-76
5.2719931e-76
5.2679532e-76
5.2672613e-76
5.2671761e-76
5.267168e-76
5.2671673e-76
5.2671673e-76
5.267168e-76
5.2671733e-76
5.2672049e-76
5.2719925e-76
5.2679526e-76
5.2672607e-76
5.2671755e-76
5.2671673e-76
5.2671667e-76
5.2671667e-76
5.2671674e-76
5.2671726e-76
5.2672043e-76
5.2719925e-76
5.2679526e-76
5.2672607e-76
5.2671755e-76
5.2671673e-76
5.2671667e-76
5.2671667e-76
5.2671674e-76
5.2671727e-76
5.2672043e-76
5.2719926e-76
5.2679531e-76
5.2672613e-76
5.2671761e-76
5.267168e-76
5.2671674e-76
5.2671674e-76
5.267168e-76
5.2671733e-76
5.267205e-76
5.2719938e-76
5.2679576e-76
5.2672665e-76
5.2671814e-76
5.2671733e-76
5.2671726e-76
5.2671727e-76
5.2671733e-76
5.2671786e-76
5.2672102e-76
5.2720004e-76
5.2679856e-76
5.2672977e-76
5.267213e-76
5.2672049e-76
5.2672043e-76
5.2672043e-76
5.267205e-76
5.2672102e-76
5.2672419e-76
1.1230069e-74
1.1221772e-74
1.1220351e-74
1.1220176e-74
1.1220159e-74
1.1220158e-74
1.1220158e-74
1.1220158e-74
1.122016e-74
1.1220174e-74
1.1221772e-74
1.1213486e-74
1.1212066e-74
1.1211891e-74
1.1211874e-74
1.1211873e-74
1.1211873e-74
1.1211874e-74
1.1211883e-74
1.1211942e-74
1.1220351e-74
1.1212066e-74
1.1210646e-74
1.1210472e-74
1.1210455e-74
1.1210454e-74
1.1210454e-74
1.1210455e-74
1.1210466e-74
1.1210531e-74
1.1220176e-74
1.1211891e-74
1.1210472e-74
1.1210297e-74
1.121028e-74
1.1210279e-74
1.1210279e-74
1.121028e-74
1.1210291e-74
1.1210357e-74
1.1220159e-74
1.1211874e-74
1.1210455e-74
1.121028e-74
1.1210263e-74
1.1210262e-74
1.1210262e-74
1.1210263e-74
1.1210274e-74
1.121034e-74
1.1220158e-74
1.1211873e-74
1.1210454e-74
1.1210279e-74
1.1210262e-74
1.1210261e-74
1.1210261e-74
1.1210262e-74
1.1210273e-74
1.1210339e-74
1.1220158e-74
1.1211873e-74
1.1210454e-74
1.1210279e-74
1.1210262e-74
1.1210261e-74
1.1210261e-74
1.1210262e-74
1.1210273e-74
1.1210339e-74
1.1220158e-74
1.1211874e-74
1.1210455e-74
1.121028e-74
1.1210263e-74
1.1210262e-74
1.1210262e-74
1.1210264e-74
1.1210275e-74
1.121034e-74
1.122016e-74
1.1211883e-74
1.1210466e-74
1.1210291e-74
1.1210274e-74
1.1210273e-74
1.1210273e-74
1.1210275e-74
1.1210286e-74
1.1210352e-74
1.1220174e-74
1.1211942e-74
1.1210531e-74
1.1210357e-74
1.121034e-74
1.1210339e-74
1.1210339e-74
1.121034e-74
1.1210352e-74
1.1210417e-74
2.451774e-73
2.4500301e-73
2.4497312e-73
2.4496943e-73
2.4496908e-73
2.4496906e-73
2.4496905e-73
2.4496906e-73
2.4496911e-73
2.449694e-73
2.4500301e-73
2.4482882e-73
2.4479896e-73
2.4479528e-73
2.4479493e-73
2.447949e-73
2.447949e-73
2.4479493e-73
2.4479512e-73
2.4479637e-73
2.4497312e-73
2.4479896e-73
2.4476911e-73
2.4476543e-73
2.4476508e-73
2.4476505e-73
2.4476505e-73
2.4476508e-73
2.4476531e-73
2.447667e-73
2.4496943e-73
2.4479528e-73
2.4476543e-73
2.4476175e-73
2.447614e-73
2.4476137e-73
2.4476137e-73
2.447614e-73
2.4476164e-73
2.4476305e-73
2.4496908e-73
2.4479493e-73
2.4476508e-73
2.447614e-73
2.4476105e-73
2.4476102e-73
2.4476102e-73
2.4476105e-73
2.4476129e-73
2.447627e-73
2.4496906e-73
2.447949e-73
2.4476505e-73
2.4476137e-73
2.4476102e-73
2.44761e-73
2.44761e-73
2.4476103e-73
2.4476126e-73
2.4476267e-73
2.4496905e-73
2.447949e-73
2.4476505e-73
2.4476137e-73
2.4476102e-73
2.44761e-73
2.44761e-73
2.4476103e-73
2.4476126e-73
2.4476267e-73
2.4496906e-73
2.4479493e-73
2.4476508e-73
2.447614e-73
2.4476105e-73
2.4476103e-73
2.4476103e-73
2.4476106e-73
2.4476129e-73
2.447627e-73
2.4496911e-73
2.4479512e-73
2.4476531e-73
2.4476164e-73
2.4476129e-73
2.4476126e-73
2.4476126e-73
2.4476129e-73
2.4476153e-73
2.4476294e-73
2.449694e-73
2.4479637e-73
2.447667e-73
2.4476305e-73
2.447627e-73
2.4476267e-73
2.4476267e-73
2.447627e-73