/*--------------------------------*- C++ -*----------------------------------*\
| =========                 |                                                 |
| \\      /  F ield         | OpenFOAM: The Open Source CFD Toolbox           |
|  \\    /   O peration     | Version:  dev                                   |
|   \\  /    A nd           | Web:      www.OpenFOAM.org                      |
|    \\/     M anipulation  |                                                 |
\*---------------------------------------------------------------------------*/
FoamFile
{
    version     2.0;
    format      ascii;
    class       volScalarField;
    location    "4";
    object      A_0;
}
// * * * * * * * * * * * * * * * * * * * * * * * * * * * * * * * * * * * * * //

dimensions      [0 0 0 0 1 0 0];

internalField   nonuniform List<scalar> 
10000
(
5.6709721e-98
5.6633272e-98
5.662034e-98
5.6618753e-98
5.6618602e-98
5.6618591e-98
5.661859e-98
5.6618592e-98
5.6618611e-98
5.6618758e-98
5.6633272e-98
5.655696e-98
5.654405e-98
5.6542466e-98
5.6542315e-98
5.6542303e-98
5.6542303e-98
5.6542311e-98
5.6542375e-98
5.6542817e-98
5.662034e-98
5.654405e-98
5.6531144e-98
5.6529561e-98
5.652941e-98
5.6529398e-98
5.6529398e-98
5.6529407e-98
5.6529482e-98
5.6529969e-98
5.6618753e-98
5.6542466e-98
5.6529561e-98
5.6527977e-98
5.6527826e-98
5.6527815e-98
5.6527815e-98
5.6527824e-98
5.65279e-98
5.6528392e-98
5.6618602e-98
5.6542315e-98
5.652941e-98
5.6527826e-98
5.6527676e-98
5.6527664e-98
5.6527664e-98
5.6527673e-98
5.6527749e-98
5.6528242e-98
5.6618591e-98
5.6542303e-98
5.6529398e-98
5.6527815e-98
5.6527664e-98
5.6527652e-98
5.6527653e-98
5.6527662e-98
5.6527738e-98
5.652823e-98
5.661859e-98
5.6542303e-98
5.6529398e-98
5.6527815e-98
5.6527664e-98
5.6527653e-98
5.6527653e-98
5.6527662e-98
5.6527738e-98
5.652823e-98
5.6618592e-98
5.6542311e-98
5.6529407e-98
5.6527824e-98
5.6527673e-98
5.6527662e-98
5.6527662e-98
5.6527671e-98
5.6527747e-98
5.6528239e-98
5.6618611e-98
5.6542375e-98
5.6529482e-98
5.65279e-98
5.6527749e-98
5.6527738e-98
5.6527738e-98
5.6527747e-98
5.6527823e-98
5.6528316e-98
5.6618758e-98
5.6542817e-98
5.6529969e-98
5.6528392e-98
5.6528242e-98
5.652823e-98
5.652823e-98
5.6528239e-98
5.6528316e-98
5.6528808e-98
7.973525e-97
7.9630543e-97
7.9612794e-97
7.9610616e-97
7.9610408e-97
7.9610392e-97
7.9610392e-97
7.9610395e-97
7.9610421e-97
7.9610628e-97
7.9630543e-97
7.9526019e-97
7.95083e-97
7.9506125e-97
7.9505918e-97
7.9505902e-97
7.9505902e-97
7.9505912e-97
7.9506002e-97
7.950662e-97
7.9612794e-97
7.95083e-97
7.9490587e-97
7.9488413e-97
7.9488206e-97
7.948819e-97
7.948819e-97
7.9488202e-97
7.9488306e-97
7.9488986e-97
7.9610616e-97
7.9506125e-97
7.9488413e-97
7.9486239e-97
7.9486032e-97
7.9486016e-97
7.9486016e-97
7.9486029e-97
7.9486134e-97
7.9486822e-97
7.9610408e-97
7.9505918e-97
7.9488206e-97
7.9486032e-97
7.9485825e-97
7.9485809e-97
7.9485809e-97
7.9485822e-97
7.9485928e-97
7.9486616e-97
7.9610392e-97
7.9505902e-97
7.948819e-97
7.9486016e-97
7.9485809e-97
7.9485793e-97
7.9485793e-97
7.9485806e-97
7.9485912e-97
7.94866e-97
7.9610392e-97
7.9505902e-97
7.948819e-97
7.9486016e-97
7.9485809e-97
7.9485793e-97
7.9485793e-97
7.9485806e-97
7.9485912e-97
7.94866e-97
7.9610395e-97
7.9505912e-97
7.9488202e-97
7.9486029e-97
7.9485822e-97
7.9485806e-97
7.9485806e-97
7.9485819e-97
7.9485924e-97
7.9486613e-97
7.9610421e-97
7.9506002e-97
7.9488306e-97
7.9486134e-97
7.9485928e-97
7.9485912e-97
7.9485912e-97
7.9485924e-97
7.948603e-97
7.9486719e-97
7.9610628e-97
7.950662e-97
7.9488986e-97
7.9486822e-97
7.9486616e-97
7.94866e-97
7.94866e-97
7.9486613e-97
7.9486719e-97
7.9487407e-97
1.0664187e-95
1.0650561e-95
1.064825e-95
1.0647966e-95
1.0647939e-95
1.0647937e-95
1.0647937e-95
1.0647937e-95
1.0647941e-95
1.0647967e-95
1.0650561e-95
1.0636959e-95
1.0634652e-95
1.0634369e-95
1.0634342e-95
1.063434e-95
1.063434e-95
1.0634341e-95
1.0634353e-95
1.0634434e-95
1.064825e-95
1.0634652e-95
1.0632345e-95
1.0632062e-95
1.0632035e-95
1.0632033e-95
1.0632033e-95
1.0632035e-95
1.0632048e-95
1.0632137e-95
1.0647966e-95
1.0634369e-95
1.0632062e-95
1.0631779e-95
1.0631752e-95
1.063175e-95
1.063175e-95
1.0631752e-95
1.0631765e-95
1.0631855e-95
1.0647939e-95
1.0634342e-95
1.0632035e-95
1.0631752e-95
1.0631725e-95
1.0631723e-95
1.0631723e-95
1.0631725e-95
1.0631738e-95
1.0631829e-95
1.0647937e-95
1.063434e-95
1.0632033e-95
1.063175e-95
1.0631723e-95
1.0631721e-95
1.0631721e-95
1.0631722e-95
1.0631736e-95
1.0631827e-95
1.0647937e-95
1.063434e-95
1.0632033e-95
1.063175e-95
1.0631723e-95
1.0631721e-95
1.0631721e-95
1.0631723e-95
1.0631736e-95
1.0631827e-95
1.0647937e-95
1.0634341e-95
1.0632035e-95
1.0631752e-95
1.0631725e-95
1.0631722e-95
1.0631723e-95
1.0631724e-95
1.0631738e-95
1.0631828e-95
1.0647941e-95
1.0634353e-95
1.0632048e-95
1.0631765e-95
1.0631738e-95
1.0631736e-95
1.0631736e-95
1.0631738e-95
1.0631752e-95
1.0631842e-95
1.0647967e-95
1.0634434e-95
1.0632137e-95
1.0631855e-95
1.0631829e-95
1.0631827e-95
1.0631827e-95
1.0631828e-95
1.0631842e-95
1.0631932e-95
1.4669378e-94
1.465115e-94
1.4648056e-94
1.4647676e-94
1.464764e-94
1.4647637e-94
1.4647637e-94
1.4647638e-94
1.4647642e-94
1.4647677e-94
1.465115e-94
1.4632953e-94
1.4629865e-94
1.4629485e-94
1.4629449e-94
1.4629446e-94
1.4629446e-94
1.4629448e-94
1.4629464e-94
1.4629573e-94
1.4648056e-94
1.4629865e-94
1.4626777e-94
1.4626397e-94
1.4626361e-94
1.4626359e-94
1.4626359e-94
1.4626361e-94
1.4626379e-94
1.4626499e-94
1.4647676e-94
1.4629485e-94
1.4626397e-94
1.4626018e-94
1.4625982e-94
1.462598e-94
1.462598e-94
1.4625982e-94
1.4626001e-94
1.4626122e-94
1.464764e-94
1.4629449e-94
1.4626361e-94
1.4625982e-94
1.4625946e-94
1.4625943e-94
1.4625943e-94
1.4625946e-94
1.4625965e-94
1.4626086e-94
1.4647637e-94
1.4629446e-94
1.4626359e-94
1.462598e-94
1.4625943e-94
1.4625941e-94
1.4625941e-94
1.4625943e-94
1.4625962e-94
1.4626083e-94
1.4647637e-94
1.4629446e-94
1.4626359e-94
1.462598e-94
1.4625943e-94
1.4625941e-94
1.4625941e-94
1.4625943e-94
1.4625962e-94
1.4626083e-94
1.4647638e-94
1.4629448e-94
1.4626361e-94
1.4625982e-94
1.4625946e-94
1.4625943e-94
1.4625943e-94
1.4625945e-94
1.4625964e-94
1.4626085e-94
1.4647642e-94
1.4629464e-94
1.4626379e-94
1.4626001e-94
1.4625965e-94
1.4625962e-94
1.4625962e-94
1.4625964e-94
1.4625983e-94
1.4626104e-94
1.4647677e-94
1.4629573e-94
1.4626499e-94
1.4626122e-94
1.4626086e-94
1.4626083e-94
1.4626083e-94
1.4626085e-94
1.4626104e-94
1.4626225e-94
2.0761141e-93
2.0736065e-93
2.0731806e-93
2.0731283e-93
2.0731233e-93
2.073123e-93
2.0731229e-93
2.073123e-93
2.0731237e-93
2.0731283e-93
2.0736065e-93
2.0711031e-93
2.0706778e-93
2.0706256e-93
2.0706206e-93
2.0706203e-93
2.0706203e-93
2.0706205e-93
2.0706227e-93
2.0706377e-93
2.0731806e-93
2.0706778e-93
2.0702527e-93
2.0702005e-93
2.0701955e-93
2.0701952e-93
2.0701952e-93
2.0701955e-93
2.0701981e-93
2.0702146e-93
2.0731283e-93
2.0706256e-93
2.0702005e-93
2.0701483e-93
2.0701433e-93
2.070143e-93
2.070143e-93
2.0701433e-93
2.0701459e-93
2.0701627e-93
2.0731233e-93
2.0706206e-93
2.0701955e-93
2.0701433e-93
2.0701384e-93
2.070138e-93
2.070138e-93
2.0701383e-93
2.0701409e-93
2.0701577e-93
2.073123e-93
2.0706203e-93
2.0701952e-93
2.070143e-93
2.070138e-93
2.0701376e-93
2.0701376e-93
2.0701379e-93
2.0701406e-93
2.0701573e-93
2.0731229e-93
2.0706203e-93
2.0701952e-93
2.070143e-93
2.070138e-93
2.0701376e-93
2.0701376e-93
2.0701379e-93
2.0701406e-93
2.0701573e-93
2.073123e-93
2.0706205e-93
2.0701955e-93
2.0701433e-93
2.0701383e-93
2.0701379e-93
2.0701379e-93
2.0701383e-93
2.0701409e-93
2.0701577e-93
2.0731237e-93
2.0706227e-93
2.0701981e-93
2.0701459e-93
2.0701409e-93
2.0701406e-93
2.0701406e-93
2.0701409e-93
2.0701435e-93
2.0701603e-93
2.0731283e-93
2.0706377e-93
2.0702146e-93
2.0701627e-93
2.0701577e-93
2.0701573e-93
2.0701573e-93
2.0701577e-93
2.0701603e-93
2.0701771e-93
3.0227761e-92
3.0192288e-92
3.0186259e-92
3.0185518e-92
3.0185448e-92
3.0185442e-92
3.0185442e-92
3.0185443e-92
3.0185452e-92
3.0185517e-92
3.0192288e-92
3.0156872e-92
3.0150852e-92
3.0150113e-92
3.0150042e-92
3.0150037e-92
3.0150037e-92
3.0150041e-92
3.0150072e-92
3.0150286e-92
3.0186259e-92
3.0150852e-92
3.0144834e-92
3.0144095e-92
3.0144025e-92
3.0144019e-92
3.0144019e-92
3.0144024e-92
3.0144061e-92
3.0144297e-92
3.0185518e-92
3.0150113e-92
3.0144095e-92
3.0143356e-92
3.0143286e-92
3.014328e-92
3.014328e-92
3.0143285e-92
3.0143322e-92
3.0143561e-92
3.0185448e-92
3.0150042e-92
3.0144025e-92
3.0143286e-92
3.0143215e-92
3.014321e-92
3.014321e-92
3.0143214e-92
3.0143252e-92
3.0143491e-92
3.0185442e-92
3.0150037e-92
3.0144019e-92
3.014328e-92
3.014321e-92
3.0143204e-92
3.0143205e-92
3.0143209e-92
3.0143247e-92
3.0143486e-92
3.0185442e-92
3.0150037e-92
3.0144019e-92
3.014328e-92
3.014321e-92
3.0143205e-92
3.0143205e-92
3.0143209e-92
3.0143247e-92
3.0143486e-92
3.0185443e-92
3.0150041e-92
3.0144024e-92
3.0143285e-92
3.0143214e-92
3.0143209e-92
3.0143209e-92
3.0143214e-92
3.0143251e-92
3.014349e-92
3.0185452e-92
3.0150072e-92
3.0144061e-92
3.0143322e-92
3.0143252e-92
3.0143247e-92
3.0143247e-92
3.0143251e-92
3.0143289e-92
3.0143528e-92
3.0185517e-92
3.0150286e-92
3.0144297e-92
3.0143561e-92
3.0143491e-92
3.0143486e-92
3.0143486e-92
3.014349e-92
3.0143528e-92
3.0143767e-92
4.527205e-91
4.5220454e-91
4.521168e-91
4.5210602e-91
4.52105e-91
4.5210492e-91
4.5210491e-91
4.5210493e-91
4.5210506e-91
4.5210599e-91
4.5220454e-91
4.516894e-91
4.5160179e-91
4.5159103e-91
4.5159001e-91
4.5158993e-91
4.5158993e-91
4.5158998e-91
4.5159045e-91
4.5159358e-91
4.521168e-91
4.5160179e-91
4.5151421e-91
4.5150345e-91
4.5150243e-91
4.5150235e-91
4.5150235e-91
4.5150241e-91
4.5150296e-91
4.5150641e-91
4.5210602e-91
4.5159103e-91
4.5150345e-91
4.5149269e-91
4.5149167e-91
4.5149159e-91
4.5149159e-91
4.5149166e-91
4.5149221e-91
4.5149571e-91
4.52105e-91
4.5159001e-91
4.5150243e-91
4.5149167e-91
4.5149064e-91
4.5149056e-91
4.5149057e-91
4.5149063e-91
4.5149119e-91
4.5149469e-91
4.5210492e-91
4.5158993e-91
4.5150235e-91
4.5149159e-91
4.5149056e-91
4.5149049e-91
4.5149049e-91
4.5149055e-91
4.5149111e-91
4.5149461e-91
4.5210491e-91
4.5158993e-91
4.5150235e-91
4.5149159e-91
4.5149057e-91
4.5149049e-91
4.5149049e-91
4.5149056e-91
4.5149111e-91
4.5149461e-91
4.5210493e-91
4.5158998e-91
4.5150241e-91
4.5149166e-91
4.5149063e-91
4.5149055e-91
4.5149056e-91
4.5149062e-91
4.5149118e-91
4.5149468e-91
4.5210506e-91
4.5159045e-91
4.5150296e-91
4.5149221e-91
4.5149119e-91
4.5149111e-91
4.5149111e-91
4.5149118e-91
4.5149173e-91
4.5149523e-91
4.5210599e-91
4.5159358e-91
4.5150641e-91
4.5149571e-91
4.5149469e-91
4.5149461e-91
4.5149461e-91
4.5149468e-91
4.5149523e-91
4.5149873e-91
6.9738626e-90
6.9661478e-90
6.9648351e-90
6.9646738e-90
6.9646584e-90
6.9646572e-90
6.9646572e-90
6.9646574e-90
6.9646594e-90
6.9646731e-90
6.9661478e-90
6.958445e-90
6.9571342e-90
6.9569731e-90
6.9569578e-90
6.9569566e-90
6.9569566e-90
6.9569575e-90
6.9569645e-90
6.9570116e-90
6.9648351e-90
6.9571342e-90
6.9558238e-90
6.9556628e-90
6.9556474e-90
6.9556462e-90
6.9556463e-90
6.9556473e-90
6.9556555e-90
6.9557076e-90
6.9646738e-90
6.9569731e-90
6.9556628e-90
6.9555018e-90
6.9554864e-90
6.9554853e-90
6.9554853e-90
6.9554863e-90
6.9554947e-90
6.9555474e-90
6.9646584e-90
6.9569578e-90
6.9556474e-90
6.9554864e-90
6.9554711e-90
6.9554699e-90
6.9554699e-90
6.955471e-90
6.9554794e-90
6.9555321e-90
6.9646572e-90
6.9569566e-90
6.9556462e-90
6.9554853e-90
6.9554699e-90
6.9554687e-90
6.9554688e-90
6.9554698e-90
6.9554782e-90
6.9555309e-90
6.9646572e-90
6.9569566e-90
6.9556463e-90
6.9554853e-90
6.9554699e-90
6.9554688e-90
6.9554688e-90
6.9554698e-90
6.9554782e-90
6.955531e-90
6.9646574e-90
6.9569575e-90
6.9556473e-90
6.9554863e-90
6.955471e-90
6.9554698e-90
6.9554698e-90
6.9554708e-90
6.9554792e-90
6.955532e-90
6.9646594e-90
6.9569645e-90
6.9556555e-90
6.9554947e-90
6.9554794e-90
6.9554782e-90
6.9554782e-90
6.9554792e-90
6.9554876e-90
6.9555404e-90
6.9646731e-90
6.9570116e-90
6.9557076e-90
6.9555474e-90
6.9555321e-90
6.9555309e-90
6.955531e-90
6.955532e-90
6.9555404e-90
6.9555931e-90
1.1047923e-88
1.1036066e-88
1.1034047e-88
1.1033799e-88
1.1033776e-88
1.1033774e-88
1.1033774e-88
1.1033774e-88
1.1033777e-88
1.1033798e-88
1.1036066e-88
1.1024227e-88
1.1022211e-88
1.1021963e-88
1.102194e-88
1.1021938e-88
1.1021938e-88
1.1021939e-88
1.102195e-88
1.1022023e-88
1.1034047e-88
1.1022211e-88
1.1020196e-88
1.1019948e-88
1.1019925e-88
1.1019923e-88
1.1019923e-88
1.1019924e-88
1.1019937e-88
1.1020018e-88
1.1033799e-88
1.1021963e-88
1.1019948e-88
1.1019701e-88
1.1019677e-88
1.1019675e-88
1.1019675e-88
1.1019677e-88
1.101969e-88
1.1019772e-88
1.1033776e-88
1.102194e-88
1.1019925e-88
1.1019677e-88
1.1019653e-88
1.1019652e-88
1.1019652e-88
1.1019653e-88
1.1019666e-88
1.1019748e-88
1.1033774e-88
1.1021938e-88
1.1019923e-88
1.1019675e-88
1.1019652e-88
1.101965e-88
1.101965e-88
1.1019651e-88
1.1019665e-88
1.1019746e-88
1.1033774e-88
1.1021938e-88
1.1019923e-88
1.1019675e-88
1.1019652e-88
1.101965e-88
1.101965e-88
1.1019651e-88
1.1019665e-88
1.1019746e-88
1.1033774e-88
1.1021939e-88
1.1019924e-88
1.1019677e-88
1.1019653e-88
1.1019651e-88
1.1019651e-88
1.1019653e-88
1.1019666e-88
1.1019748e-88
1.1033777e-88
1.102195e-88
1.1019937e-88
1.101969e-88
1.1019666e-88
1.1019665e-88
1.1019665e-88
1.1019666e-88
1.1019679e-88
1.1019761e-88
1.1033798e-88
1.1022023e-88
1.1020018e-88
1.1019772e-88
1.1019748e-88
1.1019746e-88
1.1019746e-88
1.1019748e-88
1.1019761e-88
1.1019843e-88
1.799667e-87
1.7977941e-87
1.7974751e-87
1.7974358e-87
1.7974321e-87
1.7974318e-87
1.7974318e-87
1.7974319e-87
1.7974324e-87
1.7974356e-87
1.7977941e-87
1.795924e-87
1.7956054e-87
1.7955663e-87
1.7955625e-87
1.7955622e-87
1.7955622e-87
1.7955624e-87
1.7955642e-87
1.7955758e-87
1.7974751e-87
1.7956054e-87
1.7952869e-87
1.7952478e-87
1.795244e-87
1.7952437e-87
1.7952437e-87
1.795244e-87
1.7952461e-87
1.7952589e-87
1.7974358e-87
1.7955663e-87
1.7952478e-87
1.7952086e-87
1.7952049e-87
1.7952046e-87
1.7952046e-87
1.7952049e-87
1.795207e-87
1.79522e-87
1.7974321e-87
1.7955625e-87
1.795244e-87
1.7952049e-87
1.7952012e-87
1.7952009e-87
1.7952009e-87
1.7952011e-87
1.7952032e-87
1.7952163e-87
1.7974318e-87
1.7955622e-87
1.7952437e-87
1.7952046e-87
1.7952009e-87
1.7952006e-87
1.7952006e-87
1.7952008e-87
1.795203e-87
1.795216e-87
1.7974318e-87
1.7955622e-87
1.7952437e-87
1.7952046e-87
1.7952009e-87
1.7952006e-87
1.7952006e-87
1.7952009e-87
1.795203e-87
1.795216e-87
1.7974319e-87
1.7955624e-87
1.795244e-87
1.7952049e-87
1.7952011e-87
1.7952008e-87
1.7952009e-87
1.7952011e-87
1.7952032e-87
1.7952163e-87
1.7974324e-87
1.7955642e-87
1.7952461e-87
1.795207e-87
1.7952032e-87
1.795203e-87
1.795203e-87
1.7952032e-87
1.7952053e-87
1.7952184e-87
1.7974356e-87
1.7955758e-87
1.7952589e-87
1.79522e-87
1.7952163e-87
1.795216e-87
1.795216e-87
1.7952163e-87
1.7952184e-87
1.7952314e-87
3.0139999e-86
3.0109601e-86
3.010442e-86
3.0103783e-86
3.0103722e-86
3.0103718e-86
3.0103717e-86
3.0103718e-86
3.0103726e-86
3.0103778e-86
3.0109601e-86
3.0079247e-86
3.0074073e-86
3.0073437e-86
3.0073377e-86
3.0073372e-86
3.0073372e-86
3.0073375e-86
3.0073405e-86
3.0073595e-86
3.010442e-86
3.0074073e-86
3.0068901e-86
3.0068265e-86
3.0068204e-86
3.00682e-86
3.00682e-86
3.0068204e-86
3.0068238e-86
3.0068449e-86
3.0103783e-86
3.0073437e-86
3.0068265e-86
3.0067629e-86
3.0067569e-86
3.0067564e-86
3.0067564e-86
3.0067568e-86
3.0067603e-86
3.0067816e-86
3.0103722e-86
3.0073377e-86
3.0068204e-86
3.0067569e-86
3.0067508e-86
3.0067503e-86
3.0067503e-86
3.0067508e-86
3.0067542e-86
3.0067756e-86
3.0103718e-86
3.0073372e-86
3.00682e-86
3.0067564e-86
3.0067503e-86
3.0067499e-86
3.0067499e-86
3.0067503e-86
3.0067538e-86
3.0067751e-86
3.0103717e-86
3.0073372e-86
3.00682e-86
3.0067564e-86
3.0067503e-86
3.0067499e-86
3.0067499e-86
3.0067503e-86
3.0067538e-86
3.0067752e-86
3.0103718e-86
3.0073375e-86
3.0068204e-86
3.0067568e-86
3.0067508e-86
3.0067503e-86
3.0067503e-86
3.0067507e-86
3.0067542e-86
3.0067756e-86
3.0103726e-86
3.0073405e-86
3.0068238e-86
3.0067603e-86
3.0067542e-86
3.0067538e-86
3.0067538e-86
3.0067542e-86
3.0067577e-86
3.006779e-86
3.0103778e-86
3.0073595e-86
3.0068449e-86
3.0067816e-86
3.0067756e-86
3.0067751e-86
3.0067752e-86
3.0067756e-86
3.006779e-86
3.0068004e-86
5.1887675e-85
5.1836987e-85
5.1828343e-85
5.182728e-85
5.1827179e-85
5.1827171e-85
5.1827171e-85
5.1827172e-85
5.1827186e-85
5.1827271e-85
5.1836987e-85
5.1786371e-85
5.1777738e-85
5.1776677e-85
5.1776576e-85
5.1776568e-85
5.1776568e-85
5.1776574e-85
5.1776623e-85
5.1776944e-85
5.1828343e-85
5.1777738e-85
5.1769108e-85
5.1768047e-85
5.1767946e-85
5.1767939e-85
5.1767939e-85
5.1767946e-85
5.1768003e-85
5.1768359e-85
5.182728e-85
5.1776677e-85
5.1768047e-85
5.1766987e-85
5.1766886e-85
5.1766878e-85
5.1766878e-85
5.1766885e-85
5.1766944e-85
5.1767304e-85
5.1827179e-85
5.1776576e-85
5.1767946e-85
5.1766886e-85
5.1766784e-85
5.1766777e-85
5.1766777e-85
5.1766784e-85
5.1766843e-85
5.1767203e-85
5.1827171e-85
5.1776568e-85
5.1767939e-85
5.1766878e-85
5.1766777e-85
5.1766769e-85
5.1766769e-85
5.1766776e-85
5.1766835e-85
5.1767195e-85
5.1827171e-85
5.1776568e-85
5.1767939e-85
5.1766878e-85
5.1766777e-85
5.1766769e-85
5.1766769e-85
5.1766776e-85
5.1766835e-85
5.1767196e-85
5.1827172e-85
5.1776574e-85
5.1767946e-85
5.1766885e-85
5.1766784e-85
5.1766776e-85
5.1766776e-85
5.1766784e-85
5.1766842e-85
5.1767203e-85
5.1827186e-85
5.1776623e-85
5.1768003e-85
5.1766944e-85
5.1766843e-85
5.1766835e-85
5.1766835e-85
5.1766842e-85
5.1766901e-85
5.1767261e-85
5.1827271e-85
5.1776944e-85
5.1768359e-85
5.1767304e-85
5.1767203e-85
5.1767195e-85
5.1767196e-85
5.1767203e-85
5.1767261e-85
5.1767622e-85
9.180794e-84
9.1721122e-84
9.1706309e-84
9.1704487e-84
9.1704314e-84
9.1704301e-84
9.17043e-84
9.1704303e-84
9.1704326e-84
9.1704471e-84
9.1721122e-84
9.1634424e-84
9.1619631e-84
9.1617812e-84
9.1617639e-84
9.1617625e-84
9.1617625e-84
9.1617635e-84
9.1617721e-84
9.1618276e-84
9.1706309e-84
9.1619631e-84
9.1604841e-84
9.1603023e-84
9.160285e-84
9.1602836e-84
9.1602837e-84
9.1602849e-84
9.1602949e-84
9.1603565e-84
9.1704487e-84
9.1617812e-84
9.1603023e-84
9.1601205e-84
9.1601031e-84
9.1601018e-84
9.1601018e-84
9.1601031e-84
9.1601133e-84
9.1601756e-84
9.1704314e-84
9.1617639e-84
9.160285e-84
9.1601031e-84
9.1600858e-84
9.1600845e-84
9.1600845e-84
9.1600858e-84
9.160096e-84
9.1601584e-84
9.1704301e-84
9.1617625e-84
9.1602836e-84
9.1601018e-84
9.1600845e-84
9.1600832e-84
9.1600832e-84
9.1600844e-84
9.1600946e-84
9.1601571e-84
9.17043e-84
9.1617625e-84
9.1602837e-84
9.1601018e-84
9.1600845e-84
9.1600832e-84
9.1600832e-84
9.1600845e-84
9.1600947e-84
9.1601571e-84
9.1704303e-84
9.1617635e-84
9.1602849e-84
9.1601031e-84
9.1600858e-84
9.1600844e-84
9.1600845e-84
9.1600857e-84
9.1600959e-84
9.1601584e-84
9.1704326e-84
9.1617721e-84
9.1602949e-84
9.1601133e-84
9.160096e-84
9.1600946e-84
9.1600947e-84
9.1600959e-84
9.1601061e-84
9.1601686e-84
9.1704471e-84
9.1618276e-84
9.1603565e-84
9.1601756e-84
9.1601584e-84
9.1601571e-84
9.1601571e-84
9.1601584e-84
9.1601686e-84
9.160231e-84
1.6692108e-82
1.6676837e-82
1.667423e-82
1.667391e-82
1.6673879e-82
1.6673877e-82
1.6673877e-82
1.6673877e-82
1.6673881e-82
1.6673907e-82
1.6676837e-82
1.6661587e-82
1.6658983e-82
1.6658663e-82
1.6658633e-82
1.665863e-82
1.665863e-82
1.6658632e-82
1.6658647e-82
1.6658746e-82
1.667423e-82
1.6658983e-82
1.665638e-82
1.665606e-82
1.665603e-82
1.6656028e-82
1.6656028e-82
1.665603e-82
1.6656048e-82
1.6656157e-82
1.667391e-82
1.6658663e-82
1.665606e-82
1.665574e-82
1.665571e-82
1.6655707e-82
1.6655708e-82
1.665571e-82
1.6655728e-82
1.6655839e-82
1.6673879e-82
1.6658633e-82
1.665603e-82
1.665571e-82
1.6655679e-82
1.6655677e-82
1.6655677e-82
1.6655679e-82
1.6655697e-82
1.6655809e-82
1.6673877e-82
1.665863e-82
1.6656028e-82
1.6655707e-82
1.6655677e-82
1.6655675e-82
1.6655675e-82
1.6655677e-82
1.6655695e-82
1.6655806e-82
1.6673877e-82
1.665863e-82
1.6656028e-82
1.6655708e-82
1.6655677e-82
1.6655675e-82
1.6655675e-82
1.6655677e-82
1.6655695e-82
1.6655806e-82
1.6673877e-82
1.6658632e-82
1.665603e-82
1.665571e-82
1.6655679e-82
1.6655677e-82
1.6655677e-82
1.6655679e-82
1.6655697e-82
1.6655809e-82
1.6673881e-82
1.6658647e-82
1.6656048e-82
1.6655728e-82
1.6655697e-82
1.6655695e-82
1.6655695e-82
1.6655697e-82
1.6655716e-82
1.6655827e-82
1.6673907e-82
1.6658746e-82
1.6656157e-82
1.6655839e-82
1.6655809e-82
1.6655806e-82
1.6655806e-82
1.6655809e-82
1.6655827e-82
1.6655938e-82
3.1179666e-81
3.1152085e-81
3.1147375e-81
3.1146796e-81
3.114674e-81
3.1146736e-81
3.1146736e-81
3.1146737e-81
3.1146744e-81
3.114679e-81
3.1152085e-81
3.1124542e-81
3.1119837e-81
3.1119259e-81
3.1119204e-81
3.1119199e-81
3.1119199e-81
3.1119203e-81
3.1119231e-81
3.1119411e-81
3.1147375e-81
3.1119837e-81
3.1115134e-81
3.1114556e-81
3.1114501e-81
3.1114496e-81
3.1114496e-81
3.11145e-81
3.1114533e-81
3.1114734e-81
3.1146796e-81
3.1119259e-81
3.1114556e-81
3.1113977e-81
3.1113922e-81
3.1113918e-81
3.1113918e-81
3.1113922e-81
3.1113956e-81
3.1114159e-81
3.114674e-81
3.1119204e-81
3.1114501e-81
3.1113922e-81
3.1113867e-81
3.1113863e-81
3.1113863e-81
3.1113867e-81
3.1113901e-81
3.1114104e-81
3.1146736e-81
3.1119199e-81
3.1114496e-81
3.1113918e-81
3.1113863e-81
3.1113859e-81
3.1113859e-81
3.1113863e-81
3.1113896e-81
3.11141e-81
3.1146736e-81
3.1119199e-81
3.1114496e-81
3.1113918e-81
3.1113863e-81
3.1113859e-81
3.1113859e-81
3.1113863e-81
3.1113896e-81
3.11141e-81
3.1146737e-81
3.1119203e-81
3.11145e-81
3.1113922e-81
3.1113867e-81
3.1113863e-81
3.1113863e-81
3.1113867e-81
3.1113901e-81
3.1114104e-81
3.1146744e-81
3.1119231e-81
3.1114533e-81
3.1113956e-81
3.1113901e-81
3.1113896e-81
3.1113896e-81
3.1113901e-81
3.1113934e-81
3.1114137e-81
3.114679e-81
3.1119411e-81
3.1114734e-81
3.1114159e-81
3.1114104e-81
3.11141e-81
3.11141e-81
3.1114104e-81
3.1114137e-81
3.1114341e-81
5.9823214e-80
5.9772083e-80
5.9763347e-80
5.9762272e-80
5.976217e-80
5.9762162e-80
5.9762162e-80
5.9762163e-80
5.9762177e-80
5.9762261e-80
5.9772083e-80
5.9721019e-80
5.9712293e-80
5.971122e-80
5.9711117e-80
5.971111e-80
5.971111e-80
5.9711116e-80
5.9711169e-80
5.9711508e-80
5.9763347e-80
5.9712293e-80
5.9703569e-80
5.9702496e-80
5.9702394e-80
5.9702386e-80
5.9702387e-80
5.9702394e-80
5.9702456e-80
5.9702833e-80
5.9762272e-80
5.971122e-80
5.9702496e-80
5.9701423e-80
5.9701321e-80
5.9701313e-80
5.9701314e-80
5.9701321e-80
5.9701384e-80
5.9701766e-80
5.976217e-80
5.9711117e-80
5.9702394e-80
5.9701321e-80
5.9701219e-80
5.9701211e-80
5.9701211e-80
5.9701219e-80
5.9701282e-80
5.9701664e-80
5.9762162e-80
5.971111e-80
5.9702386e-80
5.9701313e-80
5.9701211e-80
5.9701203e-80
5.9701204e-80
5.9701211e-80
5.9701274e-80
5.9701657e-80
5.9762162e-80
5.971111e-80
5.9702387e-80
5.9701314e-80
5.9701211e-80
5.9701204e-80
5.9701204e-80
5.9701212e-80
5.9701275e-80
5.9701657e-80
5.9762163e-80
5.9711116e-80
5.9702394e-80
5.9701321e-80
5.9701219e-80
5.9701211e-80
5.9701212e-80
5.9701219e-80
5.9701282e-80
5.9701665e-80
5.9762177e-80
5.9711169e-80
5.9702456e-80
5.9701384e-80
5.9701282e-80
5.9701274e-80
5.9701275e-80
5.9701282e-80
5.9701345e-80
5.9701728e-80
5.9762261e-80
5.9711508e-80
5.9702833e-80
5.9701766e-80
5.9701664e-80
5.9701657e-80
5.9701657e-80
5.9701665e-80
5.9701728e-80
5.970211e-80
1.1787154e-78
1.1777426e-78
1.1775763e-78
1.1775559e-78
1.1775539e-78
1.1775538e-78
1.1775538e-78
1.1775538e-78
1.1775541e-78
1.1775557e-78
1.1777426e-78
1.176771e-78
1.176605e-78
1.1765845e-78
1.1765826e-78
1.1765824e-78
1.1765824e-78
1.1765825e-78
1.1765836e-78
1.1765901e-78
1.1775763e-78
1.176605e-78
1.1764389e-78
1.1764185e-78
1.1764165e-78
1.1764164e-78
1.1764164e-78
1.1764165e-78
1.1764177e-78
1.176425e-78
1.1775559e-78
1.1765845e-78
1.1764185e-78
1.176398e-78
1.1763961e-78
1.176396e-78
1.176396e-78
1.1763961e-78
1.1763973e-78
1.1764047e-78
1.1775539e-78
1.1765826e-78
1.1764165e-78
1.1763961e-78
1.1763942e-78
1.176394e-78
1.176394e-78
1.1763942e-78
1.1763954e-78
1.1764028e-78
1.1775538e-78
1.1765824e-78
1.1764164e-78
1.176396e-78
1.176394e-78
1.1763939e-78
1.1763939e-78
1.176394e-78
1.1763952e-78
1.1764026e-78
1.1775538e-78
1.1765824e-78
1.1764164e-78
1.176396e-78
1.176394e-78
1.1763939e-78
1.1763939e-78
1.176394e-78
1.1763952e-78
1.1764026e-78
1.1775538e-78
1.1765825e-78
1.1764165e-78
1.1763961e-78
1.1763942e-78
1.176394e-78
1.176394e-78
1.1763942e-78
1.1763954e-78
1.1764028e-78
1.1775541e-78
1.1765836e-78
1.1764177e-78
1.1763973e-78
1.1763954e-78
1.1763952e-78
1.1763952e-78
1.1763954e-78
1.1763966e-78
1.176404e-78
1.1775557e-78
1.1765901e-78
1.176425e-78
1.1764047e-78
1.1764028e-78
1.1764026e-78
1.1764026e-78
1.1764028e-78
1.176404e-78
1.1764114e-78
2.3844375e-77
2.3825386e-77
2.3822138e-77
2.3821739e-77
2.3821701e-77
2.3821698e-77
2.3821698e-77
2.3821698e-77
2.3821704e-77
2.3821734e-77
2.3825386e-77
2.380642e-77
2.3803176e-77
2.3802777e-77
2.3802739e-77
2.3802736e-77
2.3802736e-77
2.3802739e-77
2.3802759e-77
2.3802889e-77
2.3822138e-77
2.3803176e-77
2.3799934e-77
2.3799535e-77
2.3799497e-77
2.3799494e-77
2.3799494e-77
2.3799497e-77
2.379952e-77
2.3799665e-77
2.3821739e-77
2.3802777e-77
2.3799535e-77
2.3799136e-77
2.3799098e-77
2.3799095e-77
2.3799095e-77
2.3799098e-77
2.3799122e-77
2.3799268e-77
2.3821701e-77
2.3802739e-77
2.3799497e-77
2.3799098e-77
2.379906e-77
2.3799057e-77
2.3799057e-77
2.379906e-77
2.3799084e-77
2.379923e-77
2.3821698e-77
2.3802736e-77
2.3799494e-77
2.3799095e-77
2.3799057e-77
2.3799054e-77
2.3799054e-77
2.3799057e-77
2.3799081e-77
2.3799227e-77
2.3821698e-77
2.3802736e-77
2.3799494e-77
2.3799095e-77
2.3799057e-77
2.3799054e-77
2.3799054e-77
2.3799057e-77
2.3799081e-77
2.3799227e-77
2.3821698e-77
2.3802739e-77
2.3799497e-77
2.3799098e-77
2.379906e-77
2.3799057e-77
2.3799057e-77
2.379906e-77
2.3799084e-77
2.379923e-77
2.3821704e-77
2.3802759e-77
2.379952e-77
2.3799122e-77
2.3799084e-77
2.3799081e-77
2.3799081e-77
2.3799084e-77
2.3799108e-77
2.3799255e-77
2.3821734e-77
2.3802889e-77
2.3799665e-77
2.3799268e-77
2.379923e-77
2.3799227e-77
2.3799227e-77
2.379923e-77
2.3799255e-77
2.3799401e-77
4.9509805e-76
4.9471786e-76
4.9465281e-76
4.946448e-76
4.9464404e-76
4.9464398e-76
4.9464398e-76
4.94644e-76
4.946441e-76
4.9464472e-76
4.9471786e-76
4.9433812e-76
4.9427315e-76
4.9426515e-76
4.9426439e-76
4.9426433e-76
4.9426433e-76
4.9426438e-76
4.942648e-76
4.9426743e-76
4.9465281e-76
4.9427315e-76
4.9420819e-76
4.942002e-76
4.9419944e-76
4.9419938e-76
4.9419938e-76
4.9419944e-76
4.9419992e-76
4.9420285e-76
4.946448e-76
4.9426515e-76
4.942002e-76
4.9419221e-76
4.9419144e-76
4.9419139e-76
4.9419139e-76
4.9419145e-76
4.9419194e-76
4.9419491e-76
4.9464404e-76
4.9426439e-76
4.9419944e-76
4.9419144e-76
4.9419068e-76
4.9419062e-76
4.9419063e-76
4.9419069e-76
4.9419118e-76
4.9419415e-76
4.9464398e-76
4.9426433e-76
4.9419938e-76
4.9419139e-76
4.9419062e-76
4.9419057e-76
4.9419057e-76
4.9419063e-76
4.9419112e-76
4.9419409e-76
4.9464398e-76
4.9426433e-76
4.9419938e-76
4.9419139e-76
4.9419063e-76
4.9419057e-76
4.9419057e-76
4.9419063e-76
4.9419113e-76
4.941941e-76
4.94644e-76
4.9426438e-76
4.9419944e-76
4.9419145e-76
4.9419069e-76
4.9419063e-76
4.9419063e-76
4.9419069e-76
4.9419119e-76
4.9419416e-76
4.946441e-76
4.942648e-76
4.9419992e-76
4.9419194e-76
4.9419118e-76
4.9419112e-76
4.9419113e-76
4.9419119e-76
4.9419168e-76
4.9419465e-76
4.9464472e-76
4.9426743e-76
4.9420285e-76
4.9419491e-76
4.9419415e-76
4.9419409e-76
4.941941e-76
4.9419416e-76
4.9419465e-76
4.9419762e-76
1.054894e-74
1.0541134e-74
1.0539798e-74
1.0539634e-74
1.0539618e-74
1.0539617e-74
1.0539617e-74
1.0539617e-74
1.0539619e-74
1.0539632e-74
1.0541134e-74
1.0533338e-74
1.0532003e-74
1.0531839e-74
1.0531823e-74
1.0531822e-74
1.0531822e-74
1.0531823e-74
1.0531832e-74
1.0531887e-74
1.0539798e-74
1.0532003e-74
1.0530669e-74
1.0530505e-74
1.0530489e-74
1.0530488e-74
1.0530488e-74
1.0530489e-74
1.0530499e-74
1.053056e-74
1.0539634e-74
1.0531839e-74
1.0530505e-74
1.0530341e-74
1.0530325e-74
1.0530324e-74
1.0530324e-74
1.0530325e-74
1.0530335e-74
1.0530397e-74
1.0539618e-74
1.0531823e-74
1.0530489e-74
1.0530325e-74
1.0530309e-74
1.0530308e-74
1.0530308e-74
1.0530309e-74
1.053032e-74
1.0530382e-74
1.0539617e-74
1.0531822e-74
1.0530488e-74
1.0530324e-74
1.0530308e-74
1.0530307e-74
1.0530307e-74
1.0530308e-74
1.0530319e-74
1.0530381e-74
1.0539617e-74
1.0531822e-74
1.0530488e-74
1.0530324e-74
1.0530308e-74
1.0530307e-74
1.0530307e-74
1.0530308e-74
1.0530319e-74
1.0530381e-74
1.0539617e-74
1.0531823e-74
1.0530489e-74
1.0530325e-74
1.0530309e-74
1.0530308e-74
1.0530308e-74
1.053031e-74
1.053032e-74
1.0530382e-74
1.0539619e-74
1.0531832e-74
1.0530499e-74
1.0530335e-74
1.053032e-74
1.0530319e-74
1.0530319e-74
1.053032e-74
1.053033e-74
1.0530392e-74
1.0539632e-74
1.0531887e-74
1.053056e-74
1.0530397e-74
1.0530382e-74
1.0530381e-74
1.0530381e-74
1.0530382e-74
1.0530392e-74
1.0530454e-74
2.3057695e-73
2.3041268e-73
2.3038455e-73
2.3038109e-73
2.3038076e-73
2.3038073e-73
2.3038073e-73
2.3038074e-73
2.3038079e-73
2.3038105e-73
2.3041268e-73
2.302486e-73
2.302205e-73
2.3021704e-73
2.3021671e-73
2.3021669e-73
2.3021669e-73
2.3021671e-73
2.3021689e-73
2.3021807e-73
2.3038455e-73
2.302205e-73
2.3019241e-73
2.3018895e-73
2.3018862e-73
2.301886e-73
2.301886e-73
2.3018862e-73
2.3018884e-73
2.3019015e-73
2.3038109e-73
2.3021704e-73
2.3018895e-73
2.3018549e-73
2.3018517e-73
2.3018514e-73
2.3018514e-73
2.3018517e-73
2.3018539e-73
2.3018671e-73
2.3038076e-73
2.3021671e-73
2.3018862e-73
2.3018517e-73
2.3018484e-73
2.3018481e-73
2.3018481e-73
2.3018484e-73
2.3018506e-73
2.3018639e-73
2.3038073e-73
2.3021669e-73
2.301886e-73
2.3018514e-73
2.3018481e-73
2.3018479e-73
2.3018479e-73
2.3018481e-73
2.3018504e-73
2.3018636e-73
2.3038073e-73
2.3021669e-73
2.301886e-73
2.3018514e-73
2.3018481e-73
2.3018479e-73
2.3018479e-73
2.3018481e-73
2.3018504e-73
2.3018636e-73
2.3038074e-73
2.3021671e-73
2.3018862e-73
2.3018517e-73
2.3018484e-73
2.3018481e-73
2.3018481e-73
2.3018484e-73
2.3018506e-73
2.3018639e-73
2.3038079e-73
2.3021689e-73
2.3018884e-73
2.3018539e-73
2.3018506e-73
2.3018504e-73
2.3018504e-73
2.3018506e-73
2.3018529e-73
2.3018661e-73
2.3038105e-73
2.3021807e-73
2.3019015e-73
2.3018671e-73
2.3018639e-73
2.3018636e-73
2.3018636e-73
2.3018639e-73
2.3018661e-73