/*--------------------------------*- C++ -*----------------------------------*\
| =========                 |                                                 |
| \\      /  F ield         | OpenFOAM: The Open Source CFD Toolbox           |
|  \\    /   O peration     | Version:  dev                                   |
|   \\  /    A nd           | Web:      www.OpenFOAM.org                      |
|    \\/     M anipulation  |                                                 |
\*---------------------------------------------------------------------------*/
FoamFile
{
    version     2.0;
    format      ascii;
    class       volScalarField;
    location    "4";
    object      A;
}
// * * * * * * * * * * * * * * * * * * * * * * * * * * * * * * * * * * * * * //

dimensions      [0 0 0 0 1 0 0];

internalField   nonuniform List<scalar> 
10000
(
0.99939343
0.99939468
0.99939594
0.99939709
0.99939805
0.99939879
0.99939929
0.99939959
0.99939977
0.99940004
0.99939468
0.99939623
0.99939771
0.99939902
0.9994001
0.9994009
0.99940142
0.99940169
0.99940177
0.99940183
0.99939594
0.99939771
0.99939943
0.99940094
0.99940214
0.99940301
0.99940352
0.99940371
0.99940361
0.99940346
0.99939709
0.99939902
0.99940094
0.9994026
0.99940391
0.99940483
0.99940532
0.99940541
0.99940515
0.99940483
0.99939805
0.9994001
0.99940214
0.99940391
0.9994053
0.99940623
0.9994067
0.99940671
0.99940633
0.9994059
0.99939879
0.9994009
0.99940301
0.99940483
0.99940623
0.99940716
0.99940761
0.99940757
0.99940712
0.99940664
0.99939929
0.99940142
0.99940352
0.99940532
0.9994067
0.99940761
0.99940804
0.99940799
0.99940754
0.99940702
0.99939959
0.99940169
0.99940371
0.99940541
0.99940671
0.99940757
0.99940799
0.99940798
0.99940757
0.99940709
0.99939977
0.99940177
0.99940361
0.99940515
0.99940633
0.99940712
0.99940754
0.99940757
0.99940728
0.99940689
0.99940004
0.99940183
0.99940346
0.99940483
0.9994059
0.99940664
0.99940702
0.99940709
0.99940689
0.99940662
0.99816333
0.99816695
0.99817072
0.99817419
0.99817711
0.99817934
0.99818085
0.99818174
0.99818225
0.9981829
0.99816695
0.99817148
0.99817594
0.9981799
0.99818315
0.99818558
0.99818715
0.99818796
0.99818813
0.99818814
0.99817072
0.99817594
0.99818113
0.99818568
0.99818933
0.99819195
0.99819352
0.99819406
0.9981937
0.99819304
0.99817419
0.9981799
0.99818568
0.99819073
0.99819471
0.99819747
0.99819896
0.99819921
0.99819835
0.9981972
0.99817711
0.99818315
0.99818933
0.99819471
0.99819889
0.99820172
0.99820312
0.99820313
0.99820192
0.99820044
0.99817934
0.99818558
0.99819195
0.99819747
0.99820172
0.99820455
0.99820588
0.99820575
0.99820433
0.99820265
0.99818085
0.99818715
0.99819352
0.99819896
0.99820313
0.99820588
0.99820718
0.99820702
0.99820558
0.99820382
0.99818174
0.99818796
0.99819406
0.99819921
0.99820313
0.99820575
0.99820702
0.99820697
0.99820568
0.99820401
0.99818225
0.99818813
0.9981937
0.99819835
0.99820192
0.99820433
0.99820558
0.99820568
0.99820472
0.99820335
0.9981829
0.99818814
0.99819304
0.9981972
0.99820044
0.99820265
0.99820382
0.99820401
0.99820335
0.99820238
0.9969022
0.9969079
0.99691414
0.99691997
0.99692487
0.99692861
0.99693112
0.99693257
0.99693326
0.99693395
0.9969079
0.99691509
0.99692252
0.99692919
0.99693465
0.99693873
0.99694136
0.99694266
0.99694277
0.99694233
0.99691414
0.99692252
0.99693119
0.99693886
0.99694501
0.99694942
0.99695203
0.99695289
0.99695207
0.99695049
0.99691997
0.99692918
0.99693886
0.99694737
0.99695408
0.99695872
0.99696121
0.99696156
0.9969599
0.99695747
0.99692487
0.99693465
0.99694501
0.99695408
0.99696114
0.9969659
0.99696824
0.99696817
0.99696591
0.9969629
0.99692861
0.99693873
0.99694942
0.99695872
0.9969659
0.99697066
0.99697288
0.99697257
0.99696996
0.99696662
0.99693112
0.99694136
0.99695203
0.99696121
0.99696824
0.99697288
0.99697503
0.99697469
0.99697203
0.99696856
0.99693257
0.99694266
0.99695289
0.99696156
0.99696817
0.99697258
0.99697469
0.99697453
0.99697214
0.99696883
0.99693326
0.99694277
0.99695207
0.9969599
0.99696591
0.99696996
0.99697203
0.99697214
0.99697034
0.99696757
0.99693395
0.99694233
0.99695049
0.99695747
0.9969629
0.99696662
0.99696856
0.99696883
0.99696758
0.99696557
0.99560969
0.99561713
0.99562576
0.99563392
0.99564082
0.99564606
0.99564955
0.99565147
0.99565213
0.99565249
0.99561713
0.99562661
0.99563692
0.9956463
0.99565401
0.99565974
0.9956634
0.9956651
0.99566489
0.99566361
0.99562576
0.99563692
0.99564902
0.99565984
0.99566852
0.99567474
0.99567835
0.99567941
0.99567787
0.99567492
0.99563392
0.9956463
0.99565984
0.99567185
0.99568134
0.99568789
0.99569132
0.99569164
0.99568889
0.99568472
0.99564082
0.99565401
0.99566852
0.99568134
0.99569134
0.99569805
0.99570127
0.99570099
0.99569736
0.99569236
0.99564606
0.99565974
0.99567474
0.99568789
0.99569805
0.99570475
0.9957078
0.99570719
0.99570307
0.99569758
0.99564955
0.99566339
0.99567835
0.99569132
0.99570127
0.9957078
0.99571076
0.99571012
0.99570592
0.99570027
0.99565147
0.9956651
0.99567941
0.99569164
0.99570099
0.99570719
0.99571012
0.99570972
0.99570594
0.99570052
0.99565213
0.99566489
0.99567787
0.99568889
0.99569736
0.99570307
0.99570593
0.99570594
0.99570304
0.99569847
0.99565249
0.99566361
0.99567492
0.99568472
0.99569236
0.99569758
0.99570027
0.99570052
0.99569847
0.99569513
0.99428521
0.9942941
0.99430499
0.99431546
0.99432434
0.99433105
0.99433544
0.9943377
0.99433809
0.99433778
0.9942941
0.99430551
0.99431858
0.99433064
0.99434059
0.99434795
0.99435255
0.99435449
0.99435368
0.99435122
0.99430499
0.99431857
0.99433398
0.99434793
0.99435916
0.99436716
0.9943717
0.99437277
0.99437019
0.99436554
0.99431546
0.99433064
0.99434793
0.99436347
0.99437575
0.99438418
0.99438848
0.99438857
0.99438439
0.99437811
0.99432434
0.99434059
0.99435916
0.99437575
0.9943887
0.99439734
0.99440135
0.99440067
0.99439532
0.99438795
0.99433105
0.99434795
0.99436716
0.99438418
0.99439734
0.99440598
0.99440977
0.99440864
0.99440265
0.99439464
0.99433544
0.99435255
0.9943717
0.99438848
0.99440135
0.99440977
0.99441345
0.99441228
0.99440623
0.994398
0.99433769
0.99435449
0.99437277
0.99438857
0.99440067
0.99440864
0.99441228
0.99441147
0.99440599
0.99439812
0.99433809
0.99435368
0.99437019
0.99438439
0.99439532
0.99440265
0.99440623
0.99440599
0.99440171
0.99439505
0.99433778
0.99435122
0.99436554
0.99437811
0.99438795
0.99439464
0.994398
0.99439812
0.99439505
0.99439021
0.99292808
0.99293819
0.99295119
0.9929639
0.99297471
0.99298284
0.99298802
0.99299043
0.99299031
0.99298909
0.99293819
0.99295122
0.99296687
0.99298156
0.99299371
0.99300264
0.99300807
0.99301003
0.99300834
0.99300446
0.99295119
0.99296687
0.99298541
0.99300245
0.99301619
0.99302591
0.99303125
0.9930321
0.99302817
0.99302158
0.9929639
0.99298156
0.99300245
0.99302145
0.99303651
0.99304677
0.99305179
0.99305141
0.99304547
0.99303684
0.99297471
0.99299371
0.99301619
0.99303651
0.9930524
0.99306291
0.99306757
0.99306622
0.99305883
0.99304884
0.99298284
0.99300264
0.99302591
0.99304677
0.99306291
0.99307342
0.99307782
0.99307592
0.99306773
0.99305694
0.99298802
0.99300807
0.99303125
0.99305179
0.99306757
0.99307782
0.99308208
0.99308015
0.9930719
0.99306088
0.99299043
0.99301003
0.9930321
0.99305141
0.99306622
0.99307592
0.99308015
0.9930787
0.99307122
0.9930607
0.99299031
0.99300834
0.99302817
0.99304547
0.99305883
0.99306773
0.99307191
0.99307122
0.99306532
0.99305643
0.99298909
0.99300446
0.99302158
0.99303684
0.99304884
0.99305694
0.99306088
0.9930607
0.99305643
0.99304999
0.99153753
0.99154869
0.99156365
0.99157851
0.99159117
0.99160063
0.99160647
0.99160883
0.99160795
0.99160567
0.99154869
0.99156309
0.99158114
0.99159835
0.99161264
0.99162304
0.99162914
0.99163089
0.99162806
0.99162262
0.99156365
0.99158114
0.99160262
0.99162264
0.99163884
0.99165018
0.99165614
0.99165652
0.99165097
0.9916423
0.99157851
0.99159835
0.99162264
0.99164503
0.9916628
0.99167477
0.99168034
0.99167922
0.99167123
0.99166013
0.99159117
0.99161264
0.99163884
0.99166279
0.99168155
0.99169384
0.99169897
0.99169667
0.99168694
0.9916742
0.99160063
0.99162304
0.99165018
0.99167477
0.99169384
0.99170612
0.99171093
0.99170799
0.99169732
0.99168363
0.99160647
0.99162914
0.99165614
0.99168034
0.99169897
0.99171093
0.99171561
0.99171266
0.99170195
0.99168802
0.99160883
0.99163089
0.99165652
0.99167922
0.99169667
0.99170799
0.99171266
0.99171032
0.99170061
0.99168738
0.99160795
0.99162806
0.99165097
0.99167123
0.99168694
0.99169732
0.99170195
0.99170061
0.9916929
0.99168177
0.99160567
0.99162262
0.9916423
0.99166013
0.9916742
0.99168363
0.99168802
0.99168738
0.99168177
0.99167374
0.99011273
0.99012483
0.9901416
0.99015848
0.9901729
0.99018356
0.9901899
0.990192
0.99019017
0.99018672
0.99012483
0.99014042
0.99016068
0.99018028
0.99019659
0.99020834
0.99021493
0.99021621
0.99021202
0.99020496
0.99014159
0.99016068
0.99018489
0.99020775
0.99022628
0.99023911
0.99024549
0.99024512
0.99023772
0.99022696
0.99015847
0.99018028
0.99020775
0.99023337
0.99025373
0.99026729
0.99027319
0.99027104
0.99026079
0.9902472
0.9901729
0.99019659
0.99022628
0.99025373
0.99027524
0.99028915
0.99029454
0.99029102
0.99027872
0.99026322
0.99018356
0.99020834
0.99023911
0.99026729
0.99028915
0.99030306
0.99030809
0.99030383
0.99029045
0.99027386
0.9901899
0.99021492
0.99024549
0.99027319
0.99029454
0.99030809
0.99031297
0.99030873
0.99029537
0.99027857
0.990192
0.99021621
0.99024512
0.99027104
0.99029102
0.99030383
0.99030873
0.99030527
0.99029316
0.99027729
0.99019017
0.99021202
0.99023772
0.99026079
0.99027872
0.99029045
0.99029538
0.99029316
0.99028352
0.99027023
0.99018672
0.99020496
0.99022696
0.9902472
0.99026322
0.99027386
0.99027857
0.99027729
0.99027023
0.99026069
0.98865282
0.98866575
0.98868419
0.98870296
0.98871902
0.98873075
0.9887374
0.98873903
0.98873608
0.98873143
0.98866575
0.9886824
0.98870469
0.98872653
0.98874472
0.98875765
0.98876452
0.9887651
0.98875937
0.98875071
0.98868419
0.98870469
0.98873141
0.98875695
0.98877766
0.98879179
0.98879838
0.988797
0.98878759
0.98877477
0.98870296
0.98872653
0.98875695
0.98878562
0.98880842
0.98882337
0.98882937
0.98882594
0.98881326
0.98879723
0.98871902
0.98874472
0.98877766
0.98880842
0.98883252
0.98884787
0.98885328
0.98884826
0.98883325
0.98881506
0.98873075
0.98875765
0.98879179
0.98882337
0.98884787
0.98886321
0.98886822
0.98886238
0.98884617
0.98882677
0.9887374
0.98876452
0.98879838
0.98882937
0.98885328
0.98886822
0.98887309
0.98886733
0.9888512
0.98883163
0.98873903
0.9887651
0.988797
0.98882594
0.98884826
0.98886238
0.98886733
0.98886253
0.98884794
0.98882957
0.98873608
0.98875937
0.98878759
0.98881326
0.98883326
0.98884617
0.9888512
0.98884794
0.98883629
0.98882101
0.98873143
0.98875071
0.98877477
0.98879723
0.98881506
0.98882677
0.98883163
0.98882957
0.98882101
0.98881007
0.98715687
0.98717058
0.98719054
0.98721106
0.98722861
0.98724124
0.98724802
0.98724898
0.98724478
0.98723893
0.98717058
0.98718819
0.98721233
0.98723623
0.98725613
0.98727007
0.987277
0.98727666
0.98726927
0.98725905
0.98719054
0.98721233
0.98724135
0.98726936
0.98729207
0.98730731
0.98731386
0.98731124
0.9872997
0.98728492
0.98721106
0.98723623
0.98726936
0.98730087
0.98732591
0.98734204
0.98734789
0.98734294
0.98732773
0.98730939
0.98722861
0.98725613
0.98729207
0.98732591
0.9873524
0.98736896
0.98737415
0.98736741
0.98734961
0.98732886
0.98724123
0.98727007
0.98730731
0.98734204
0.98736896
0.98738552
0.98739027
0.98738264
0.98736353
0.98734147
0.98724802
0.987277
0.98731386
0.98734789
0.98737415
0.98739027
0.98739489
0.9873874
0.98736848
0.98734634
0.98724898
0.98727666
0.98731124
0.98734294
0.98736741
0.98738264
0.9873874
0.98738109
0.98736401
0.98734335
0.98724478
0.98726927
0.9872997
0.98732773
0.98734961
0.98736353
0.98736848
0.98736401
0.98735035
0.98733329
0.98723893
0.98725905
0.98728492
0.98730939
0.98732886
0.98734147
0.98734634
0.98734336
0.98733329
0.98732108
0.98562392
0.98563835
0.98565972
0.98568183
0.9857007
0.98571405
0.98572078
0.98572089
0.98571535
0.98570832
0.98563835
0.98565685
0.98568268
0.98570846
0.98572989
0.98574462
0.9857514
0.98574994
0.98574083
0.98572913
0.98565972
0.98568268
0.9857138
0.98574407
0.98576857
0.98578468
0.98579095
0.98578689
0.98577318
0.98575656
0.98568183
0.98570846
0.98574407
0.98577818
0.98580522
0.98582229
0.98582776
0.98582108
0.98580332
0.98578282
0.9857007
0.98572989
0.98576857
0.98580522
0.98583385
0.98585139
0.98585611
0.98584746
0.98582685
0.98580373
0.98571405
0.98574462
0.98578468
0.98582229
0.98585139
0.98586893
0.98587317
0.98586357
0.98584157
0.98581707
0.98572078
0.9857514
0.98579095
0.98582776
0.98585611
0.98587317
0.98587733
0.98586795
0.98584625
0.98582178
0.98572089
0.98574994
0.98578689
0.98582108
0.98584746
0.98586357
0.98586795
0.98585997
0.98584045
0.98581777
0.98571535
0.98574083
0.98577318
0.98580332
0.98582685
0.98584157
0.98584626
0.98584045
0.98582484
0.98580621
0.98570832
0.98572913
0.98575657
0.98578282
0.98580373
0.98581708
0.98582178
0.98581777
0.98580621
0.9857929
0.98405297
0.98406808
0.98409072
0.98411427
0.98413429
0.98414817
0.98415465
0.98415376
0.98414684
0.98413869
0.98406808
0.98408742
0.98411479
0.98414226
0.98416501
0.98418031
0.98418673
0.98418399
0.98417311
0.98416004
0.98409072
0.98411479
0.98414781
0.98418011
0.98420615
0.9842229
0.98422868
0.98422301
0.98420712
0.9841888
0.98411427
0.98414226
0.98418011
0.98421656
0.98424535
0.9842631
0.98426795
0.98425939
0.98423909
0.98421661
0.98413429
0.98416501
0.98420615
0.98424535
0.98427586
0.9842941
0.98429812
0.98428742
0.98426404
0.98423875
0.98414817
0.98418031
0.9842229
0.9842631
0.9842941
0.98431235
0.98431587
0.98430417
0.98427936
0.98425265
0.98415465
0.98418673
0.98422868
0.98426795
0.98429812
0.98431587
0.98431934
0.98430797
0.9842836
0.98425703
0.98415376
0.98418399
0.98422301
0.98425939
0.98428742
0.98430417
0.98430797
0.98429824
0.98427638
0.98425192
0.98414684
0.98417311
0.98420712
0.98423909
0.98426404
0.98427936
0.9842836
0.98427638
0.9842589
0.98423893
0.98413869
0.98416004
0.9841888
0.98421661
0.98423875
0.98425265
0.98425703
0.98425192
0.98423893
0.98422465
0.98244296
0.98245873
0.98248253
0.98250734
0.98252833
0.98254255
0.98254861
0.9825466
0.98253826
0.98252905
0.98245872
0.98247886
0.98250762
0.98253658
0.98256044
0.98257611
0.98258197
0.98257781
0.98256517
0.98255082
0.98248253
0.98250762
0.98254236
0.98257646
0.9826038
0.98262095
0.98262601
0.98261861
0.98260057
0.98258071
0.98250734
0.98253658
0.98257646
0.98261498
0.98264524
0.98266342
0.98266743
0.98265688
0.98263411
0.98260984
0.98252833
0.98256044
0.9826038
0.98264524
0.98267734
0.98269603
0.98269913
0.98268627
0.98266023
0.98263299
0.98254255
0.98257611
0.98262095
0.98266342
0.98269603
0.98271473
0.98271732
0.98270343
0.98267592
0.98264724
0.98254861
0.98258197
0.98262601
0.98266743
0.98269913
0.98271732
0.98271991
0.98270647
0.98267956
0.98265117
0.9825466
0.98257781
0.98261861
0.98265688
0.98268628
0.98270343
0.98270647
0.98269493
0.98267087
0.98264491
0.98253826
0.98256517
0.98260057
0.98263411
0.98266023
0.98267592
0.98267956
0.98267087
0.98265164
0.98263056
0.98252905
0.98255083
0.98258071
0.98260984
0.98263299
0.98264724
0.98265117
0.98264491
0.98263056
0.98261545
0.98079282
0.9808092
0.98083405
0.98085997
0.98088173
0.98089611
0.9809016
0.98089837
0.9808886
0.9808784
0.98080919
0.98083009
0.9808601
0.98089035
0.98091511
0.98093093
0.98093606
0.9809304
0.98091603
0.9809005
0.98083405
0.9808601
0.98089638
0.98093204
0.98096044
0.98097774
0.98098191
0.98097269
0.98095257
0.9809313
0.98085997
0.98089035
0.98093204
0.98097237
0.98100383
0.98102219
0.98102517
0.98101255
0.9809874
0.98096152
0.98088172
0.98091511
0.98096044
0.98100383
0.98103722
0.9810561
0.98105809
0.98104303
0.98101444
0.98098547
0.98089611
0.98093093
0.98097774
0.98102219
0.9810561
0.98107498
0.98107646
0.98106036
0.98103029
0.98099989
0.98090159
0.98093606
0.98098191
0.98102517
0.98105809
0.98107646
0.98107801
0.98106248
0.98103319
0.98100324
0.98089837
0.9809304
0.98097269
0.98101255
0.98104303
0.98106036
0.98106248
0.98104912
0.98102302
0.98099579
0.9808886
0.98091603
0.98095257
0.9809874
0.98101444
0.9810303
0.98103319
0.98102302
0.98100217
0.98098017
0.9808784
0.9809005
0.9809313
0.98096152
0.98098547
0.98099989
0.98100324
0.98099579
0.98098017
0.98096436
0.97910141
0.97911837
0.97914415
0.97917102
0.97919337
0.97920774
0.9792125
0.97920799
0.97919682
0.97918569
0.97911836
0.97913998
0.97917111
0.97920247
0.9792279
0.97924368
0.97924792
0.9792407
0.97922464
0.97920805
0.97914415
0.97917111
0.97920877
0.97924576
0.97927497
0.97929221
0.97929531
0.97928423
0.97926211
0.97923957
0.97917101
0.97920247
0.97924576
0.97928762
0.97932001
0.9793383
0.97934009
0.97932537
0.97929797
0.97927065
0.97919337
0.9792279
0.97927497
0.97932001
0.9793544
0.97937321
0.97937395
0.97935667
0.97932569
0.97929518
0.97920774
0.97924368
0.9792922
0.9793383
0.97937321
0.97939203
0.97939225
0.97937394
0.9793415
0.97930959
0.9792125
0.97924792
0.97929531
0.97934009
0.97937395
0.97939225
0.97939261
0.97937502
0.97934354
0.97931226
0.97920799
0.9792407
0.97928423
0.97932537
0.97935667
0.97937394
0.97937502
0.97935984
0.97933189
0.97930362
0.97919682
0.97922464
0.97926211
0.97929798
0.97932569
0.9793415
0.97934354
0.97933189
0.97930957
0.97928681
0.97918569
0.97920805
0.97923957
0.97927065
0.97929518
0.97930959
0.97931226
0.97930362
0.97928681
0.97927043
0.97736757
0.97738507
0.97741169
0.97743933
0.9774621
0.9774763
0.97748022
0.97747437
0.97746183
0.97744984
0.97738507
0.97740736
0.97743948
0.97747176
0.97749768
0.97751322
0.97751646
0.97750764
0.97748996
0.97747238
0.97741169
0.97743948
0.97747836
0.97751646
0.97754624
0.97756321
0.97756512
0.97755217
0.97752814
0.97750447
0.97743933
0.97747176
0.97751646
0.9775596
0.97759266
0.97761065
0.97761112
0.97759432
0.9775648
0.9775362
0.9774621
0.97749768
0.97754624
0.97759266
0.97762776
0.97764628
0.97764562
0.97762615
0.97759295
0.9775611
0.97747629
0.97751322
0.97756321
0.97761065
0.97764628
0.9776648
0.97766364
0.97764315
0.97760854
0.97757534
0.97748022
0.97751645
0.97756512
0.97761112
0.97764562
0.97766364
0.97766271
0.97764309
0.97760963
0.97757723
0.97747437
0.97750764
0.97755217
0.97759432
0.97762615
0.97764316
0.97764309
0.97762615
0.97759652
0.9775674
0.97746183
0.97748996
0.97752814
0.9775648
0.97759295
0.97760854
0.97760963
0.97759652
0.97757286
0.97754951
0.97744984
0.97747238
0.97750447
0.9775362
0.9775611
0.97757534
0.97757723
0.9775674
0.97754952
0.97753264
0.9755901
0.9756081
0.97563545
0.97566372
0.97568675
0.97570061
0.9757036
0.9756964
0.97568254
0.97566975
0.9756081
0.97563102
0.97566403
0.97569705
0.97572325
0.9757384
0.97574052
0.9757301
0.97571088
0.97569241
0.97563545
0.97566402
0.97570397
0.97574296
0.9757731
0.97578961
0.97579023
0.97577542
0.9757496
0.9757249
0.97566372
0.97569705
0.97574296
0.97578714
0.97582061
0.97583812
0.97583716
0.97581831
0.97578681
0.97575708
0.97568674
0.97572325
0.9757731
0.97582061
0.97585616
0.97587418
0.97587204
0.97585043
0.97581517
0.97578216
0.97570061
0.9757384
0.97578961
0.97583812
0.97587418
0.97589221
0.97588958
0.97586699
0.97583038
0.97579608
0.9757036
0.97574052
0.97579023
0.97583716
0.97587204
0.97588958
0.97588727
0.9758657
0.97583044
0.97579713
0.9756964
0.9757301
0.97577542
0.97581831
0.97585043
0.97586699
0.9758657
0.97584707
0.97581593
0.97578614
0.97568254
0.97571088
0.9757496
0.97578681
0.97581518
0.97583038
0.97583044
0.97581594
0.97579108
0.97576726
0.97566975
0.97569241
0.9757249
0.97575708
0.97578216
0.97579609
0.97579713
0.97578614
0.97576726
0.97574999
0.97376777
0.97378622
0.97381419
0.97384296
0.97386608
0.97387949
0.97388148
0.97387292
0.97385779
0.97384426
0.97378622
0.97380973
0.97384349
0.9738771
0.97390341
0.97391802
0.97391896
0.97390696
0.97388627
0.97386698
0.97381419
0.97384349
0.97388436
0.97392406
0.97395434
0.97397024
0.9739695
0.97395286
0.97392536
0.97389975
0.97384296
0.9738771
0.97392406
0.97396904
0.9740027
0.97401955
0.9740171
0.97399625
0.97396293
0.9739322
0.97386608
0.97390341
0.97395434
0.9740027
0.97403846
0.9740558
0.97405212
0.97402844
0.9739913
0.97395728
0.97387949
0.97391802
0.97397024
0.97401955
0.9740558
0.97407315
0.974069
0.97404439
0.97400598
0.97397076
0.97388147
0.97391896
0.9739695
0.9740171
0.97405212
0.974069
0.97406526
0.97404184
0.97400497
0.9739709
0.97387292
0.97390696
0.97395286
0.97399625
0.97402844
0.97404439
0.97404184
0.97402158
0.97398911
0.97395879
0.97385779
0.97388627
0.97392536
0.97396293
0.97399131
0.97400598
0.97400497
0.97398911
0.97396319
0.97393901
0.97384426
0.97386698
0.97389975
0.9739322
0.97395729
0.97397076
0.9739709
0.97395879
0.97393901
0.9739214
0.9718993
0.97191817
0.97194666
0.97197579
0.97199887
0.97201171
0.97201264
0.97200274
0.9719864
0.97197219
0.97191817
0.97194221
0.97197662
0.97201065
0.97203692
0.97205088
0.97205058
0.97203703
0.97201496
0.97199493
0.97194666
0.97197662
0.97201827
0.97205849
0.97208875
0.97210391
0.97210175
0.97208334
0.97205429
0.97202784
0.97197579
0.97201065
0.97205849
0.97210407
0.97213772
0.97215377
0.9721498
0.97212703
0.97209202
0.97206041
0.97199887
0.97203692
0.97208875
0.97213772
0.97217347
0.97218999
0.97218473
0.97215908
0.97212024
0.97208534
0.97201171
0.97205088
0.97210391
0.97215377
0.97218999
0.97220652
0.97220082
0.97217429
0.97213426
0.97209825
0.97201264
0.97205058
0.97210175
0.9721498
0.97218473
0.97220082
0.97219563
0.97217044
0.97213214
0.97209746
0.97200274
0.97203703
0.97208334
0.97212703
0.97215908
0.97217429
0.97217044
0.97214866
0.97211501
0.97208427
0.9719864
0.97201496
0.97205429
0.97209202
0.97212024
0.97213426
0.97213214
0.97211501
0.97208813
0.97206367
0.97197219
0.97199493
0.97202785
0.97206041
0.97208534
0.97209826
0.97209746
0.97208427
0.97206367
0.97204579
0.9699834
0.97000263
0.97003156
0.97006092
0.97008384
0.97009603
0.97009586
0.97008465
0.97006717
0.97005233
0.97000263
0.97002715
0.9700621
0.97009643
0.97012252
0.97013573
0.97013417
0.97011912
0.97009576
0.97007505
0.97003156
0.9700621
0.97010441
0.970145
0.97017507
0.97018939
0.9701858
0.9701657
0.9701352
0.97010801
0.97006092
0.97009643
0.970145
0.97019099
0.97022446
0.9702396
0.97023408
0.97020948
0.97017293
0.97014054
0.97008384
0.97012252
0.97017507
0.97022445
0.97026001
0.97027559
0.97026874
0.97024123
0.97020084
0.97016519
0.97009603
0.97013572
0.97018938
0.9702396
0.97027559
0.97029118
0.97028392
0.9702556
0.97021411
0.97017745
0.97009586
0.97013417
0.9701858
0.97023408
0.97026874
0.97028392
0.97027728
0.97025045
0.97021088
0.9701757
0.97008465
0.97011912
0.9701657
0.97020948
0.97024123
0.9702556
0.97025045
0.97022724
0.97019255
0.97016148
0.97006717
0.97009576
0.9701352
0.97017294
0.97020084
0.97021411
0.97021088
0.97019255
0.97016482
0.97014013
0.97005233
0.97007505
0.97010801
0.97014054
0.97016519
0.97017745
0.97017571
0.97016148
0.97014014
0.97012203
0.96801874
0.96803827
0.96806755
0.96809704
0.9681197
0.96813117
0.96812989
0.96811742
0.96809886
0.96808343
0.96803827
0.96806323
0.96809862
0.96813312
0.96815892
0.9681713
0.96816849
0.96815199
0.96812743
0.96810609
0.96806755
0.96809862
0.96814148
0.96818228
0.96821204
0.96822543
0.96822043
0.9681987
0.96816687
0.96813901
0.96809704
0.96813312
0.96818228
0.96822852
0.96826166
0.96827581
0.96826876
0.96824243
0.96820448
0.9681714
0.9681197
0.96815892
0.96821204
0.96826166
0.96829686
0.96831141
0.968303
0.96827374
0.96823195
0.96819564
0.96813117
0.9681713
0.96822543
0.96827581
0.96831141
0.96832598
0.96831719
0.96828719
0.9682444
0.96820719
0.96812989
0.96816848
0.96822043
0.96826876
0.968303
0.96831719
0.96830911
0.96828075
0.96824006
0.96820448
0.96811742
0.96815199
0.9681987
0.96824243
0.96827374
0.96828719
0.96828075
0.96825621
0.96822059
0.96818927
0.96809886
0.96812743
0.96816687
0.96820448
0.96823195
0.9682444
0.96824006
0.96822059
0.96819211
0.96816726
0.96808343
0.96810609
0.96813901
0.9681714
0.96819565
0.96820719
0.96820448
0.96818927
0.96816726
0.96814896
0.96600395
0.96602375
0.9660533
0.96608282
0.96610513
0.96611583
0.96611344
0.96609975
0.96608019
0.96606422
0.96602375
0.96604908
0.96608483
0.96611939
0.96614481
0.96615632
0.96615225
0.96613438
0.96610871
0.9660868
0.9660533
0.96608483
0.96612812
0.96616902
0.96619836
0.96621078
0.96620437
0.96618113
0.96614807
0.9661196
0.96608282
0.96611939
0.96616902
0.96621536
0.96624805
0.96626116
0.96625261
0.96622467
0.96618543
0.96615174
0.96610513
0.9661448
0.96619836
0.96624805
0.96628278
0.96629625
0.96628631
0.96625542
0.96621237
0.9661755
0.96611582
0.96615631
0.96621078
0.96626116
0.96629625
0.96630974
0.96629946
0.96626789
0.96622396
0.96618628
0.96611344
0.96615225
0.96620437
0.96625261
0.96628631
0.96629946
0.96628998
0.9662602
0.96621852
0.96618261
0.96609975
0.96613438
0.96618113
0.96622467
0.96625542
0.96626789
0.9662602
0.96623442
0.96619799
0.96616648
0.96608018
0.96610871
0.96614807
0.96618544
0.96621237
0.96622396
0.96621852
0.966198
0.96616884
0.96614385
0.96606422
0.9660868
0.9661196
0.96615174
0.9661755
0.96618628
0.96618261
0.96616648
0.96614385
0.96612539
0.96393766
0.96395768
0.96398742
0.96401689
0.96403879
0.96404868
0.96404521
0.96403036
0.96400985
0.9639934
0.96395768
0.96398333
0.96401935
0.96405388
0.96407884
0.96408945
0.96408416
0.964065
0.96403829
0.96401586
0.96398742
0.96401935
0.96406297
0.96410387
0.96413271
0.96414413
0.96413637
0.96411169
0.96407751
0.96404849
0.96401689
0.96405387
0.96410387
0.9641502
0.96418236
0.96419439
0.96418439
0.96415494
0.96411454
0.9640803
0.96403878
0.96407884
0.96413271
0.96418236
0.96421651
0.96422888
0.96421746
0.96418505
0.96414087
0.9641035
0.96404868
0.96408945
0.96414413
0.96419439
0.96422888
0.96424126
0.96422953
0.96419653
0.96415156
0.96411348
0.96404521
0.96408416
0.96413637
0.96418439
0.96421746
0.96422953
0.9642187
0.96418762
0.96414506
0.96410888
0.96403036
0.964065
0.96411169
0.96415494
0.96418505
0.96419653
0.96418762
0.9641607
0.96412355
0.96409188
0.96400985
0.96403829
0.96407751
0.96411455
0.96414088
0.96415156
0.96414506
0.96412355
0.96409379
0.96406869
0.9639934
0.96401586
0.96404849
0.9640803
0.96410351
0.96411349
0.96410888
0.96409188
0.96406869
0.96405009
0.96181846
0.96183865
0.96186852
0.96189788
0.96191931
0.96192838
0.96192386
0.96190792
0.96188653
0.96186962
0.96183865
0.96186457
0.96190078
0.96193521
0.96195966
0.96196937
0.9619629
0.96194253
0.96191486
0.96189195
0.96186852
0.96190078
0.96194466
0.96198547
0.96201375
0.96202416
0.9620151
0.96198909
0.96195388
0.96192436
0.96189787
0.96193521
0.96198547
0.96203169
0.96206325
0.96207421
0.96206282
0.96203197
0.96199052
0.96195579
0.9619193
0.96195966
0.96201375
0.96206325
0.96209676
0.96210802
0.96209519
0.96206138
0.96201619
0.96197839
0.96192838
0.96196936
0.96202416
0.96207421
0.96210802
0.96211928
0.96210618
0.96207186
0.96202598
0.96198756
0.96192385
0.9619629
0.96201509
0.96206282
0.96209519
0.96210619
0.96209407
0.96206179
0.96201845
0.96198204
0.96190791
0.96194253
0.96198909
0.96203197
0.96206139
0.96207186
0.96206179
0.96203381
0.96199603
0.96196422
0.96188653
0.96191486
0.96195388
0.96199052
0.9620162
0.96202598
0.96201845
0.96199603
0.96196572
0.96194053
0.96186962
0.96189195
0.96192437
0.96195579
0.96197839
0.96198756
0.96198204
0.96196422
0.96194053
0.96192179
0.95964492
0.95966524
0.95969519
0.95972437
0.9597453
0.95975356
0.95974801
0.95973105
0.95970886
0.95969152
0.95966524
0.95969138
0.95972772
0.95976199
0.9597859
0.9597947
0.95978711
0.95976561
0.95973707
0.95971372
0.95969519
0.95972772
0.95977178
0.95981242
0.95984012
0.95984953
0.95983923
0.95981198
0.95977584
0.95974587
0.95972436
0.95976198
0.95981242
0.95985847
0.95988939
0.95989928
0.95988658
0.95985444
0.95981204
0.95977687
0.95974529
0.9597859
0.95984012
0.95988939
0.95992222
0.95993237
0.95991821
0.95988313
0.95983703
0.95979884
0.95975356
0.9597947
0.95984953
0.95989928
0.95993237
0.95994254
0.95992815
0.95989261
0.95984591
0.9598072
0.95974801
0.9597871
0.95983922
0.95988658
0.95991821
0.95992815
0.95991482
0.95988144
0.95983741
0.9598008
0.95973105
0.9597656
0.95981198
0.95985444
0.95988313
0.95989261
0.95988144
0.9598525
0.95981414
0.95978222
0.95970886
0.95973707
0.95977584
0.95981204
0.95983703
0.95984592
0.95983741
0.95981414
0.95978335
0.95975807
0.95969152
0.95971372
0.95974588
0.95977688
0.95979884
0.9598072
0.95980081
0.95978222
0.95975807
0.95973921
0.95741559
0.95743601
0.95746597
0.95749494
0.95751534
0.95752281
0.9575163
0.95749837
0.95747544
0.95745772
0.95743601
0.95746231
0.95749874
0.95753279
0.95755614
0.95756406
0.9575554
0.95753285
0.95750352
0.95747976
0.95746597
0.95749874
0.95754291
0.95758334
0.95761042
0.95761887
0.95760739
0.95757901
0.95754202
0.95751164
0.95749493
0.95753279
0.95758333
0.95762914
0.9576594
0.95766827
0.95765433
0.95762101
0.95757775
0.95754219
0.95751534
0.95755613
0.95761042
0.9576594
0.95769153
0.95770062
0.95768521
0.95764897
0.95760205
0.95756351
0.95752281
0.95756406
0.95761887
0.95766827
0.95770062
0.95770973
0.95769412
0.95765748
0.95761005
0.95757107
0.95751629
0.9575554
0.95760739
0.95765433
0.95768521
0.95769412
0.95767965
0.95764527
0.95760062
0.95756384
0.95749837
0.95753285
0.95757901
0.95762102
0.95764897
0.95765748
0.95764527
0.95761544
0.95757658
0.95754456
0.95747544
0.95750352
0.95754203
0.95757776
0.95760205
0.95761006
0.95760062
0.95757658
0.95754533
0.95751997
0.95745772
0.95747976
0.95751165
0.95754219
0.95756352
0.95757107
0.95756385
0.95754456
0.95751997
0.957501
0.955129
0.95514948
0.95517943
0.95520814
0.95522802
0.95523471
0.95522728
0.95520848
0.95518486
0.95516679
0.95514948
0.95517592
0.95521236
0.95524617
0.95526895
0.95527603
0.95526637
0.95524286
0.95521279
0.95518868
0.95517942
0.95521236
0.9552566
0.95529677
0.95532324
0.95533076
0.9553182
0.95528878
0.95525102
0.95522027
0.95520814
0.95524617
0.95529677
0.9553423
0.9553719
0.95537978
0.9553647
0.95533031
0.95528627
0.95525035
0.95522802
0.95526895
0.95532324
0.9553719
0.95540333
0.95541141
0.95539484
0.95535753
0.95530987
0.95527103
0.95523471
0.95527602
0.95533076
0.95537978
0.95541141
0.95541949
0.95540276
0.95536512
0.95531703
0.95527782
0.95522728
0.95526637
0.9553182
0.9553647
0.95539484
0.95540276
0.95538723
0.95535193
0.95530674
0.9552698
0.95520847
0.95524286
0.95528878
0.95533031
0.95535753
0.95536512