/*--------------------------------*- C++ -*----------------------------------*\
| =========                 |                                                 |
| \\      /  F ield         | OpenFOAM: The Open Source CFD Toolbox           |
|  \\    /   O peration     | Version:  dev                                   |
|   \\  /    A nd           | Web:      www.OpenFOAM.org                      |
|    \\/     M anipulation  |                                                 |
\*---------------------------------------------------------------------------*/
FoamFile
{
    version     2.0;
    format      ascii;
    class       volScalarField;
    location    "4";
    object      A_0;
}
// * * * * * * * * * * * * * * * * * * * * * * * * * * * * * * * * * * * * * //

dimensions      [0 0 0 0 1 0 0];

internalField   nonuniform List<scalar> 
10000
(
0.99939249
0.99939375
0.999395
0.99939615
0.99939712
0.99939786
0.99939836
0.99939866
0.99939884
0.99939911
0.99939375
0.9993953
0.99939678
0.99939809
0.99939917
0.99939997
0.99940049
0.99940076
0.99940084
0.9994009
0.999395
0.99939678
0.9993985
0.99940001
0.99940121
0.99940208
0.9994026
0.99940279
0.99940269
0.99940253
0.99939615
0.99939809
0.99940001
0.99940168
0.99940299
0.9994039
0.9994044
0.99940449
0.99940423
0.99940391
0.99939712
0.99939917
0.99940121
0.99940299
0.99940437
0.99940531
0.99940578
0.99940579
0.99940541
0.99940498
0.99939786
0.99939997
0.99940208
0.9994039
0.99940531
0.99940624
0.99940669
0.99940665
0.99940621
0.99940572
0.99939836
0.99940049
0.9994026
0.9994044
0.99940578
0.99940669
0.99940712
0.99940708
0.99940662
0.99940611
0.99939866
0.99940076
0.99940279
0.99940449
0.99940579
0.99940665
0.99940708
0.99940706
0.99940666
0.99940617
0.99939884
0.99940084
0.99940269
0.99940423
0.99940541
0.99940621
0.99940662
0.99940666
0.99940636
0.99940597
0.99939911
0.9994009
0.99940253
0.99940391
0.99940498
0.99940572
0.99940611
0.99940617
0.99940597
0.9994057
0.99816048
0.99816411
0.99816788
0.99817136
0.99817429
0.99817652
0.99817803
0.99817893
0.99817943
0.99818009
0.99816411
0.99816865
0.99817311
0.99817708
0.99818034
0.99818276
0.99818435
0.99818515
0.99818532
0.99818533
0.99816788
0.99817311
0.99817831
0.99818287
0.99818652
0.99818915
0.99819072
0.99819126
0.9981909
0.99819024
0.99817136
0.99817708
0.99818287
0.99818792
0.99819191
0.99819467
0.99819617
0.99819642
0.99819556
0.99819441
0.99817429
0.99818034
0.99818652
0.99819191
0.9981961
0.99819893
0.99820034
0.99820035
0.99819913
0.99819765
0.99817652
0.99818276
0.99818915
0.99819467
0.99819893
0.99820176
0.9982031
0.99820297
0.99820155
0.99819987
0.99817803
0.99818435
0.99819072
0.99819617
0.99820034
0.9982031
0.9982044
0.99820424
0.9982028
0.99820104
0.99817893
0.99818515
0.99819126
0.99819642
0.99820035
0.99820297
0.99820424
0.99820419
0.9982029
0.99820122
0.99817943
0.99818532
0.9981909
0.99819556
0.99819913
0.99820155
0.9982028
0.9982029
0.99820194
0.99820057
0.99818009
0.99818533
0.99819024
0.99819441
0.99819765
0.99819987
0.99820104
0.99820122
0.99820057
0.9981996
0.9968974
0.99690311
0.99690936
0.99691519
0.99692011
0.99692385
0.99692636
0.99692782
0.99692851
0.9969292
0.99690311
0.99691031
0.99691775
0.99692443
0.9969299
0.99693398
0.99693662
0.99693793
0.99693803
0.9969376
0.99690936
0.99691775
0.99692644
0.99693411
0.99694027
0.99694469
0.9969473
0.99694817
0.99694735
0.99694576
0.99691519
0.99692443
0.99693411
0.99694264
0.99694936
0.99695401
0.9969565
0.99695685
0.99695519
0.99695275
0.99692011
0.9969299
0.99694027
0.99694936
0.99695643
0.9969612
0.99696354
0.99696347
0.9969612
0.99695819
0.99692385
0.99693398
0.99694469
0.99695401
0.9969612
0.99696596
0.99696818
0.99696788
0.99696527
0.99696192
0.99692636
0.99693662
0.9969473
0.9969565
0.99696354
0.99696818
0.99697034
0.99697001
0.99696734
0.99696387
0.99692782
0.99693793
0.99694817
0.99695685
0.99696347
0.99696788
0.99697001
0.99696984
0.99696745
0.99696413
0.99692851
0.99693803
0.99694735
0.99695519
0.9969612
0.99696527
0.99696734
0.99696745
0.99696565
0.99696288
0.9969292
0.9969376
0.99694576
0.99695275
0.99695819
0.99696192
0.99696387
0.99696413
0.99696288
0.99696087
0.99560288
0.99561033
0.99561898
0.99562716
0.99563407
0.99563931
0.9956428
0.99564473
0.99564539
0.99564575
0.99561033
0.99561983
0.99563016
0.99563955
0.99564728
0.99565301
0.99565667
0.99565838
0.99565817
0.99565688
0.99561898
0.99563016
0.99564228
0.99565311
0.99566181
0.99566803
0.99567165
0.99567271
0.99567117
0.99566822
0.99562716
0.99563955
0.99565311
0.99566515
0.99567465
0.99568121
0.99568464
0.99568497
0.99568221
0.99567803
0.99563407
0.99564728
0.99566181
0.99567465
0.99568466
0.99569138
0.9956946
0.99569433
0.99569069
0.99568569
0.99563931
0.99565301
0.99566803
0.99568121
0.99569138
0.99569809
0.99570115
0.99570054
0.99569641
0.99569091
0.9956428
0.99565667
0.99567165
0.99568464
0.9956946
0.99570115
0.99570412
0.99570347
0.99569927
0.9956936
0.99564473
0.99565838
0.99567271
0.99568497
0.99569433
0.99570054
0.99570347
0.99570307
0.99569929
0.99569386
0.99564539
0.99565817
0.99567117
0.99568221
0.99569069
0.99569641
0.99569927
0.99569929
0.99569638
0.9956918
0.99564575
0.99565688
0.99566822
0.99567803
0.99568569
0.99569091
0.9956936
0.99569386
0.9956918
0.99568846
0.99427635
0.99428525
0.99429616
0.99430665
0.99431554
0.99432226
0.99432666
0.99432892
0.99432931
0.994329
0.99428525
0.99429668
0.99430977
0.99432185
0.99433182
0.99433919
0.9943438
0.99434574
0.99434493
0.99434246
0.99429616
0.99430977
0.9943252
0.99433917
0.99435042
0.99435843
0.99436298
0.99436405
0.99436146
0.9943568
0.99430665
0.99432185
0.99433917
0.99435473
0.99436703
0.99437548
0.99437978
0.99437987
0.99437568
0.99436939
0.99431554
0.99433182
0.99435042
0.99436703
0.99438
0.99438866
0.99439267
0.99439199
0.99438663
0.99437925
0.99432227
0.99433919
0.99435843
0.99437548
0.99438866
0.99439731
0.99440111
0.99439998
0.99439398
0.99438595
0.99432666
0.9943438
0.99436298
0.99437978
0.99439267
0.99440111
0.99440479
0.99440362
0.99439756
0.99438932
0.99432892
0.99434574
0.99436405
0.99437987
0.99439199
0.99439998
0.99440362
0.99440281
0.99439732
0.99438944
0.99432931
0.99434493
0.99436146
0.99437568
0.99438663
0.99439398
0.99439756
0.99439732
0.99439304
0.99438637
0.994329
0.99434246
0.9943568
0.99436939
0.99437925
0.99438595
0.99438932
0.99438944
0.99438637
0.99438151
0.99291711
0.99292724
0.99294026
0.992953
0.99296382
0.99297196
0.99297715
0.99297957
0.99297944
0.99297823
0.99292724
0.99294029
0.99295597
0.99297068
0.99298285
0.99299179
0.99299723
0.99299919
0.9929975
0.99299361
0.99294026
0.99295597
0.99297454
0.9929916
0.99300537
0.9930151
0.99302045
0.9930213
0.99301737
0.99301076
0.992953
0.99297068
0.9929916
0.99301063
0.99302572
0.99303599
0.99304101
0.99304064
0.99303469
0.99302605
0.99296382
0.99298285
0.99300537
0.99302572
0.99304163
0.99305216
0.99305683
0.99305547
0.99304807
0.99303806
0.99297196
0.99299179
0.9930151
0.99303599
0.99305216
0.99306268
0.99306709
0.99306519
0.99305699
0.99304618
0.99297715
0.99299723
0.99302045
0.99304101
0.99305683
0.99306709
0.99307136
0.99306943
0.99306117
0.99305012
0.99297957
0.99299919
0.9930213
0.99304064
0.99305547
0.99306519
0.99306943
0.99306797
0.99306048
0.99304994
0.99297944
0.9929975
0.99301737
0.99303469
0.99304807
0.99305699
0.99306117
0.99306048
0.99305458
0.99304567
0.99297823
0.99299361
0.99301076
0.99302605
0.99303806
0.99304618
0.99305012
0.99304994
0.99304567
0.99303922
0.99152441
0.99153559
0.99155057
0.99156545
0.99157814
0.99158761
0.99159346
0.99159582
0.99159494
0.99159266
0.99153559
0.99155001
0.99156809
0.99158533
0.99159963
0.99161006
0.99161617
0.99161792
0.99161508
0.99160963
0.99155057
0.99156809
0.99158961
0.99160966
0.99162588
0.99163724
0.99164321
0.99164358
0.99163802
0.99162935
0.99156545
0.99158533
0.99160966
0.99163207
0.99164987
0.99166187
0.99166744
0.99166632
0.99165832
0.99164721
0.99157814
0.99159964
0.99162588
0.99164987
0.99166865
0.99168096
0.9916861
0.9916838
0.99167405
0.99166129
0.99158761
0.99161006
0.99163724
0.99166187
0.99168096
0.99169326
0.99169808
0.99169514
0.99168445
0.99167074
0.99159346
0.99161617
0.99164321
0.99166744
0.9916861
0.99169808
0.99170277
0.99169981
0.99168909
0.99167514
0.99159582
0.99161792
0.99164358
0.99166632
0.9916838
0.99169514
0.99169981
0.99169747
0.99168774
0.99167449
0.99159494
0.99161508
0.99163802
0.99165832
0.99167405
0.99168445
0.99168909
0.99168774
0.99168002
0.99166887
0.99159266
0.99160963
0.99162935
0.99164721
0.99166129
0.99167073
0.99167514
0.99167449
0.99166887
0.99166083
0.9900974
0.99010951
0.99012631
0.99014322
0.99015766
0.99016834
0.99017469
0.9901768
0.99017496
0.99017151
0.99010951
0.99012513
0.99014542
0.99016505
0.99018139
0.99019316
0.99019975
0.99020104
0.99019684
0.99018977
0.99012631
0.99014542
0.99016967
0.99019257
0.99021113
0.99022397
0.99023037
0.99023
0.99022259
0.99021181
0.99014322
0.99016505
0.99019257
0.99021823
0.99023862
0.9902522
0.99025811
0.99025596
0.99024569
0.99023208
0.99015767
0.99018139
0.99021113
0.99023862
0.99026016
0.9902741
0.99027949
0.99027597
0.99026365
0.99024812
0.99016834
0.99019316
0.99022397
0.9902522
0.9902741
0.99028802
0.99029306
0.99028879
0.9902754
0.99025878
0.99017469
0.99019975
0.99023037
0.99025811
0.99027949
0.99029306
0.99029795
0.99029371
0.99028033
0.9902635
0.9901768
0.99020104
0.99023
0.99025596
0.99027596
0.99028879
0.99029371
0.99029024
0.99027812
0.99026221
0.99017496
0.99019684
0.99022259
0.99024569
0.99026365
0.9902754
0.99028033
0.99027812
0.99026845
0.99025515
0.99017151
0.99018977
0.99021181
0.99023208
0.99024812
0.99025878
0.99026349
0.99026221
0.99025515
0.99024559
0.98863523
0.98864818
0.98866664
0.98868544
0.98870153
0.98871327
0.98871994
0.98872157
0.98871861
0.98871395
0.98864818
0.98866485
0.98868717
0.98870905
0.98872726
0.98874022
0.9887471
0.98874768
0.98874194
0.98873327
0.98866664
0.98868717
0.98871394
0.98873951
0.98876026
0.98877441
0.98878101
0.98877963
0.9887702
0.98875737
0.98868544
0.98870905
0.98873951
0.98876823
0.98879106
0.98880604
0.98881205
0.98880861
0.98879591
0.98877986
0.98870153
0.98872726
0.98876026
0.98879106
0.9888152
0.98883057
0.98883599
0.98883097
0.98881594
0.98879771
0.98871327
0.98874022
0.98877441
0.98880604
0.98883057
0.98884594
0.98885096
0.98884511
0.98882888
0.98880944
0.98871994
0.9887471
0.98878101
0.98881205
0.98883599
0.98885096
0.98885583
0.98885006
0.98883392
0.98881432
0.98872157
0.98874768
0.98877963
0.98880861
0.98883097
0.98884511
0.98885006
0.98884526
0.98883065
0.98881225
0.98871862
0.98874194
0.9887702
0.98879591
0.98881594
0.98882888
0.98883391
0.98883065
0.98881898
0.98880368
0.98871395
0.98873327
0.98875737
0.98877986
0.98879771
0.98880944
0.98881432
0.98881225
0.98880368
0.98879272
0.98713695
0.98715068
0.98717067
0.98719123
0.9872088
0.98722145
0.98722825
0.9872292
0.987225
0.98721913
0.98715068
0.98716832
0.98719249
0.98721643
0.98723637
0.98725032
0.98725727
0.98725693
0.98724953
0.98723929
0.98717067
0.98719249
0.98722156
0.98724962
0.98727236
0.98728762
0.98729418
0.98729156
0.98728001
0.98726521
0.98719123
0.98721643
0.98724962
0.98728118
0.98730625
0.9873224
0.98732827
0.98732331
0.98730808
0.98728971
0.9872088
0.98723637
0.98727236
0.98730625
0.98733278
0.98734937
0.98735456
0.98734782
0.98732999
0.98730921
0.98722145
0.98725032
0.98728762
0.9873224
0.98734937
0.98736596
0.98737071
0.98736307
0.98734393
0.98732184
0.98722825
0.98725727
0.98729418
0.98732827
0.98735456
0.98737071
0.98737534
0.98736784
0.98734889
0.98732671
0.98722921
0.98725693
0.98729156
0.98732331
0.98734782
0.98736307
0.98736784
0.98736152
0.98734441
0.98732373
0.987225
0.98724953
0.98728001
0.98730808
0.98732999
0.98734393
0.98734889
0.98734441
0.98733074
0.98731364
0.98721913
0.98723929
0.9872652
0.98728971
0.98730921
0.98732184
0.98732671
0.98732373
0.98731364
0.98730142
0.98560162
0.98561607
0.98563747
0.98565962
0.98567852
0.98569189
0.98569863
0.98569874
0.98569319
0.98568616
0.98561607
0.9856346
0.98566047
0.9856863
0.98570776
0.98572251
0.9857293
0.98572784
0.98571871
0.985707
0.98563747
0.98566047
0.98569164
0.98572196
0.98574649
0.98576263
0.98576891
0.98576484
0.98575111
0.98573447
0.98565962
0.9856863
0.98572196
0.98575612
0.9857832
0.9858003
0.98580578
0.98579908
0.9857813
0.98576077
0.98567852
0.98570776
0.98574649
0.9857832
0.98581188
0.98582944
0.98583417
0.98582551
0.98580487
0.98578171
0.98569189
0.98572251
0.98576263
0.9858003
0.98582944
0.98584701
0.98585126
0.98584164
0.98581961
0.98579508
0.98569863
0.9857293
0.98576891
0.98580578
0.98583417
0.98585126
0.98585542
0.98584603
0.9858243
0.98579979
0.98569874
0.98572784
0.98576484
0.98579908
0.98582551
0.98584164
0.98584603
0.98583804
0.98581849
0.98579577
0.98569319
0.98571871
0.98575111
0.9857813
0.98580487
0.98581961
0.9858243
0.98581849
0.98580286
0.9857842
0.98568616
0.985707
0.98573447
0.98576077
0.98578171
0.98579508
0.98579978
0.98579577
0.9857842
0.98577086
0.98402823
0.98404336
0.98406604
0.98408963
0.98410968
0.98412358
0.98413007
0.98412918
0.98412224
0.98411408
0.98404336
0.98406273
0.98409014
0.98411765
0.98414044
0.98415577
0.9841622
0.98415945
0.98414856
0.98413546
0.98406604
0.98409014
0.98412322
0.98415557
0.98418165
0.98419843
0.98420421
0.98419853
0.98418262
0.98416427
0.98408963
0.98411765
0.98415557
0.98419208
0.98422091
0.98423869
0.98424354
0.98423497
0.98421464
0.98419213
0.98410968
0.98414044
0.98418165
0.98422091
0.98425146
0.98426974
0.98427376
0.98426304
0.98423963
0.9842143
0.98412358
0.98415577
0.98419843
0.98423869
0.98426974
0.98428802
0.98429154
0.98427982
0.98425497
0.98422822
0.98413007
0.9841622
0.98420421
0.98424354
0.98427376
0.98429154
0.98429502
0.98428362
0.98425921
0.98423261
0.98412918
0.98415945
0.98419853
0.98423497
0.98426304
0.98427982
0.98428362
0.98427388
0.98425199
0.98422749
0.98412224
0.98414856
0.98418262
0.98421464
0.98423963
0.98425497
0.98425921
0.98425199
0.98423448
0.98421448
0.98411408
0.98413546
0.98416427
0.98419213
0.9842143
0.98422822
0.98423261
0.98422749
0.98421448
0.98420018
0.98241572
0.9824315
0.98245535
0.9824802
0.98250121
0.98251546
0.98252153
0.98251952
0.98251116
0.98250194
0.9824315
0.98245167
0.98248047
0.98250948
0.98253337
0.98254907
0.98255494
0.98255078
0.98253812
0.98252375
0.98245535
0.98248047
0.98251527
0.98254942
0.98257681
0.98259398
0.98259905
0.98259164
0.98257357
0.98255368
0.9824802
0.98250948
0.98254942
0.982588
0.98261831
0.98263652
0.98264054
0.98262997
0.98260716
0.98258285
0.98250121
0.98253338
0.98257681
0.98261831
0.98265046
0.98266918
0.98267228
0.98265941
0.98263333
0.98260605
0.98251546
0.98254907
0.98259398
0.98263652
0.98266918
0.98268791
0.9826905
0.9826766
0.98264904
0.98262032
0.98252153
0.98255494
0.98259905
0.98264054
0.98267228
0.9826905
0.9826931
0.98267964
0.98265268
0.98262426
0.98251952
0.98255078
0.98259164
0.98262997
0.98265941
0.98267659
0.98267964
0.98266808
0.98264398
0.98261798
0.98251116
0.98253812
0.98257357
0.98260716
0.98263333
0.98264904
0.98265268
0.98264398
0.98262473
0.98260361
0.98250194
0.98252375
0.98255368
0.98258285
0.98260604
0.98262031
0.98262425
0.98261798
0.98260361
0.98258848
0.980763
0.98077941
0.9808043
0.98083026
0.98085205
0.98086646
0.98087195
0.98086872
0.98085894
0.98084872
0.98077941
0.98080034
0.98083039
0.98086069
0.98088548
0.98090133
0.98090647
0.9809008
0.98088641
0.98087086
0.9808043
0.98083039
0.98086673
0.98090245
0.98093089
0.98094822
0.98095239
0.98094316
0.98092301
0.98090171
0.98083026
0.98086069
0.98090245
0.98094283
0.98097435
0.98099273
0.98099572
0.98098308
0.9809579
0.98093197
0.98085205
0.98088549
0.98093089
0.98097435
0.98100779
0.9810267
0.98102869
0.98101361
0.98098498
0.98095596
0.98086646
0.98090133
0.98094822
0.98099273
0.9810267
0.98104561
0.98104709
0.98103096
0.98100086
0.9809704
0.98087195
0.98090647
0.98095239
0.98099572
0.98102869
0.98104709
0.98104864
0.98103309
0.98100376
0.98097376
0.98086872
0.98090081
0.98094316
0.98098308
0.98101361
0.98103096
0.98103309
0.9810197
0.98099357
0.9809663
0.98085894
0.98088641
0.98092301
0.98095789
0.98098498
0.98100085
0.98100376
0.98099357
0.98097269
0.98095065
0.98084872
0.98087086
0.98090171
0.98093197
0.98095596
0.9809704
0.98097376
0.9809663
0.98095065
0.98093482
0.97906896
0.97908595
0.97911178
0.97913868
0.97916107
0.97917546
0.97918023
0.97917571
0.97916452
0.97915338
0.97908595
0.97910759
0.97913877
0.97917018
0.97919565
0.97921146
0.97921571
0.97920848
0.97919239
0.97917577
0.97911178
0.97913877
0.97917649
0.97921354
0.97924279
0.97926006
0.97926317
0.97925208
0.97922991
0.97920734
0.97913868
0.97917018
0.97921354
0.97925546
0.97928791
0.97930622
0.97930802
0.97929328
0.97926584
0.97923847
0.97916107
0.97919566
0.97924279
0.97928791
0.97932235
0.97934119
0.97934193
0.97932462
0.9792936
0.97926304
0.97917546
0.97921146
0.97926006
0.97930622
0.97934119
0.97936004
0.97936026
0.97934192
0.97930943
0.97927748
0.97918023
0.97921571
0.97926317
0.97930802
0.97934193
0.97936026
0.97936062
0.979343
0.97931148
0.97928015
0.97917571
0.97920848
0.97925208
0.97929328
0.97932462
0.97934192
0.979343
0.9793278
0.97929981
0.97927149
0.97916452
0.97919239
0.97922991
0.97926584
0.97929359
0.97930943
0.97931148
0.97929981
0.97927745
0.97925466
0.97915338
0.97917577
0.97920734
0.97923847
0.97926304
0.97927747
0.97928015
0.97927149
0.97925466
0.97923825
0.97733242
0.97734995
0.97737661
0.9774043
0.97742711
0.97744132
0.97744525
0.9774394
0.97742684
0.97741483
0.97734995
0.97737228
0.97740445
0.97743678
0.97746273
0.9774783
0.97748154
0.97747271
0.97745501
0.9774374
0.97737661
0.97740445
0.97744339
0.97748155
0.97751137
0.97752837
0.97753029
0.97751731
0.97749325
0.97746954
0.9774043
0.97743678
0.97748155
0.97752475
0.97755786
0.97757589
0.97757635
0.97755953
0.97752996
0.97750132
0.97742711
0.97746274
0.97751138
0.97755786
0.97759302
0.97761157
0.97761091
0.97759141
0.97755815
0.97752626
0.97744132
0.9774783
0.97752837
0.97757589
0.97761157
0.97763012
0.97762896
0.97760844
0.97757377
0.97754052
0.97744526
0.97748154
0.97753029
0.97757635
0.97761091
0.97762896
0.97762803
0.97760838
0.97757486
0.97754242
0.9774394
0.97747271
0.97751731
0.97755953
0.97759141
0.97760844
0.97760838
0.97759141
0.97756174
0.97753257
0.97742684
0.97745501
0.97749325
0.97752996
0.97755815
0.97757377
0.97757486
0.97756174
0.97753804
0.97751466
0.97741483
0.9774374
0.97746954
0.97750132
0.97752626
0.97754052
0.97754242
0.97753257
0.97751466
0.97749776
0.97555219
0.97557021
0.9755976
0.97562592
0.97564898
0.97566287
0.97566587
0.97565865
0.97564477
0.97563196
0.97557022
0.97559317
0.97562623
0.9756593
0.97568554
0.97570072
0.97570284
0.97569241
0.97567315
0.97565465
0.9755976
0.97562623
0.97566623
0.97570529
0.97573547
0.97575201
0.97575263
0.97573779
0.97571193
0.9756872
0.97562592
0.9756593
0.97570529
0.97574953
0.97578306
0.97580059
0.97579963
0.97578075
0.97574921
0.97571943
0.97564898
0.97568554
0.97573547
0.97578306
0.97581866
0.97583671
0.97583457
0.97581292
0.97577761
0.97574455
0.97566287
0.97570072
0.97575201
0.97580059
0.97583671
0.97585477
0.97585214
0.97582951
0.97579284
0.97575849
0.97566587
0.97570284
0.97575263
0.97579963
0.97583457
0.97585214
0.97584982
0.97582822
0.97579291
0.97575954
0.97565866
0.97569241
0.97573779
0.97578075
0.97581292
0.97582951
0.97582822
0.97580956
0.97577838
0.97574854
0.97564477
0.97567315
0.97571193
0.97574921
0.97577761
0.97579284
0.97579291
0.97577838
0.97575348
0.97572963
0.97563196
0.97565465
0.9756872
0.97571943
0.97574455
0.97575849
0.97575954
0.97574854
0.97572963
0.97571233
0.97372701
0.9737455
0.97377351
0.97380232
0.97382548
0.97383891
0.9738409
0.97383233
0.97381717
0.97380363
0.9737455
0.97376904
0.97380286
0.97383651
0.97386287
0.9738775
0.97387844
0.97386642
0.9738457
0.97382638
0.97377351
0.97380286
0.97384378
0.97388355
0.97391388
0.9739298
0.97392906
0.97391239
0.97388486
0.9738592
0.97380232
0.97383651
0.97388355
0.97392859
0.97396231
0.97397919
0.97397674
0.97395585
0.97392248
0.9738917
0.97382548
0.97386287
0.97391388
0.97396231
0.97399813
0.97401549
0.97401181
0.97398809
0.9739509
0.97391683
0.97383891
0.9738775
0.9739298
0.97397919
0.97401549
0.97403287
0.97402872
0.97400407
0.97396559
0.97393032
0.9738409
0.97387844
0.97392906
0.97397674
0.97401181
0.97402872
0.97402497
0.97400151
0.97396458
0.97393047
0.97383233
0.97386642
0.97391239
0.97395585
0.97398809
0.97400407
0.97400151
0.97398123
0.97394871
0.97391833
0.97381717
0.9738457
0.97388486
0.97392248
0.9739509
0.97396559
0.97396458
0.97394871
0.97392274
0.97389852
0.97380363
0.97382638
0.9738592
0.9738917
0.97391683
0.97393032
0.97393046
0.97391833
0.97389852
0.97388089
0.97185563
0.97187452
0.97190307
0.97193224
0.97195535
0.97196822
0.97196914
0.97195923
0.97194287
0.97192864
0.97187453
0.97189861
0.97193307
0.97196716
0.97199347
0.97200744
0.97200715
0.97199358
0.97197147
0.97195141
0.97190307
0.97193307
0.97197478
0.97201507
0.97204537
0.97206055
0.9720584
0.97203996
0.97201086
0.97198438
0.97193224
0.97196716
0.97201507
0.97206072
0.97209442
0.9721105
0.97210652
0.97208371
0.97204865
0.97201699
0.97195536
0.97199347
0.97204537
0.97209442
0.97213023
0.97214677
0.9721415
0.97211582
0.97207691
0.97204196
0.97196822
0.97200744
0.97206056
0.9721105
0.97214677
0.97216333
0.97215762
0.97213105
0.97209095
0.9720549
0.97196914
0.97200715
0.9720584
0.97210652
0.9721415
0.97215762
0.97215242
0.9721272
0.97208884
0.9720541
0.97195923
0.97199358
0.97203996
0.97208371
0.97211581
0.97213105
0.9721272
0.97210538
0.97207168
0.97204089
0.97194287
0.97197147
0.97201086
0.97204865
0.97207691
0.97209095
0.97208884
0.97207168
0.97204476
0.97202026
0.97192864
0.97195141
0.97198438
0.97201699
0.97204196
0.9720549
0.9720541
0.97204089
0.97202026
0.97200235
0.96993674
0.96995599
0.96998497
0.97001438
0.97003733
0.97004954
0.97004937
0.97003815
0.97002064
0.97000578
0.96995599
0.96998056
0.97001557
0.97004994
0.97007608
0.9700893
0.97008775
0.97007267
0.97004927
0.97002853
0.96998497
0.97001557
0.97005794
0.97009859
0.97012871
0.97014304
0.97013946
0.97011932
0.97008878
0.97006154
0.97001438
0.97004994
0.97009859
0.97014465
0.97017817
0.97019334
0.97018781
0.97016317
0.97012657
0.97009413
0.97003734
0.97007608
0.97012871
0.97017817
0.97021378
0.97022938
0.97022253
0.97019497
0.97015452
0.97011881
0.97004955
0.9700893
0.97014304
0.97019334
0.97022938
0.970245
0.97023773
0.97020936
0.97016781
0.9701311
0.97004937
0.97008775
0.97013946
0.97018781
0.97022253
0.97023773
0.97023108
0.97020421
0.97016458
0.97012935
0.97003815
0.97007267
0.97011932
0.97016317
0.97019497
0.97020936
0.97020421
0.97018096
0.97014621
0.9701151
0.97002064
0.97004927
0.97008877
0.97012657
0.97015452
0.97016781
0.97016458
0.97014621
0.97011844
0.97009372
0.97000578
0.97002853
0.97006154
0.97009413
0.97011881
0.97013109
0.97012934
0.9701151
0.97009372
0.97007559
0.96796901
0.96798857
0.9680179
0.96804743
0.96807012
0.96808161
0.96808033
0.96806784
0.96804925
0.9680338
0.96798857
0.96801357
0.96804902
0.96808357
0.96810941
0.96812181
0.96811899
0.96810247
0.96807787
0.9680565
0.9680179
0.96804902
0.96809194
0.96813281
0.96816261
0.96817602
0.96817101
0.96814925
0.96811738
0.96808947
0.96804743
0.96808357
0.96813281
0.96817911
0.9682123
0.96822648
0.96821942
0.96819305
0.96815504
0.96812191
0.96807013
0.96810941
0.96816261
0.9682123
0.96824756
0.96826214
0.96825371
0.9682244
0.96818255
0.96814619
0.96808161
0.96812181
0.96817602
0.96822648
0.96826214
0.96827673
0.96826793
0.96823787
0.96819503
0.96815776
0.96808033
0.96811899
0.96817101
0.96821942
0.96825371
0.96826793
0.96825983
0.96823143
0.96819068
0.96815504
0.96806784
0.96810247
0.96814925
0.96819305
0.9682244
0.96823787
0.96823143
0.96820685
0.96817118
0.96813981
0.96804925
0.96807787
0.96811738
0.96815504
0.96818255
0.96819503
0.96819068
0.96817118
0.96814265
0.96811776
0.9680338
0.9680565
0.96808947
0.96812191
0.96814619
0.96815775
0.96815504
0.96813981
0.96811776
0.96809944
0.96595107
0.9659709
0.96600049
0.96603006
0.9660524
0.96606312
0.96606073
0.96604702
0.96602742
0.96601143
0.9659709
0.96599627
0.96603207
0.96606668
0.96609214
0.96610367
0.9660996
0.96608171
0.96605599
0.96603404
0.96600049
0.96603207
0.96607543
0.9661164
0.96614578
0.96615822
0.96615181
0.96612852
0.96609542
0.9660669
0.96603006
0.96606669
0.9661164
0.96616281
0.96619555
0.96620868
0.96620012
0.96617213
0.96613284
0.96609909
0.96605241
0.96609214
0.96614578
0.96619555
0.96623033
0.96624383
0.96623387
0.96620293
0.96615982
0.96612289
0.96606312
0.96610367
0.96615822
0.96620868
0.96624383
0.96625734
0.96624704
0.96621543
0.96617142
0.96613368
0.96606073
0.9660996
0.96615181
0.96620012
0.96623387
0.96624704
0.96623754
0.96620772
0.96616598
0.96613001
0.96604702
0.96608171
0.96612852
0.96617213
0.96620293
0.96621543
0.96620772
0.9661819
0.96614542
0.96611385
0.96602742
0.96605599
0.96609542
0.96613284
0.96615982
0.96617142
0.96616598
0.96614542
0.96611622
0.96609119
0.96601143
0.96603404
0.9660669
0.96609909
0.96612289
0.96613368
0.96613001
0.96611385
0.96609119
0.9660727
0.96388154
0.96390159
0.96393138
0.9639609
0.96398283
0.96399274
0.96398926
0.96397439
0.96395385
0.96393737
0.96390159
0.96392728
0.96396336
0.96399794
0.96402294
0.96403357
0.96402828
0.96400909
0.96398234
0.96395987
0.96393138
0.96396336
0.96400705
0.96404801
0.9640769
0.96408834
0.96408056
0.96405585
0.96402162
0.96399255
0.9639609
0.96399794
0.96404801
0.96409442
0.96412662
0.96413868
0.96412866
0.96409917
0.96405871
0.96402441
0.96398283
0.96402294
0.9640769
0.96412662
0.96416083
0.96417322
0.96416178
0.96412932
0.96408508
0.96404765
0.96399274
0.96403357
0.96408834
0.96413868
0.96417322
0.96418562
0.96417387
0.96414082
0.96409579
0.96405765
0.96398926
0.96402828
0.96408056
0.96412866
0.96416178
0.96417387
0.96416303
0.9641319
0.96408928
0.96405304
0.9639744
0.96400909
0.96405585
0.96409916
0.96412932
0.96414082
0.9641319
0.96410493
0.96406773
0.96403601
0.96395385
0.96398234
0.96402161
0.96405871
0.96408508
0.96409578
0.96408927
0.96406773
0.96403792
0.96401279
0.96393737
0.96395987
0.96399255
0.96402441
0.96404765
0.96405765
0.96405303
0.964036
0.96401278
0.96399415
0.96175902
0.96177925
0.96180917
0.96183856
0.96186003
0.96186912
0.96186459
0.96184862
0.96182721
0.96181026
0.96177925
0.9618052
0.96184148
0.96187596
0.96190045
0.96191017
0.96190369
0.96188329
0.96185558
0.96183264
0.96180917
0.96184148
0.96188543
0.96192629
0.96195462
0.96196505
0.96195597
0.96192992
0.96189466
0.9618651
0.96183857
0.96187596
0.96192629
0.96197259
0.9620042
0.96201517
0.96200377
0.96197287
0.96193136
0.96189658
0.96186003
0.96190045
0.96195462
0.9620042
0.96203776
0.96204903
0.96203619
0.96200233
0.96195707
0.96191921
0.96186912
0.96191017
0.96196505
0.96201517
0.96204903
0.96206032
0.9620472
0.96201282
0.96196687
0.96192839
0.96186459
0.96190369
0.96195597
0.96200377
0.96203618
0.9620472
0.96203507
0.96200273
0.96195933
0.96192287
0.96184862
0.96188329
0.96192992
0.96197287
0.96200233
0.96201282
0.96200273
0.96197472
0.96193687
0.96190502
0.96182721
0.96185558
0.96189466
0.96193136
0.96195707
0.96196687
0.96195933
0.96193687
0.96190652
0.96188129
0.96181026
0.96183264
0.9618651
0.96189657
0.96191921
0.96192839
0.96192286
0.96190502
0.96188129
0.96186252
0.95958208
0.95960243
0.95963242
0.95966165
0.95968261
0.95969089
0.95968533
0.95966834
0.95964612
0.95962875
0.95960244
0.95962861
0.95966501
0.95969933
0.95972328
0.95973209
0.95972449
0.95970295
0.95967437
0.95965099
0.95963242
0.95966501
0.95970914
0.95974984
0.95977758
0.95978701
0.95977669
0.9597494
0.95971321
0.95968319
0.95966165
0.95969933
0.95974984
0.95979596
0.95982693
0.95983684
0.95982412
0.95979193
0.95974947
0.95971424
0.95968261
0.95972328
0.95977758
0.95982693
0.95985981
0.95986998
0.9598558
0.95982067
0.95977449
0.95973624
0.95969089
0.95973209
0.95978701
0.95983684
0.95986998
0.95988017
0.95986575
0.95983016
0.95978339
0.95974461
0.95968534
0.95972449
0.95977669
0.95982412
0.9598558
0.95986575
0.9598524
0.95981897
0.95977487
0.95973821
0.95966834
0.95970295
0.9597494
0.95979193
0.95982066
0.95983016
0.95981897
0.95978998
0.95975157
0.9597196
0.95964612
0.95967437
0.95971321
0.95974946
0.95977449
0.95978339
0.95977487
0.95975157
0.95972073
0.9596954
0.95962875
0.95965099
0.95968319
0.95971424
0.95973624
0.95974461
0.95973821
0.9597196
0.9596954
0.95967652
0.95734925
0.9573697
0.95739971
0.95742872
0.95744916
0.95745664
0.95745012
0.95743217
0.9574092
0.95739145
0.9573697
0.95739605
0.95743253
0.95746663
0.95749002
0.95749795
0.95748928
0.9574667
0.95743732
0.95741353
0.95739972
0.95743253
0.95747677
0.95751726
0.95754438
0.95755285
0.95754135
0.95751293
0.95747589
0.95744546
0.95742872
0.95746663
0.95751726
0.95756314
0.95759344
0.95760232
0.95758837
0.957555
0.95751167
0.95747606
0.95744916
0.95749002
0.95754438
0.95759344
0.95762563
0.95763473
0.9576193
0.957583
0.957536
0.95749741
0.95745664
0.95749795
0.95755285
0.95760232
0.95763473
0.95764385
0.95762822
0.95759153
0.95754402
0.95750498
0.95745012
0.95748928
0.95754135
0.95758837
0.9576193
0.95762822
0.95761373
0.95757929
0.95753458
0.95749774
0.95743217
0.9574667
0.95751293
0.957555
0.95758299
0.95759152
0.95757929
0.95754942
0.95751049
0.95747842
0.9574092
0.95743732
0.95747589
0.95751167
0.957536
0.95754402
0.95753458
0.95751049
0.9574792
0.9574538
0.95739145
0.95741353
0.95744546
0.95747606
0.95749741
0.95750498
0.95749774
0.95747842
0.9574538
0.9574348
0.95505907
0.95507958
0.95510958
0.95513833
0.95515825
0.95516495
0.95515751
0.95513867
0.95511502
0.95509692
0.95507959
0.95510606
0.95514257
0.95517643
0.95519924
0.95520633
0.95519666
0.95517311
0.955143
0.95511885
0.95510958
0.95514257
0.95518687
0.95522711
0.95525361
0.95526115
0.95524857
0.95521911
0.95518129
0.95515049
0.95513833
0.95517643
0.95522711
0.95527271
0.95530235
0.95531024
0.95529514
0.9552607
0.95521659
0.95518062
0.95515825
0.95519924
0.95525362
0.95530235
0.95533383
0.95534192
0.95532533
0.95528796
0.95524023
0.95520133
0.95516495
0.95520633
0.95526115
0.95531024
0.95534192
0.95535002
0.95533326
0.95529556
0.95524741
0.95520813
0.95515751
0.95519666
0.95524857
0.95529514
0.95532533
0.95533326
0.9553177
0.95528236
0.95523709
0.9552001
0.95513867
0.95517311
0.95521911
0.9552607
0.95528796