/*--------------------------------*- C++ -*----------------------------------*\
| =========                 |                                                 |
| \\      /  F ield         | OpenFOAM: The Open Source CFD Toolbox           |
|  \\    /   O peration     | Version:  dev                                   |
|   \\  /    A nd           | Web:      www.OpenFOAM.org                      |
|    \\/     M anipulation  |                                                 |
\*---------------------------------------------------------------------------*/
FoamFile
{
    version     2.0;
    format      ascii;
    class       volScalarField;
    location    "4";
    object      p;
}
// * * * * * * * * * * * * * * * * * * * * * * * * * * * * * * * * * * * * * //

dimensions      [0 2 -2 0 0 0 0];

internalField   nonuniform List<scalar> 
10000
(
24.381467
25.62304
25.680202
25.753855
25.83881
26.009359
26.252818
26.839262
27.497122
33.133688
25.623042
26.634976
26.552799
26.56741
26.613666
26.753406
26.955294
27.506301
28.130475
33.920501
25.680206
26.552802
26.405808
26.382062
26.402436
26.526252
26.714441
27.27265
27.906621
33.800676
25.753862
26.567416
26.382065
26.329596
26.330984
26.444454
26.628426
27.197452
27.852085
33.804173
25.838819
26.613673
26.40244
26.330986
26.321405
26.43084
26.6169
27.198829
27.873587
33.864811
26.009368
26.753413
26.526256
26.444455
26.430839
26.540439
26.730847
27.323408
28.014256
34.036365
26.252825
26.955299
26.714443
26.628425
26.616898
26.730845
26.928642
27.532066
28.242721
34.306184
26.839265
27.506304
27.272649
27.197449
27.198825
27.323403
27.532063
28.143226
28.864904
34.96544
27.497123
28.130474
27.906618
27.85208
27.873579
28.014249
28.242716
28.864901
29.632407
35.802934
33.133687
33.920499
33.800671
33.804166
33.864802
34.036356
34.306177
34.965435
35.802933
41.901049
24.971157
25.732233
25.801283
25.879923
25.968548
26.143804
26.394685
26.994704
27.634739
31.951502
25.732235
26.461025
26.436941
26.470788
26.528626
26.679536
26.896945
27.470134
28.081117
32.446538
25.801288
26.436944
26.362219
26.364306
26.40008
26.53766
26.743003
27.323041
27.935235
32.36921
25.87993
26.470794
26.364309
26.341239
26.360005
26.48819
26.68916
27.27797
27.904447
32.381386
25.968558
26.528633
26.400084
26.360007
26.36879
26.493246
26.69586
27.295926
27.938554
32.446404
26.143813
26.679543
26.537664
26.488191
26.493246
26.617868
26.824526
27.434277
28.090405
32.622677
26.394692
26.89695
26.743005
26.689159
26.695858
26.824524
27.038481
27.65893
28.333391
32.899227
26.994708
27.470137
27.32304
27.277967
27.295921
27.434272
27.658927
28.287645
28.973266
33.568383
27.63474
28.081117
27.935232
27.90444
27.938547
28.090398
28.333385
28.973264
29.70766
34.357324
31.951501
32.446536
32.369205
32.381378
32.446395
32.622668
32.89922
33.568378
34.357322
38.946233
25.420166
25.829876
25.898988
25.983124
26.075785
26.255892
26.510642
27.116196
27.695271
30.910794
25.829878
26.310834
26.328614
26.382609
26.452189
26.614177
26.842508
27.42862
27.974331
31.154411
25.898994
26.328618
26.311649
26.341317
26.393124
26.544704
26.762635
27.355166
27.893732
31.114672
25.983133
26.382615
26.34132
26.349939
26.387042
26.530356
26.743725
27.342802
27.888935
31.13835
26.075795
26.452196
26.393129
26.387044
26.41535
26.555332
26.769848
27.378388
27.936375
31.208795
26.255902
26.614184
26.544708
26.530358
26.555331
26.695481
26.913649
27.530744
28.099332
31.3899
26.51065
26.842514
26.762637
26.743724
26.769846
26.913647
27.138924
27.766395
28.351709
31.668864
27.1162
27.428623
27.355166
27.342799
27.378383
27.530739
27.766392
28.402471
28.998691
32.337435
27.695272
27.97433
27.893728
27.888929
27.936366
28.099324
28.351703
28.998688
29.644624
33.027792
30.910793
31.154408
31.114666
31.138342
31.208785
31.38989
31.668856
32.33743
33.02779
36.413987
25.643872
25.885158
25.94893
26.034028
26.129553
26.311596
26.564251
27.149938
27.661615
30.111672
25.88516
26.215323
26.254729
26.321069
26.399661
26.5683
26.79934
27.369459
27.839964
30.20769
25.948935
26.254733
26.271871
26.320243
26.384798
26.545444
26.76732
27.342852
27.800553
30.192918
26.034036
26.321076
26.320246
26.351387
26.403428
26.556895
26.774111
27.354236
27.814298
30.224456
26.129563
26.399669
26.384803
26.40343
26.447828
26.598364
26.816304
27.404267
27.872657
30.299776
26.311606
26.568308
26.545449
26.556897
26.598363
26.749068
26.970257
27.565679
28.04226
30.482805
26.564259
26.799345
26.767322
26.774111
26.816301
26.970255
27.198244
27.80354
28.295394
30.757623
27.149943
27.369461
27.342851
27.354232
27.404262
27.565674
27.803537
28.417466
28.920051
31.39922
27.661616
27.839963
27.800549
27.814291
27.872649
28.042252
28.295388
28.920048
29.471148
31.991733
30.111671
30.207687
30.192912
30.224447
30.299765
30.482794
30.757614
31.399215
31.991731
34.590695
25.753905
25.915035
25.973198
26.056437
26.153483
26.334243
26.579866
27.127177
27.575248
29.462603
25.915038
26.154141
26.203992
26.276658
26.36161
26.532516
26.759928
27.293364
27.694175
29.47728
25.973204
26.203996
26.240589
26.30043
26.374483
26.539313
26.758509
27.296098
27.680544
29.477655
26.056446
26.276665
26.300433
26.346452
26.410008
26.568665
26.783197
27.323734
27.706591
29.513628
26.153494
26.361619
26.374488
26.41001
26.467011
26.62312
26.838021
27.384965
27.773313
29.592616
26.334254
26.532524
26.539318
26.568667
26.623119
26.779395
26.997156
27.550554
27.945139
29.774323
26.579874
26.759934
26.758512
26.783197
26.838019
26.997154
27.221318
27.784004
28.192513
30.039873
27.127182
27.293367
27.296098
27.32373
27.384959
27.550548
27.784
28.355228
28.774483
30.63663
27.57525
27.694175
27.68054
27.706584
27.773304
27.945131
28.192506
28.77448
29.240115
31.144385
29.462602
29.477277
29.477649
29.513619
29.592605
29.774312
30.039864
30.636624
31.144383
33.181113
25.81849
25.933671
25.986883
26.067273
26.164608
26.34126
26.576197
27.075511
27.463245
28.912973
25.933674
26.111835
26.166077
26.241564
26.330585
26.500107
26.719454
27.205836
27.543214
28.881261
25.986889
26.16608
26.213404
26.280136
26.360871
26.525851
26.737786
27.227033
27.546014
28.890035
26.067283
26.241572
26.280139
26.33602
26.408083
26.567807
26.775145
27.265912
27.580365
28.928346
26.164619
26.330594
26.360876
26.408085
26.474601
26.632133
26.839542
27.335419
27.653107
29.009584
26.341271
26.500116
26.525856
26.567809
26.632133
26.789826
26.999729
27.501127
27.823496
29.187124
26.576205
26.71946
26.737789
26.775145
26.83954
26.999726
27.215596
27.725659
28.060753
29.439869
27.075516
27.205839
27.227032
27.265908
27.335413
27.501121
27.725656
28.244092
28.589993
29.983255
27.463246
27.543213
27.546009
27.580358
27.653098
27.823487
28.060746
28.58999
28.979927
30.416988
28.912973
28.881258
28.890029
28.928336
29.009573
29.187113
29.43986
29.98325
30.416986
32.015857
25.860567
25.946242
25.995192
26.072409
26.168869
26.33901
26.56045
27.007543
27.338575
28.44471
25.946244
26.080848
26.135743
26.211768
26.302773
26.467858
26.675881
27.110774
27.391195
28.387063
25.995198
26.135747
26.187956
26.258319
26.343157
26.504912
26.706251
27.142833
27.403981
28.399643
26.072418
26.211775
26.258322
26.320337
26.398109
26.555425
26.752293
27.189193
27.443711
28.438858
26.16888
26.302782
26.343163
26.398111
26.471245
26.62669
26.823383
27.264242
27.520221
28.52085
26.339021
26.467867
26.504917
26.555427
26.62669
26.782285
26.981134
27.426676
27.686105
28.691803
26.560459
26.675888
26.706254
26.752292
26.82338
26.981131
27.185494
27.639076
27.91012
28.929266
27.007549
27.110777
27.142832
27.189189
27.264236
27.42667
27.639072
28.100864
28.382835
29.416119
27.338577
27.391194
27.403977
27.443703
27.520211
27.686096
27.910113
28.382831
28.706316
29.784819
28.444709
28.38706
28.399637
28.438848
28.520838
28.691791
28.929257
29.416114
29.784817
31.03598
25.887857
25.954016
25.999374
26.073239
26.167724
26.329381
26.53526
26.929164
27.208154
28.046019
25.954018
26.056591
26.109784
26.184651
26.275741
26.433886
26.62823
27.010712
27.24111
27.975574
25.99938
26.109788
26.162852
26.234283
26.320865
26.476605
26.664952
27.048126
27.259278
27.988915
26.073249
26.184658
26.234287
26.299399
26.380284
26.532292
26.716349
27.098875
27.302014
28.027888
26.167736
26.275751
26.320871
26.380286
26.457329
26.607747
26.791434
27.176925
27.380173
28.109155
26.329393
26.433895
26.476611
26.532294
26.607747
26.758307
26.943845
27.333288
27.53904
28.271543
26.535269
26.628237
26.664955
26.716349
26.791432
26.943842
27.134435
27.531313
27.747656
28.492031
26.92917
27.010715
27.048125
27.098871
27.176919
27.333282
27.53131
27.936242
28.163612
28.922351
27.208156
27.24111
27.259274
27.302007
27.380163
27.53903
27.747649
28.163608
28.429841
29.234436
28.046019
27.975571
27.988909
28.027879
28.109143
28.271532
28.492022
28.922345
29.234433
30.210205
25.904247
25.957121
25.999447
26.069814
26.161318
26.312969
26.501924
26.843952
27.076172
27.705543
25.957124
26.03557
26.085653
26.158079
26.247591
26.396853
26.575953
26.907496
27.094786
27.630656
25.999453
26.085657
26.136899
26.207385
26.293635
26.441181
26.614938
26.946383
27.115133
27.642849
26.069824
26.158086
26.207389
26.273136
26.354822
26.499236
26.668932
26.998992
27.158955
27.680647
26.161329
26.2476
26.293641
26.354824
26.433347
26.576411
26.745591
27.077781
27.236859
27.759821
26.312981
26.396862
26.441187
26.499238
26.576411
26.719605
26.890368
27.225887
27.386763
27.912121
26.501933
26.57596
26.614942
26.668931
26.745588
26.890366
27.065744
27.408124
27.578653
28.114634
26.843957
26.907499
26.946383
26.998988
27.077775
27.225881
27.40812
27.758386
27.939968
28.490536
27.076174
27.094785
27.115129
27.158947
27.23685
27.386754
27.578646
27.939964
28.15767
28.753779
27.705542
27.630653
27.642843
27.680638
27.759809
27.912109
28.114624
28.49053
28.753777
29.511908
25.911815
25.955235
25.994916
26.061639
26.149286
26.289852
26.461167
26.754215
26.945093
27.413058
25.955238
26.015062
26.061256
26.130292
26.216824
26.355803
26.518796
26.80247
26.953117
27.338814
25.994922
26.061259
26.109002
26.177006
26.261172
26.398932
26.55721
26.840208
26.973497
27.348779
26.061648
26.130299
26.177009
26.241457
26.321971
26.457098
26.611581
26.892673
27.016891
27.384667
26.149297
26.216834
26.261177
26.321973
26.399887
26.533864
26.687731
26.97027
27.092912
27.46056
26.289863
26.355812
26.398938
26.4571
26.533864
26.667957
26.823181
27.108524
27.232454
27.601696
26.461176
26.518803
26.557213
26.611581
26.687729
26.823179
26.982602
27.274266
27.406988
27.78583
26.75422
26.802473
26.840207
26.892669
26.970264
27.108519
27.274262
27.573617
27.717311
28.110822
26.945095
26.953116
26.973492
27.016883
27.092903
27.232445
27.406981
27.717307
27.894337
28.332154
27.413058
27.338811
27.348773
27.384657
27.460549
27.601684
27.78582
28.110816
28.332151
28.918544
25.911428
25.9478
25.985061
26.047987
26.131036
26.259856
26.413374
26.661343
26.816198
27.159882
25.947802
25.992987
26.034917
26.099877
26.182298
26.310088
26.456694
26.696537
26.816374
27.08923
25.985067
26.034921
26.078192
26.14258
26.223248
26.350164
26.492658
26.731443
26.835411
27.096469
26.047997
26.099885
26.142584
26.204262
26.281989
26.406682
26.545676
26.782224
26.877214
27.129893
26.131048
26.182307
26.223253
26.281991
26.357573
26.481279
26.6196
26.857049
26.95002
27.201535
26.259868
26.310097
26.35017
26.406684
26.481279
26.605087
26.744576
26.984398
27.078301
27.330848
26.413383
26.456701
26.492662
26.545676
26.619598
26.744573
26.887872
27.133508
27.23541
27.496687
26.661349
26.69654
26.731443
26.78222
26.857043
26.984392
27.133505
27.386603
27.499271
27.775092
26.816199
26.816373
26.835406
26.877207
26.950011
27.078291
27.235402
27.499268
27.642474
27.96058
27.159882
27.089227
27.096462
27.129883
27.201524
27.330836
27.496677
27.775086
27.960577
28.411868
25.903296
25.934195
25.969133
26.028111
26.105969
26.222752
26.358778
26.566118
26.690002
26.938683
25.934198
25.967756
26.005312
26.065721
26.143156
26.259289
26.389697
26.59023
26.684415
26.873212
25.969139
26.005316
26.043644
26.10362
26.179694
26.295181
26.422053
26.621318
26.701288
26.877621
26.028121
26.065728
26.103623
26.161461
26.235135
26.34873
26.472417
26.669275
26.740641
26.908192
26.105981
26.143166
26.1797
26.235137
26.307027
26.419767
26.542757
26.740097
26.809194
26.974842
26.222763
26.259299
26.295187
26.348732
26.419767
26.532595
26.656597
26.855958
26.925749
27.092046
26.358787
26.389704
26.422057
26.472417
26.542755
26.656595
26.784049
26.988748
27.065802
27.240058
26.566123
26.590234
26.621318
26.669271
26.740091
26.855952
26.988745
27.200632
27.288127
27.476582
26.690004
26.684414
26.701284
26.740633
26.809184
26.925739
27.065795
27.288124
27.403384
27.631503
26.938682
26.873209
26.877615
26.908182
26.974831
27.092034
27.240048
27.476576
27.631501
27.976991
25.887362
25.913857
25.946487
26.001369
26.073597
26.178369
26.297579
26.468944
26.56655
26.743244
25.91386
25.938155
25.971389
26.026952
26.098777
26.203151
26.317915
26.483803
26.556827
26.683684
25.946493
25.971393
26.004664
26.059713
26.130402
26.234272
26.346044
26.510591
26.571115
26.685411
26.001379
26.026959
26.059717
26.112985
26.181673
26.283917
26.392829
26.554931
26.607414
26.712884
26.073609
26.098787
26.130407
26.181676
26.248859
26.350352
26.458572
26.620845
26.67096
26.774028
26.178381
26.20316
26.234277
26.28392
26.350352
26.451922
26.561027
26.725037
26.775694
26.879155
26.297588
26.317922
26.346047
26.392829
26.45857
26.561025
26.673253
26.842154
26.899391
27.010104
26.468949
26.483806
26.510591
26.554927
26.620839
26.725031
26.84215
27.017921
27.08516
27.209524
26.566551
26.556826
26.57111
26.607407
26.67095
26.775685
26.899383
27.085156
27.177455
27.338453
26.743243
26.683681
26.685405
26.712874
26.774016
26.879143
27.010094
27.209518
27.338451
27.601524
25.863493
25.886329
25.916614
25.967286
26.033597
26.126646
26.229995
26.370003
26.445596
26.568302
25.886332
25.903271
25.932351
25.982914
26.048727
26.14154
26.241492
26.3773
26.433028
26.514844
25.916621
25.932355
25.960688
26.01053
26.075314
26.167706
26.265168
26.399672
26.44459
26.514181
25.967296
25.982922
26.010533
26.058797
26.121868
26.212847
26.307773
26.439896
26.477455
26.538439
26.033609
26.048737
26.07532
26.12187
26.183649
26.27396
26.368223
26.500297
26.5355
26.593777
26.126658
26.141549
26.167712
26.212849
26.27396
26.364336
26.459382
26.592964
26.628619
26.687123
26.230004
26.241499
26.265172
26.307773
26.36822
26.45938
26.557246
26.695296
26.736894
26.801991
26.370009
26.377303
26.399672
26.439891
26.500291
26.592958
26.695292
26.839851
26.890918
26.968945
26.445598
26.433028
26.444586
26.477448
26.53549
26.62861
26.736887
26.890914
26.964435
27.075835
26.568301
26.514841
26.514175
26.538429
26.593765
26.687111
26.801981
26.968939
27.075832
27.275063
25.831571
25.851284
25.879174
25.925562
25.985811
26.067633
26.156275
26.26934
26.32673
26.40943
25.851287
25.862429
25.887595
25.933131
25.992731
26.074418
26.160581
26.270621
26.312348
26.361933
25.879181
25.887599
25.911272
25.95582
26.014423
26.095733
26.179865
26.288716
26.321236
26.359248
25.925572
25.933138
25.955824
25.998888
26.05598
26.136048
26.217959
26.324567
26.350472
26.380283
25.985824
25.99274
26.014429
26.055982
26.111941
26.191407
26.272699
26.379114
26.402753
26.429708
26.067645
26.074427
26.095739
26.13605
26.191407
26.270929
26.352921
26.460658
26.4847
26.511775
26.156285
26.160588
26.179868
26.217959
26.272696
26.352919
26.437454
26.54926
26.578651
26.611693
26.269346
26.270624
26.288716
26.324563
26.379108
26.460652
26.549256
26.667171
26.705423
26.750545
26.326732
26.312347
26.321232
26.350464
26.402743
26.48469
26.578643
26.705419
26.763649
26.8388
26.409429
26.36193
26.359241
26.380272
26.429695
26.511762
26.611683
26.750539
26.838798
26.98886
25.791529
25.808525
25.833977
25.87606
25.930235
26.001483
26.076698
26.166915
26.209452
26.262924
25.808527
25.815159
25.836694
25.877279
25.93064
26.001815
26.075336
26.163572
26.194082
26.221057
25.833984
25.836698
25.856093
25.895415
25.947766
26.018584
26.090484
26.177695
26.200476
26.216742
25.87607
25.877287
25.895419
25.933285
25.984266
26.05398
26.12396
26.209116
26.226039
26.234638
25.930248
25.93065
25.947772
25.984268
26.034234
26.1034
26.172815
26.257693
26.272495
26.278207
26.001495
26.001825
26.01859
26.053982
26.1034
26.172614
26.242661
26.32871
26.343889
26.349655
26.076708
26.075344
26.090488
26.12396
26.172813
26.242659
26.314996
26.404735
26.424709
26.435848
26.166921
26.163576
26.177695
26.209112
26.257687
26.328704
26.404731
26.500151
26.528326
26.550604
26.209454
26.194081
26.200472
26.226031
26.272485
26.343879
26.424701
26.528322
26.574153
26.623153
26.262924
26.221054
26.216735
26.234627
26.278194
26.349642
26.435837
26.550597
26.62315
26.735568
25.743374
25.757972
25.78097
25.818784
25.866992
25.928428
25.99156
26.062646
26.093237
26.125707
25.757975
25.761158
25.779372
25.815172
25.862412
25.923814
25.985907
26.055903
26.077526
26.089048
25.780977
25.779376
25.794932
25.829218
25.875417
25.936469
25.997301
26.066462
26.081687
26.083484
25.818795
25.815179
25.829222
25.862044
25.906973
25.967036
26.026227
26.09355
26.103656
26.098398
25.867004
25.862422
25.875424
25.906975
25.950978
26.010537
26.069225
26.13623
26.144391
26.136305
25.92844
25.923824
25.936475
25.967038
26.010537
26.070137
26.129399
26.197449
26.205975
26.197904
25.99157
25.985914
25.997304
26.026227
26.069222
26.129397
26.190716
26.262097
26.274904
26.271638
26.062652
26.055906
26.066462
26.093546
26.136223
26.197443
26.262093
26.338707
26.359024
26.365907
26.093238
26.077525
26.081682
26.103647
26.144381
26.205965
26.274896
26.35902
26.394841
26.425264
26.125706
26.089045
26.083477
26.098387
26.136292
26.197891
26.271628
26.365901
26.425261
26.509027
25.687185
25.699654
25.720214
25.753855
25.796303
25.84876
25.901165
25.956425
25.977558
25.995246
25.699656
25.700267
25.715483
25.746731
25.78809
25.840536
25.892432
25.947334
25.962008
25.96333
25.72022
25.715487
25.727667
25.757199
25.797483
25.849582
25.900527
25.954792
25.96424
25.956873
25.753866
25.746739
25.757203
25.785253
25.82434
25.875547
25.925106
25.977763
25.982789
25.969018
25.796316
25.7881
25.79749
25.824342
25.862573
25.913315
25.962434
26.014765
26.01804
26.001566
25.848772
25.840546
25.849588
25.875549
25.913315
25.964091
26.013736
26.067004
26.070637
26.054154
25.901175
25.89244
25.90053
25.925106
25.962432
26.013733
26.065219
26.12148
26.128916
26.116702
25.956431
25.947338
25.954792
25.977758
26.014758
26.066997
26.121476
26.182512
26.196756
26.193684
25.97756
25.962008
25.964236
25.982781
26.018029
26.070627
26.128908
26.196752
26.224526
26.242002
25.995245
25.963327
25.956866
25.969008
26.001553
26.054141
26.116692
26.193678
26.241999
26.304083
25.623114
25.633687
25.651863
25.681485
25.718464
25.76281
25.805814
25.84814
25.861916
25.869472
25.63369
25.632444
25.644989
25.671973
25.707781
25.75213
25.79504
25.837584
25.846908
25.841825
25.65187
25.644993
25.654262
25.679386
25.714096
25.758101
25.800321
25.842418
25.84753
25.834796
25.681496
25.671981
25.67939
25.70302
25.736592
25.779791
25.820855
25.861571
25.862903
25.844426
25.718477
25.707791
25.714103
25.736595
25.769368
25.812136
25.852822
25.893228
25.893005
25.871996
25.762822
25.75214
25.758107
25.779793
25.812136
25.854933
25.8961
25.937349
25.937479
25.916445
25.805824
25.795048
25.800325
25.820854
25.852819
25.896097
25.938908
25.982831
25.986321
25.969053
25.848146
25.837588
25.842418
25.861567
25.893221
25.937343
25.982827
26.031067
26.040669
26.031549
25.861918
25.846908
25.847525
25.862895
25.892995
25.937468
25.986313
26.040665
26.062002
26.070666
25.869472
25.841821
25.834789
25.844415
25.871983
25.916432
25.969042
26.031542
26.070663
26.116435
25.551375
25.560264
25.576147
25.601952
25.633819
25.670925
25.705794
25.737677
25.745845
25.746704
25.560267
25.557745
25.567939
25.590986
25.621641
25.65876
25.693847
25.726379
25.731661
25.722867
25.576154
25.567943
25.574751
25.595857
25.625406
25.662188
25.696801
25.729059
25.730988
25.715544
25.601963
25.590994
25.595861
25.615475
25.643943
25.679995
25.713652
25.744747
25.743476
25.722938
25.633832
25.621651
25.625413
25.643945
25.671664
25.707318
25.740657
25.771469
25.768836
25.745966
25.670938
25.65877
25.662195
25.679997
25.707318
25.742997
25.776775
25.808348
25.806057
25.783154
25.705804
25.693854
25.696804
25.713652
25.740654
25.776773
25.812012
25.84596
25.846623
25.827016
25.737683
25.726382
25.729058
25.744742
25.771462
25.808341
25.845955
25.883769
25.889868
25.877449
25.745848
25.73166
25.730983
25.743467
25.768825
25.806047
25.846615
25.889864
25.906082
25.908933
25.746703
25.722864
25.715537
25.722927
25.745953
25.783141
25.827005
25.877442
25.908931
25.942497
25.472234
25.479635
25.493347
25.51558
25.542738
25.57346
25.601375
25.624932
25.628931
25.625583
25.479638
25.476303
25.484454
25.503917
25.529859
25.560602
25.588957
25.613464
25.615762
25.60513
25.493354
25.484459
25.489227
25.506726
25.531578
25.561994
25.590048
25.614429
25.614093
25.597748
25.515591
25.503925
25.506731
25.522763
25.546588
25.576345
25.603619
25.627037
25.624014
25.603196
25.542751
25.52987
25.531584
25.546591
25.569715
25.599105
25.626113
25.649286
25.645083
25.622149
25.573473
25.560612
25.562
25.576347
25.599105
25.628515
25.655925
25.679782
25.675907
25.652935
25.601385
25.588965
25.590051
25.603619
25.626111
25.655922
25.684626
25.710578
25.709285
25.689175
25.624939
25.613467
25.614429
25.627032
25.649279
25.679775
25.710574
25.739958
25.743455
25.729625
25.628933
25.615761
25.614089
25.624005
25.645072
25.675897
25.709277
25.743451
25.755623
25.754806
25.625583
25.605126
25.597741
25.603185
25.622135
25.652921
25.689164
25.729618
25.754803
25.779287
25.385995
25.392091
25.403783
25.42272
25.445601
25.470757
25.492802
25.509809
25.510801
25.505026
25.392093
25.388308
25.394711
25.410952
25.43265
25.457832
25.480462
25.498607
25.49877
25.487561
25.40379
25.394715
25.397831
25.412141
25.43278
25.457653
25.480117
25.498258
25.496378
25.480314
25.422731
25.41096
25.412145
25.425036
25.444709
25.468988
25.490822
25.508179
25.50406
25.484106
25.445614
25.43266
25.432787
25.444712
25.463731
25.487674
25.509291
25.526441
25.52131
25.499461
25.47077
25.457842
25.457659
25.468991
25.487674
25.511632
25.533615
25.551378
25.546558
25.524666
25.492812
25.48047
25.480121
25.490822
25.509288
25.533612
25.556732
25.576334
25.573755
25.55433
25.509815
25.498611
25.498258
25.508174
25.526435
25.551371
25.576329
25.598949
25.600555
25.586565
25.510803
25.498769
25.496374
25.504051
25.521299
25.546547
25.573747
25.60055
25.609548
25.606566
25.505025
25.487558
25.480307
25.484095
25.499447
25.524653
25.554319
25.586558
25.606563
25.624322
25.292991
25.297951
25.307794
25.323733
25.342782
25.363142
25.380293
25.392219
25.391131
25.384168
25.297954
25.293996
25.298922
25.312307
25.330234
25.350624
25.368443
25.381604
25.380301
25.369334
25.307801
25.298926
25.300734
25.312266
25.329186
25.349286
25.367042
25.380294
25.377427
25.362374
25.323744
25.312316
25.312271
25.322452
25.33847
25.35804
25.375292
25.387914
25.383195
25.36479
25.342795
25.330245
25.329192
25.338473
25.353886
25.373149
25.390226
25.402681
25.397102
25.377019
25.363155
25.350634
25.349293
25.358042
25.373149
25.392425
25.409832
25.422833
25.417544
25.397416
25.380303
25.368451
25.367046
25.375292
25.390223
25.409829
25.428232
25.442833
25.439478
25.421459
25.392226
25.381608
25.380293
25.38791
25.402674
25.422826
25.442829
25.460061
25.460329
25.446971
25.391134
25.380301
25.377423
25.383187
25.397091
25.417533
25.439469
25.460325
25.466853
25.46274
25.384168
25.36933
25.362366
25.364779
25.377006
25.397403
25.421448
25.446964
25.462737
25.475542
25.193567
25.197549
25.205724
25.218975
25.234639
25.250913
25.264036
25.272085
25.269642
25.262327
25.197552
25.193628
25.197326
25.208214
25.222836
25.239143
25.252968
25.262274
25.260028
25.249798
25.205732
25.19733
25.198134
25.207281
25.220962
25.237004
25.25084
25.260304
25.256877
25.243241
25.218986
25.208222
25.207285
25.215169
25.228019
25.243588
25.257025
25.265993
25.261044
25.244546
25.234653
25.222847
25.220968
25.228021
25.240315
25.255608
25.268907
25.277743
25.272068
25.254103
25.250926
25.239153
25.23701
25.243591
25.255608
25.270912
25.284505
25.293825
25.288416
25.270404
25.264047
25.252976
25.250844
25.257025
25.268904
25.284503
25.298962
25.309665
25.305912
25.289688
25.272091
25.262278
25.260303
25.265989
25.277736
25.293818
25.309661
25.322637
25.321994
25.30973
25.269644
25.260027
25.256872
25.261035
25.272057
25.288405
25.305904
25.32199
25.326617
25.322061
25.262326
25.249795
25.243234
25.244535
25.254089
25.270391
25.289677
25.309723
25.322058
25.33123
25.08807
25.091222
25.097917
25.108791
25.121504
25.134337
25.14419
25.149332
25.146088
25.138964
25.091225
25.08748
25.090175
25.098907
25.110673
25.123542
25.134092
25.140458
25.137667
25.128449
25.097925
25.090179
25.090238
25.097368
25.108269
25.120899
25.131511
25.13808
25.13441
25.122377
25.108802
25.098915
25.097372
25.103339
25.113484
25.125698
25.135997
25.14218
25.137267
25.122811
25.121518
25.110683
25.108276
25.113487
25.123126
25.135092
25.145284
25.151366
25.145846
25.130121
25.13435
25.123553
25.120906
25.1257
25.135092
25.147067
25.15752
25.164028
25.158747
25.142974
25.144201
25.1341
25.131515
25.135997
25.145281
25.157518
25.168718
25.176412
25.17254
25.15827
25.149339
25.140462
25.13808
25.142176
25.151359
25.164021
25.176408
25.186048
25.184822
25.173887
25.146091
25.137667
25.134405
25.137258
25.145835
25.158735
25.172531
25.184818
25.187998
25.183442
25.138963
25.128445
25.12237
25.1228
25.130107
25.142961
25.158259
25.173879
25.183439
25.18996
24.976842
24.979297
24.984699
24.993501
25.003677
25.013648
25.020882
25.023892
25.020261
25.013656
24.9793
24.975832
24.977721
24.984618
24.993949
25.003958
25.011859
25.016018
25.012982
25.004892
24.984707
24.977726
24.977258
24.982707
24.991257
25.001055
25.009049
25.013437
25.009753
24.999358
24.993512
24.984626
24.982711
24.987109
24.994979
25.004412
25.012164
25.016256
25.011563
24.999136
25.00369
24.99396
24.991264
24.994981
25.002398
25.011612
25.01928
25.023299
25.018103
25.004587
25.013661
25.003969
25.001061
25.004415
25.011612
25.020833
25.028731
25.033121
25.028136
25.014574
25.020893
25.011867
25.009053
25.012163
25.019277
25.028729
25.037267
25.042666
25.03887
25.026561
25.023898
25.016022
25.013436
25.016252
25.023292
25.033113
25.042662
25.049711
25.048147
25.038619
25.020264
25.012981
25.009748
25.011554
25.018091
25.028124
25.038862
25.048143
25.050238
25.04595
25.013655
25.004888
24.999351
24.999124
25.004574
25.01456
25.02655
25.038612
25.045947
25.050541
24.860208
24.862085
24.866375
24.873396
24.88142
24.889041
24.894211
24.895697
24.891979
24.88607
24.862087
24.858956
24.860211
24.865568
24.872852
24.880512
24.886298
24.888835
24.885766
24.87882
24.866383
24.860216
24.8594
24.863471
24.870062
24.877537
24.883435
24.886207
24.88267
24.873852
24.873407
24.865577
24.863476
24.86661
24.872598
24.879758
24.885469
24.888019
24.883668
24.873159
24.881433
24.872863
24.870069
24.8726
24.878185
24.885153
24.890801
24.893299
24.888533
24.877103
24.889055
24.880523
24.877544
24.87976
24.885153
24.892126
24.897974
24.900792
24.89621
24.884735
24.894222
24.886306
24.883439
24.885468
24.890798
24.897972
24.904364
24.908034
24.904447
24.894006
24.895703
24.888839
24.886207
24.888014
24.893291
24.900785
24.908029
24.913086
24.911365
24.903222
24.891982
24.885766
24.882665
24.883659
24.888522
24.896199
24.904439
24.911361
24.912655
24.908782
24.886069
24.878817
24.873844
24.873148
24.877089
24.884721
24.893994
24.903215
24.908779
24.911981
24.738468
24.739873
24.743223
24.748735
24.75496
24.760677
24.764247
24.76468
24.761082
24.755942
24.739876
24.737108
24.737877
24.741961
24.747549
24.753304
24.757428
24.758798
24.755848
24.749994
24.74323
24.737882
24.736859
24.739821
24.744803
24.750399
24.754642
24.756243
24.752958
24.745598
24.748747
24.741969
24.739826
24.741965
24.746419
24.751746
24.755847
24.757283
24.753346
24.744592
24.754974
24.74756
24.74481
24.746422
24.750523
24.755684
24.759737
24.761138
24.756862
24.747335
24.760691
24.753314
24.750406
24.751748
24.755683
24.760848
24.765074
24.766748
24.762629
24.753059
24.764258
24.757437
24.754646
24.755846
24.759734
24.765071
24.769756
24.772142
24.76885
24.760125
24.764687
24.758802
24.756243
24.757279
24.761131
24.766741
24.772138
24.77568
24.773931
24.767089
24.761084
24.755847
24.752953
24.753337
24.75685
24.762618
24.768841
24.773927
24.774644
24.771251
24.755942
24.749991
24.74559
24.74458
24.747321
24.753045
24.760114
24.767082
24.771248
24.773449
24.611895
24.612921
24.615488
24.619742
24.624485
24.62868
24.631033
24.630772
24.627429
24.623061
24.612924
24.610525
24.610931
24.613978
24.618181
24.622414
24.625255
24.625811
24.623076
24.618226
24.615495
24.610936
24.609817
24.611901
24.615583
24.619681
24.622639
24.623413
24.620442
24.614389
24.619753
24.613986
24.611905
24.613279
24.616505
24.620375
24.623226
24.62388
24.62039
24.613199
24.624498
24.618192
24.61559
24.616508
24.619429
24.623157
24.625973
24.626604
24.622839
24.615007
24.628694
24.622425
24.619688
24.620378
24.623157
24.626887
24.62985
24.630712
24.62708
24.619208
24.631044
24.625263
24.622643
24.623226
24.62597
24.629848
24.633193
24.634646
24.631693
24.624506
24.630779
24.625815
24.623412
24.623875
24.626597
24.630705
24.634641
24.637047
24.635359
24.629697
24.627431
24.623076
24.620438
24.620381
24.622827
24.627069
24.631684
24.635355
24.635667
24.632766
24.623061
24.618222
24.614382
24.613188
24.614993
24.619194
24.624494
24.629689
24.632763
24.634248
24.480729
24.481456
24.483381
24.486602
24.490142
24.493142
24.494589
24.493902
24.490891
24.487255
24.481459
24.479416
24.479561
24.481777
24.484869
24.487903
24.489772
24.489783
24.487319
24.483363
24.483388
24.479565
24.478433
24.479835
24.482485
24.485407
24.487386
24.487595
24.484969
24.480062
24.486613
24.481786
24.479839
24.480638
24.4829
24.485632
24.48753
24.487653
24.484617
24.47879
24.490156
24.48488
24.482492
24.482903
24.484904