/*--------------------------------*- C++ -*----------------------------------*\
| =========                 |                                                 |
| \\      /  F ield         | OpenFOAM: The Open Source CFD Toolbox           |
|  \\    /   O peration     | Version:  dev                                   |
|   \\  /    A nd           | Web:      www.OpenFOAM.org                      |
|    \\/     M anipulation  |                                                 |
\*---------------------------------------------------------------------------*/
FoamFile
{
    version     2.0;
    format      ascii;
    class       surfaceScalarField;
    location    "4";
    object      phi;
}
// * * * * * * * * * * * * * * * * * * * * * * * * * * * * * * * * * * * * * //

dimensions      [0 3 -1 0 0 0 0];

internalField   nonuniform List<scalar> 
27900
(
1.8615678e-06
1.8615677e-06
6.2768643e-06
2.0702594e-06
2.0578105e-06
7.7334979e-06
2.1043843e-06
2.0902024e-06
7.8756727e-06
2.1014645e-06
2.101076e-06
7.9018439e-06
2.0823331e-06
2.1074216e-06
7.9117099e-06
2.0498944e-06
2.1115714e-06
7.9208674e-06
1.9871676e-06
2.1157347e-06
7.9469921e-06
1.8703558e-06
2.1142226e-06
8.0025893e-06
1.4947728e-06
2.1043398e-06
8.2712431e-06
1.9317552e-06
9.5630175e-06
2.0578106e-06
2.0702593e-06
7.7334978e-06
2.300508e-06
2.3005079e-06
9.5146051e-06
2.3414695e-06
2.3410787e-06
9.7081623e-06
2.3329629e-06
2.3563189e-06
9.7532638e-06
2.3018489e-06
2.3644491e-06
9.7740867e-06
2.2512921e-06
2.3688888e-06
9.7932395e-06
2.1616715e-06
2.3708153e-06
9.83454e-06
1.9989108e-06
2.3643888e-06
9.9125945e-06
1.5560094e-06
2.3348188e-06
1.0212422e-05
2.1041059e-06
1.1383659e-05
2.0902025e-06
2.1043842e-06
7.8756724e-06
2.3410788e-06
2.3414693e-06
9.7081622e-06
2.3825856e-06
2.3825855e-06
9.9169864e-06
2.370649e-06
2.3978056e-06
9.97045e-06
2.3335347e-06
2.4052934e-06
9.9962701e-06
2.2751604e-06
2.4085929e-06
1.001867e-05
2.1753956e-06
2.4080949e-06
1.0062485e-05
2.0018747e-06
2.3985371e-06
1.0139373e-05
1.5477927e-06
2.362028e-06
1.0426873e-05
2.1216038e-06
1.1530295e-05
2.1010761e-06
2.1014644e-06
7.9018435e-06
2.3563191e-06
2.3329628e-06
9.7532635e-06
2.3978058e-06
2.3706489e-06
9.9704499e-06
2.3834953e-06
2.3834952e-06
1.0028621e-05
2.3427033e-06
2.3890298e-06
1.0057056e-05
2.2799783e-06
2.3906968e-06
1.0080621e-05
2.1752658e-06
2.3885838e-06
1.0124224e-05
1.9976049e-06
2.3783739e-06
1.0197824e-05
1.5414986e-06
2.3422704e-06
1.0475864e-05
2.1090301e-06
1.1554072e-05
2.1074217e-06
2.0823331e-06
7.9117095e-06
2.3644492e-06
2.3018489e-06
9.7740863e-06
2.4052936e-06
2.3335347e-06
9.9962699e-06
2.3890299e-06
2.3427033e-06
1.0057056e-05
2.3456763e-06
2.3456763e-06
1.0086707e-05
2.280145e-06
2.3456762e-06
1.0110552e-05
2.1725242e-06
2.3427159e-06
1.0153489e-05
1.9928284e-06
2.3335799e-06
1.022449e-05
1.5364121e-06
2.3018521e-06
1.0496834e-05
2.0830652e-06
1.1562377e-05
2.1115715e-06
2.0498945e-06
7.920867e-06
2.368889e-06
2.2512922e-06
9.7932392e-06
2.4085931e-06
2.2751605e-06
1.001867e-05
2.3906969e-06
2.2799783e-06
1.0080621e-05
2.3456762e-06
2.2801451e-06
1.0110552e-05
2.2784784e-06
2.2784785e-06
1.0134396e-05
2.169226e-06
2.2749151e-06
1.0177053e-05
1.9883949e-06
2.2675208e-06
1.024689e-05
1.5322674e-06
2.2419812e-06
1.0515998e-05
2.043777e-06
1.1571556e-05
2.1157348e-06
1.9871678e-06
7.9469918e-06
2.3708154e-06
2.1616717e-06
9.8345398e-06
2.408095e-06
2.1753957e-06
1.0062485e-05
2.3885838e-06
2.1752659e-06
1.0124224e-05
2.3427159e-06
2.1725243e-06
1.0153489e-05
2.274915e-06
2.1692262e-06
1.0177053e-05
2.1650004e-06
2.1650006e-06
1.0219829e-05
1.9831401e-06
2.1595104e-06
1.0289871e-05
1.5268579e-06
2.1410711e-06
1.0557192e-05
1.9713265e-06
1.1599308e-05
2.1142226e-06
1.8703559e-06
8.0025891e-06
2.3643889e-06
1.9989109e-06
9.9125944e-06
2.3985373e-06
2.0018748e-06
1.0139373e-05
2.3783739e-06
1.9976051e-06
1.0197824e-05
2.3335799e-06
1.9928285e-06
1.022449e-05
2.2675207e-06
1.988395e-06
1.0246891e-05
2.1595103e-06
1.9831402e-06
1.0289871e-05
1.9786217e-06
1.9786218e-06
1.0361777e-05
1.5237814e-06
1.9645324e-06
1.0631379e-05
1.8377632e-06
1.1657345e-05
2.1043399e-06
1.4947729e-06
8.2712431e-06
2.3348189e-06
1.5560095e-06
1.0212422e-05
2.3620282e-06
1.5477928e-06
1.0426873e-05
2.3422705e-06
1.5414986e-06
1.0475864e-05
2.3018521e-06
1.5364122e-06
1.0496835e-05
2.2419811e-06
1.5322675e-06
1.0515999e-05
2.141071e-06
1.526858e-06
1.0557192e-05
1.9645323e-06
1.5237815e-06
1.0631379e-05
1.509325e-06
1.509325e-06
1.0910415e-05
1.4253869e-06
1.1921701e-05
1.9317553e-06
9.5630175e-06
2.1041061e-06
1.1383659e-05
2.1216039e-06
1.1530295e-05
2.1090301e-06
1.1554072e-05
2.0830652e-06
1.1562377e-05
2.0437769e-06
1.1571556e-05
1.9713263e-06
1.1599309e-05
1.837763e-06
1.1657345e-05
1.4253868e-06
1.1921701e-05
1.2850774e-05
1.1152753e-06
1.1152752e-06
4.0463138e-06
1.445566e-06
1.450113e-06
5.9530942e-06
1.5184093e-06
1.5233193e-06
6.27951e-06
1.5093568e-06
1.548654e-06
6.3622423e-06
1.461218e-06
1.5629797e-06
6.396869e-06
1.3766272e-06
1.5718092e-06
6.433649e-06
1.2300755e-06
1.579672e-06
6.5138718e-06
9.5742583e-07
1.5729434e-06
6.7022956e-06
4.5958474e-07
1.5444375e-06
7.2246468e-06
1.2412939e-06
8.7813083e-06
1.4501132e-06
1.4455657e-06
5.9530941e-06
1.8892796e-06
1.8892794e-06
8.6362724e-06
1.9879682e-06
1.9938176e-06
9.1389754e-06
1.9652151e-06
2.0335578e-06
9.2911131e-06
1.8824597e-06
2.0542668e-06
9.3655549e-06
1.7435996e-06
2.0652418e-06
9.438667e-06
1.5201185e-06
2.0690752e-06
9.5686179e-06
1.12471e-06
2.0507185e-06
9.8302279e-06
4.9265888e-07
1.9715256e-06
1.0417385e-05
1.5206626e-06
1.1596949e-05
1.5233194e-06
1.5184091e-06
6.2795096e-06
1.9938178e-06
1.987968e-06
9.1389752e-06
2.0978982e-06
2.097898e-06
9.7088257e-06
2.0668222e-06
2.1391433e-06
9.8959405e-06
1.967255e-06
2.1589995e-06
9.9911046e-06
1.8055247e-06
2.1674903e-06
1.0078152e-05
1.5540503e-06
2.1654669e-06
1.0217568e-05
1.1292302e-06
2.1386632e-06
1.0476248e-05
4.7538515e-07
2.0400735e-06
1.101217e-05
1.5591556e-06
1.1967187e-05
1.5486542e-06
1.5093567e-06
6.3622417e-06
2.0335581e-06
1.965215e-06
9.2911127e-06
2.1391436e-06
2.0668221e-06
9.8959403e-06
2.1023089e-06
2.1023088e-06
1.010229e-05
1.9928137e-06
2.1173812e-06
1.0208169e-05
1.8189798e-06
2.1218135e-06
1.0300132e-05
1.5545234e-06
2.1157716e-06
1.0438375e-05
1.1192734e-06
2.0873011e-06
1.0684436e-05
4.628026e-07
1.9898953e-06
1.1182513e-05
1.527816e-06
1.2048214e-05
1.5629798e-06
1.4612181e-06
6.3968683e-06
2.054267e-06
1.8824597e-06
9.3655543e-06
2.1589997e-06
1.967255e-06
9.9911042e-06
2.1173813e-06
1.9928137e-06
1.0208169e-05
2.0011185e-06
2.0011185e-06
1.0319233e-05
1.8197488e-06
2.0011418e-06
1.0412593e-05
1.5479285e-06
1.9929197e-06
1.0548161e-05
1.1078414e-06
1.9675169e-06
1.0784361e-05
4.5218726e-07
1.8829386e-06
1.1259445e-05
1.4627524e-06
1.2079628e-05
1.5718094e-06
1.3766273e-06
6.4336484e-06
2.065242e-06
1.7435997e-06
9.4386665e-06
2.1674905e-06
1.8055249e-06
1.0078152e-05
2.1218136e-06
1.8189799e-06
1.0300132e-05
2.0011418e-06
1.819749e-06
1.0412593e-05
1.8153621e-06
1.8153622e-06
1.0505955e-05
1.5394801e-06
1.8057232e-06
1.0640132e-05
1.096908e-06
1.7855476e-06
1.0871432e-05
4.433949e-07
1.7198419e-06
1.1332608e-05
1.3611907e-06
1.2116512e-05
1.5796721e-06
1.2300758e-06
6.5138713e-06
2.0690754e-06
1.5201187e-06
9.5686175e-06
2.1654672e-06
1.5540505e-06
1.0217568e-05
2.1157717e-06
1.5545237e-06
1.0438375e-05
1.9929197e-06
1.5479287e-06
1.0548161e-05
1.805723e-06
1.5394804e-06
1.0640132e-05
1.5283859e-06
1.5283861e-06
1.0774503e-05
1.0839199e-06
1.5137177e-06
1.1006167e-05
4.3191762e-07
1.4688162e-06
1.146022e-05
1.1921877e-06
1.2200229e-05
1.5729436e-06
9.5742607e-07
6.7022953e-06
2.0507188e-06
1.1247102e-06
9.8302278e-06
2.1386634e-06
1.1292304e-06
1.0476248e-05
2.0873012e-06
1.1192736e-06
1.0684436e-05
1.9675169e-06
1.1078417e-06
1.0784361e-05
1.7855475e-06
1.0969082e-06
1.0871432e-05
1.5137175e-06
1.0839201e-06
1.1006167e-05
1.0726681e-06
1.0726683e-06
1.1243876e-05
4.2598394e-07
1.0430866e-06
1.1703793e-05
8.847737e-07
1.2390743e-05
1.5444376e-06
4.5958489e-07
7.2246467e-06
1.9715258e-06
4.9265902e-07
1.0417385e-05
2.0400738e-06
4.7538529e-07
1.101217e-05
1.9898954e-06
4.6280274e-07
1.1182513e-05
1.8829386e-06
4.5218739e-07
1.1259446e-05
1.7198418e-06
4.4339503e-07
1.1332609e-05
1.468816e-06
4.3191776e-07
1.1460221e-05
1.0430864e-06
4.2598408e-07
1.1703793e-05
3.9873655e-07
3.9873669e-07
1.2199114e-05
3.3523952e-07
1.2869972e-05
1.2412941e-06
8.7813083e-06
1.5206628e-06
1.1596949e-05
1.5591558e-06
1.1967187e-05
1.5278162e-06
1.2048215e-05
1.4627524e-06
1.2079628e-05
1.3611905e-06
1.2116513e-05
1.1921875e-06
1.2200229e-05
8.8477347e-07
1.2390743e-05
3.3523938e-07
1.2869972e-05
1.3521253e-05
6.8610813e-07
6.8610796e-07
2.6740979e-06
1.0047286e-06
1.0316783e-06
4.6027955e-06
1.0907628e-06
1.1249301e-06
5.0685458e-06
1.0749333e-06
1.1592353e-06
5.2188364e-06
1.0041375e-06
1.1784655e-06
5.2891993e-06
8.8056126e-07
1.1898632e-06
5.3673619e-06
6.8061638e-07
1.1990856e-06
5.514731e-06
3.4072509e-07
1.1876171e-06
5.8545698e-06
-8.1280675e-08
1.1450715e-06
6.5015811e-06
8.0592488e-07
7.8941028e-06
1.0316785e-06
1.0047284e-06
4.6027953e-06
1.5148687e-06
1.5148684e-06
7.6698922e-06
1.6454266e-06
1.6608951e-06
8.4724524e-06
1.6099665e-06
1.718646e-06
8.7671625e-06
1.4841183e-06
1.7485583e-06
8.9213102e-06
1.2737402e-06
1.7640362e-06
9.0748721e-06
9.5584743e-07
1.7684102e-06
9.317186e-06
4.4558664e-07
1.7400206e-06
9.7880853e-06
-1.1218019e-07
1.6265109e-06
1.0493713e-05
1.0975595e-06
1.1193134e-05
1.1249302e-06
1.0907625e-06
5.0685454e-06
1.6608953e-06
1.6454264e-06
8.4724521e-06
1.8035838e-06
1.8035836e-06
9.4234487e-06
1.7564221e-06
1.8653598e-06
9.7963883e-06
1.6041409e-06
1.8949998e-06
9.9969442e-06
1.3572317e-06
1.9074419e-06
1.0181655e-05
9.9637527e-07
1.9037607e-06
1.0443074e-05
4.435787e-07
1.8628669e-06
1.0906198e-05
-1.3794243e-07
1.7201946e-06
1.1500007e-05
1.1458018e-06
1.1781002e-05
1.1592355e-06
1.0749332e-06
5.2188357e-06
1.7186462e-06
1.6099664e-06
8.767162e-06
1.8653601e-06
1.756422e-06
9.7963881e-06
1.8101245e-06
1.8101244e-06
1.0212761e-05
1.6426486e-06
1.8330117e-06
1.0437633e-05
1.3769622e-06
1.8396674e-06
1.0633593e-05
9.9675529e-07
1.8302692e-06
1.0892074e-05
4.2942298e-07
1.7870486e-06
1.1327587e-05
-1.5396333e-07
1.6465792e-06
1.1839515e-05
1.1006797e-06
1.1939373e-05
1.1784656e-06
1.0041375e-06
5.2891985e-06
1.7485585e-06
1.4841183e-06
8.9213096e-06
1.895e-06
1.6041409e-06
9.9969438e-06
1.8330119e-06
1.6426486e-06
1.0437633e-05
1.6553692e-06
1.6553692e-06
1.0674518e-05
1.3782749e-06
1.6554331e-06
1.0873922e-05
9.8736587e-07
1.6428961e-06
1.1126443e-05
4.1357801e-07
1.6046967e-06
1.1540501e-05
-1.675554e-07
1.4851235e-06
1.2002035e-05
1.0059122e-06
1.200684e-05
1.1898634e-06
8.8056142e-07
5.3673612e-06
1.7640364e-06
1.2737403e-06
9.0748715e-06
1.9074421e-06
1.3572319e-06
1.0181655e-05
1.8396675e-06
1.3769623e-06
1.0633593e-05
1.6554331e-06
1.378275e-06
1.0873922e-05
1.3717427e-06
1.3717428e-06
1.1073336e-05
9.7503379e-07
1.3572949e-06
1.1322442e-05
3.9818631e-07
1.3276711e-06
1.1725305e-05
-1.7894658e-07
1.239069e-06
1.2155796e-05
8.5829195e-07
1.2085186e-05
1.1990858e-06
6.8061662e-07
5.5147304e-06
1.7684105e-06
9.5584766e-07
9.3171856e-06
1.903761e-06
9.963755e-07
1.0443074e-05
1.8302693e-06
9.9675552e-07
1.0892074e-05
1.6428961e-06
9.8736609e-07
1.1126443e-05
1.3572948e-06
9.7503402e-07
1.1322442e-05
9.5877613e-07
9.5877636e-07
1.157154e-05
3.7997692e-07
9.3801711e-07
1.197462e-05
-1.9379221e-07
8.8279963e-07
1.2390259e-05
6.2880756e-07
1.2235921e-05
1.1876172e-06
3.4072534e-07
5.8545695e-06
1.7400208e-06
4.4558687e-07
9.7880851e-06
1.8628671e-06
4.4357893e-07
1.0906198e-05
1.7870487e-06
4.294232e-07
1.1327587e-05
1.6046967e-06
4.1357822e-07
1.1540501e-05
1.327671e-06
3.9818653e-07
1.1725305e-05
9.3801688e-07
3.7997714e-07
1.197462e-05
3.6511926e-07
3.6511948e-07
1.2389671e-05
-2.0055476e-07
3.3520421e-07
1.2817062e-05
2.5043736e-07
1.2568558e-05
1.1450716e-06
-8.1280519e-08
6.501581e-06
1.6265111e-06
-1.1218004e-07
1.0493713e-05
1.7201948e-06
-1.3794229e-07
1.1500008e-05
1.6465793e-06
-1.5396321e-07
1.1839515e-05
1.4851234e-06
-1.6755528e-07
1.2002035e-05
1.2390688e-06
-1.7894646e-07
1.2155796e-05
8.8279941e-07
-1.9379208e-07
1.2390259e-05
3.3520399e-07
-2.0055463e-07
1.2817062e-05
-2.2538975e-07
-2.2538961e-07
1.3320302e-05
-2.0012483e-07
1.3095144e-05
8.0592503e-07
7.8941028e-06
1.0975597e-06
1.1193134e-05
1.1458021e-06
1.1781003e-05
1.1006798e-06
1.1939374e-05
1.0059121e-06
1.2006841e-05
8.5829181e-07
1.2085187e-05
6.2880733e-07
1.2235922e-05
2.5043713e-07
1.2568558e-05
-2.0012498e-07
1.3095145e-05
1.3121003e-05
4.2699673e-07
4.2699655e-07
1.8201047e-06
6.9642007e-07
7.3322187e-07
3.6001504e-06
7.7672627e-07
8.3198067e-07
4.1562589e-06
7.5302264e-07
8.70967e-07
4.3715729e-06
6.649591e-07
8.9292428e-07
4.4843383e-06
5.1547947e-07
9.0561839e-07
4.611223e-06
2.8779963e-07
9.1518898e-07
4.8272218e-06
-5.2080539e-08
9.0075763e-07
5.2936924e-06
-3.6733584e-07
8.5132507e-07
5.9655115e-06
5.266924e-07
7.0000747e-06
7.3322204e-07
6.964198e-07
3.6001502e-06
1.1909594e-06
1.1909592e-06
6.7544177e-06
1.3272871e-06
1.3569969e-06
7.8111084e-06
1.2787533e-06
1.4261434e-06
8.2605196e-06
1.1182093e-06
1.4621429e-06
8.5126354e-06
8.5569461e-07
1.4804523e-06
8.7625526e-06
4.814676e-07
1.4846876e-06
9.1219143e-06
-4.652814e-08
1.4492701e-06
9.7675686e-06
-4.6572313e-07
1.3179028e-06
1.044633e-05
7.9295479e-07
1.0461149e-05
8.3198083e-07
7.7672602e-07
4.1562586e-06
1.3569972e-06
1.3272868e-06
7.8111082e-06
1.5116113e-06
1.5116111e-06
9.1142204e-06
1.4488924e-06
1.5874726e-06
9.6977778e-06
1.2536564e-06
1.6241745e-06
1.0030148e-05
9.4312899e-07
1.6394413e-06
1.0333194e-05
5.1459086e-07
1.6343989e-06
1.07219e-05
-6.2622135e-08
1.5837456e-06
1.1348936e-05
-5.0098302e-07
1.4168129e-06
1.1839458e-05
8.3896533e-07
1.1234009e-05
8.7096716e-07
7.530225e-07
4.3715723e-06
1.4261437e-06
1.2787532e-06
8.2605192e-06
1.5874729e-06
1.4488923e-06
9.6977776e-06
1.5151272e-06
1.515127e-06
1.0357452e-05
1.3003893e-06
1.5437868e-06
1.0732758e-05
9.6564997e-07
1.552131e-06
1.1055642e-05
5.1306529e-07
1.5403019e-06
1.1438755e-05
-8.0608206e-08
1.4870838e-06
1.2017922e-05
-5.1912488e-07
1.3238692e-06
1.2370975e-05
7.8310335e-07
1.1476111e-05
8.9292442e-07
6.6495913e-07
4.4843377e-06
1.4621432e-06
1.1182093e-06
8.5126349e-06
1.6241747e-06
1.2536564e-06
1.0030148e-05
1.5437869e-06
1.3003893e-06
1.0732758e-05
1.3162405e-06
1.3162405e-06
1.112961e-05
9.6708241e-07
1.3163539e-06
1.1458857e-05
5.0145655e-07
1.3007976e-06
1.1831573e-05
-9.925417e-08
1.2545123e-06
1.2373783e-05
-5.3408583e-07
1.1196046e-06
1.2641131e-05
6.6662717e-07
1.1589231e-05
9.0561853e-07
5.1547964e-07
4.6112224e-06
1.4804526e-06
8.5569477e-07
8.7625521e-06
1.6394415e-06
9.4312915e-07
1.0333193e-05
1.5521311e-06
9.6565013e-07
1.1055642e-05
1.3163539e-06
9.6708257e-07
1.1458857e-05
9.5895507e-07
9.5895524e-07
1.1788133e-05
4.8637721e-07
9.4125637e-07
1.2154561e-05
-1.1739427e-07
9.0657215e-07
1.2677016e-05
-5.4670977e-07
8.1326046e-07
1.2891455e-05
4.8863837e-07
1.1716465e-05
9.1518913e-07
2.877999e-07
4.8272213e-06
1.4846878e-06
4.8146785e-07
9.1219139e-06
1.6343992e-06
5.1459111e-07
1.07219e-05
1.5403021e-06
5.1306553e-07
1.1438755e-05
1.3007975e-06
5.0145679e-07
1.1831573e-05
9.4125621e-07
4.8637745e-07
1.2154561e-05
4.6681332e-07
4.6681356e-07
1.2520426e-05
-1.3856314e-07
4.43857e-07
1.3042711e-05
-5.631141e-07
3.9428274e-07
1.3233787e-05
2.2849096e-07
1.1932955e-05
9.0075779e-07
-5.2080277e-08
5.2936921e-06
1.4492704e-06
-4.6527896e-08
9.7675684e-06
1.5837459e-06
-6.2621898e-08
1.1348936e-05
1.4870839e-06
-8.0607977e-08
1.2017922e-05
1.2545123e-06
-9.9253946e-08
1.2373783e-05
9.0657199e-07
-1.1739405e-07
1.2677017e-05
4.4385676e-07
-1.3856291e-07
1.3042712e-05
-1.5373555e-07
-1.5373531e-07
1.3584856e-05
-5.6931983e-07
-1.7154072e-07
1.379847e-05
-1.4628199e-07
1.2374011e-05
8.5132522e-07
-3.6733567e-07
5.9655113e-06
1.317903e-06
-4.6572298e-07
1.044633e-05
1.4168131e-06
-5.0098288e-07
1.1839458e-05
1.3238694e-06
-5.1912475e-07
1.2370976e-05
1.1196046e-06
-5.3408571e-07
1.2641131e-05
8.1326031e-07
-5.4670965e-07
1.2891456e-05
3.9428251e-07
-5.6311397e-07
1.3233788e-05
-1.7154096e-07
-5.6931969e-07
1.379847e-05
-5.830907e-07
-5.8309055e-07
1.4143402e-05
-4.6613969e-07
1.2831912e-05
5.2669256e-07
7.0000747e-06
7.9295502e-07
1.0461149e-05
8.3896555e-07
1.1234009e-05
7.8310348e-07
1.1476111e-05
6.6662715e-07
1.1589231e-05
4.8863822e-07
1.1716466e-05
2.2849072e-07
1.1932955e-05
-1.4628224e-07
1.2374012e-05
-4.6613985e-07
1.2831912e-05
1.2188723e-05
2.663183e-07
2.663181e-07
1.2874685e-06
4.7868708e-07
5.1784078e-07
2.8699409e-06
5.4416245e-07
6.124423e-07
3.4783412e-06
5.1189818e-07
6.5259921e-07
3.7512378e-06
4.1148373e-07
6.7556527e-07
3.9091873e-06
2.4751072e-07
6.8865819e-07
4.0865376e-06
1.2804235e-08
6.9809218e-07
4.363836e-06
-2.9127611e-07
6.8249184e-07
4.9152809e-06
-4.9896962e-07
6.3285849e-07
5.5403466e-06
3.4745084e-07
6.1536545e-06
5.1784096e-07
4.7868679e-07
2.8699408e-06
9.1623236e-07
9.1623207e-07
5.9576351e-06
1.0403952e-06
1.084824e-06
7.2145638e-06
9.777992e-07
1.1592207e-06
7.816494e-06
7.9090484e-07
1.1985245e-06
8.1765703e-06
4.9510081e-07
1.2183585e-06
8.5286561e-06
9.8356616e-08
1.2223475e-06
8.994403e-06
-3.8795587e-07
1.1834873e-06
9.7528856e-06
-6.5256025e-07
1.0488591e-06
1.0294934e-05
5.7223237e-07
9.5838072e-06
6.1244247e-07
5.4416217e-07
3.478341e-06
1.0848243e-06
1.040395e-06
7.2145636e-06
1.2312051e-06
1.2312049e-06
8.8214586e-06
1.1522435e-06
1.314494e-06
9.621466e-06
9.2386531e-07
1.3555265e-06
1.0101524e-05
5.7119294e-07
1.3726347e-06
1.053159e-05
1.1288675e-07
1.3668874e-06
1.1035667e-05
-4.2349722e-07
1.311363e-06
1.1757444e-05
-6.9763666e-07
1.1382883e-06
1.2024169e-05
6.0890985e-07
1.0499695e-05
6.5259938e-07
5.1189803e-07
3.7512374e-06
1.159221e-06
9.7779905e-07
7.8164937e-06
1.3144943e-06
1.1522433e-06
9.6214659e-06
1.2248119e-06
1.2248118e-06
1.0536816e-05
9.7353993e-07
1.2570154e-06
1.1082541e-05
5.9252433e-07
1.2665522e-06
1.154274e-05
1.071746e-07
1.2534995e-06
1.2037493e-05
-4.4581525e-07
1.1956267e-06
1.2686648e-05
-7.1740897e-07
1.0283802e-06
1.2752477e-05
5.4415281e-07
1.0823459e-05
6.7556543e-07
4.1148375e-07
3.9091869e-06
1.1985247e-06
7.9090487e-07
8.1765699e-06
1.3555268e-06
9.2386533e-07
1.0101524e-05
1.2570155e-06
9.7353995e-07
1.1082541e-05
9.9098222e-07
9.9098223e-07
1.1661676e-05
5.933588e-07
9.911444e-07
1.2131888e-05
9.3542857e-08
9.7409711e-07
1.2610791e-05
-4.6637202e-07
9.2496242e-07
1.3204362e-05
-7.3286749e-07
7.9249387e-07
1.3143513e-05
4.1288437e-07
1.0987632e-05
6.8865835e-07
2.4751092e-07
4.0865372e-06
1.2183588e-06
4.95101e-07
8.5286557e-06
1.372635e-06
5.7119312e-07
1.0531589e-05
1.2665523e-06
5.9252452e-07
1.154274e-05
9.9114438e-07
5.9335898e-07
1.2131888e-05
5.841293e-07
5.8412948e-07
1.2602162e-05
7.6694392e-08
5.6489398e-07
1.3071199e-05
-4.8602567e-07
5.2988969e-07
1.3634809e-05
-7.4587789e-07
4.4755014e-07
1.3496251e-05
2.1794239e-07
1.116553e-05
6.9809235e-07
1.2804527e-08
4.3638356e-06
1.2223478e-06
9.8356892e-08
8.9944027e-06
1.3668877e-06
1.1288702e-07
1.1035666e-05
1.2534996e-06
1.0717487e-07
1.2037493e-05
9.7409709e-07
9.3543126e-08
1.2610791e-05
5.648938e-07
7.6694662e-08
1.3071199e-05
5.5676153e-08
5.5676425e-08
1.3538861e-05
-5.0833007e-07
3.448716e-08
1.410212e-05
-7.626404e-07
3.1136131e-09
1.3932535e-05
-4.9660104e-08
1.1437917e-05
6.8249201e-07
-2.9127581e-07
4.9152807e-06
1.1834876e-06
-3.8795559e-07
9.7528854e-06
1.3113633e-06
-4.2349695e-07
1.1757444e-05
1.1956268e-06
-4.4581499e-07
1.2686649e-05
9.249624e-07
-4.6637177e-07
1.3204362e-05
5.2988952e-07
-4.8602541e-07
1.3634809e-05
3.4486889e-08
-5.0832981e-07
1.410212e-05
-5.2100534e-07
-5.2100507e-07
1.469584e-05
-7.6720703e-07
-5.1888466e-07
1.456667e-05
-3.8330531e-07
1.194045e-05
6.3285866e-07
-4.9896943e-07
5.5403465e-06
1.0488594e-06
-6.5256008e-07
1.0294934e-05
1.1382886e-06
-6.9763651e-07
1.2024169e-05
1.0283803e-06
-7.1740883e-07
1.2752478e-05
7.9249386e-07
-7.3286735e-07
1.3143513e-05
4.4754998e-07
-7.4587775e-07
1.3496252e-05
3.1133501e-09
-7.6264025e-07
1.3932535e-05
-5.1888492e-07
-7.6720687e-07
1.456667e-05
-7.6692082e-07
-7.6692065e-07
1.4639474e-05
-5.7964576e-07
1.2261331e-05
3.4745102e-07
6.1536545e-06
5.7223264e-07
9.5838073e-06
6.089101e-07
1.0499695e-05
5.4415295e-07
1.0823459e-05
4.1288435e-07
1.0987632e-05
2.1794222e-07
1.116553e-05
-4.9660374e-08
1.1437917e-05
-3.8330559e-07
1.194045e-05
-5.7964594e-07
1.2261332e-05
1.1029432e-05
1.6483572e-07
1.6483549e-07
9.5779755e-07
3.2319607e-07
3.611117e-07
2.350469e-06
3.7024288e-07
4.4578382e-07
2.9855106e-06
3.2947214e-07
4.8445102e-07
3.3075573e-06
2.2116555e-07
5.0710952e-07
3.5103841e-06
5.2244425e-08
5.1998838e-07
3.7354702e-06
-1.7442131e-07
5.2913172e-07
4.0613699e-06
-4.2650069e-07
5.1399328e-07
4.653367e-06
-5.3862161e-07
4.6920878e-07
5.1832589e-06
2.3192316e-07
5.3831099e-06
3.6111191e-07
3.2319574e-07
2.350469e-06
6.8651959e-07
6.8651928e-07
5.30682e-06
7.872117e-07
8.4489149e-07
6.714764e-06
7.0998369e-07
9.1924017e-07
7.4589326e-06
5.0475125e-07
9.5944277e-07
7.9294692e-06
1.9280854e-07
9.79805e-07
8.3807819e-06
-1.9926594e-07
9.8380354e-07
8.9318055e-06
-6.1176239e-07
9.4506912e-07
9.7343062e-06
-7.302131e-07
8.1856163e-07
1.0064032e-05
4.1105543e-07
8.6744621e-06
4.4578402e-07
3.7024257e-07
2.9855105e-06
8.448918e-07
7.8721141e-07
6.7147639e-06
9.6884174e-07
9.6884144e-07
8.5735587e-06
8.7297703e-07
1.053314e-06
9.5832567e-06
6.2096626e-07
1.0960771e-06
1.02169e-05
2.4614231e-07
1.1141982e-06
1.077202e-05
-2.1059581e-07
1.1086319e-06
1.1367576e-05
-6.6881858e-07
1.0530894e-06
1.2107646e-05
-7.8412086e-07
8.8861319e-07
1.206942e-05
4.346678e-07
9.691962e-06
4.844512e-07
3.2947197e-07
3.3075571e-06
9.1924048e-07
7.0998353e-07
7.4589325e-06
1.0533143e-06
8.7297687e-07
9.5832566e-06
9.4583842e-07
9.4583825e-07
1.0751768e-05
6.6839278e-07
9.7932474e-07
1.1476739e-05
2.6241432e-07
9.8961049e-07
1.2073306e-05
-2.227024e-07
9.766945e-07
1.2654547e-05
-6.9593957e-07
9.1947338e-07
1.3293502e-05
-8.052197e-07
7.6352261e-07
1.2986848e-05
3.624187e-07
1.0090489e-05
5.0710969e-07
2.2116557e-07
3.5103839e-06
9.5944308e-07
5.0475128e-07
7.929469e-06
1.0960774e-06
6.2096629e-07
1.02169e-05
9.7932492e-07
6.683928e-07
1.1476739e-05
6.8577496e-07
6.8577498e-07
1.2248776e-05
2.6176692e-07
6.8597628e-07
1.285953e-05
-2.384216e-07
6.6906019e-07
1.3418614e-05
-7.1779801e-07
6.2220384e-07
1.3981008e-05
-8.2062123e-07
5.0635242e-07
1.3503507e-05
2.2224724e-07
1.0307182e-05
5.1998856e-07
5.2244636e-08
3.7354699e-06
9.798053e-07
1.9280875e-07
8.3807817e-06
1.1141985e-06
2.4614251e-07
1.077202e-05
9.8961066e-07
2.6241452e-07
1.2073306e-05
6.8597626e-07
2.6176712e-07
1.285953e-05
2.5185829e-07
2.5185849e-07
1.3470398e-05
-2.5623854e-07
2.3281035e-07
1.4015545e-05
-7.3796104e-07
2.0196657e-07
1.4536769e-05
-8.3341718e-07
1.4228296e-07
1.3955777e-05
2.1330228e-08
1.053303e-05
5.291319e-07
-1.7442098e-07
4.0613696e-06
9.8380384e-07
-1.9926563e-07
8.9318053e-06
1.1086322e-06
-2.1059551e-07
1.1367576e-05
9.7669466e-07
-2.227021e-07
1.2654547e-05
6.6906017e-07
-2.384213e-07
1.3418614e-05
2.3281015e-07
-2.5623824e-07
1.4015545e-05
-2.7700792e-07
-2.7700762e-07
1.4558497e-05
-7.5985169e-07
-2.9297413e-07
1.5079905e-05
-8.4964265e-07
-2.9822388e-07
1.4462833e-05
-2.3718816e-07
1.0846793e-05
5.1399347e-07
-4.2650036e-07
4.6533668e-06
9.4506942e-07
-6.1176208e-07
9.7343061e-06
1.0530897e-06
-6.6881828e-07
1.2107646e-05
9.1947355e-07
-6.9593928e-07
1.3293502e-05
6.2220383e-07
-7.1779773e-07
1.3981008e-05
2.0196637e-07
-7.3796076e-07
1.4536769e-05
-2.9297443e-07
-7.598514e-07
1.5079905e-05
-7.6783746e-07
-7.6783717e-07
1.5645566e-05
-8.5190533e-07
-7.4233165e-07
1.5094846e-05
-5.1345374e-07
1.136481e-05
4.6920897e-07
-5.386214e-07
5.1832588e-06
8.1856192e-07
-7.3021291e-07
1.0064032e-05
8.8861346e-07
-7.8412069e-07
1.206942e-05
7.6352276e-07
-8.0521954e-07
1.2986848e-05
5.063524e-07
-8.2062107e-07
1.3503507e-05
1.4228277e-07
-8.3341703e-07
1.3955777e-05
-2.9822418e-07
-8.4964248e-07
1.4462833e-05
-7.4233194e-07
-8.5190515e-07
1.5094846e-05
-8.3784419e-07
-8.37844e-07
1.4830499e-05
-6.0560719e-07
1.1515641e-05
2.3192336e-07
5.3831099e-06
4.1105573e-07
8.6744622e-06
4.3466808e-07
9.6919621e-06
3.6241886e-07
1.0090489e-05
2.2224723e-07
1.0307183e-05
2.1330039e-08
1.053303e-05
-2.3718846e-07
1.0846793e-05
-5.1345405e-07
1.1364811e-05
-6.0560739e-07
1.1515641e-05
9.8182174e-06
9.9468717e-08
9.9468476e-08
7.5886057e-07
2.1090811e-07
2.4610218e-07
1.9929275e-06
2.3894408e-07
3.1795084e-07
2.6395237e-06
1.9037321e-07
3.5328274e-07
3.0028453e-06
7.8158362e-08
3.7467776e-07
3.247921e-06
-8.8075049e-08
3.8695262e-07
3.5147507e-06
-2.9630227e-07
3.9583999e-07
3.873757e-06
-4.9149183e-07
3.8252763e-07
4.4660289e-06
-5.256519e-07
3.4576858e-07
4.8716505e-06
1.5678945e-07
4.7006688e-06
2.4610241e-07
2.1090775e-07
1.9929275e-06
4.9666794e-07
4.966676e-07
4.8056892e-06
5.6767331e-07
6.3644626e-07
6.3252631e-06
4.7603281e-07
7.0651713e-07
7.1973385e-06
2.5992131e-07
7.4563386e-07
7.7746243e-06
-5.3462537e-08
7.6579426e-07
8.3153239e-06
-4.2060732e-07
7.7025007e-07
8.9245401e-06
-7.4488488e-07
7.3478496e-07
9.7063264e-06
-7.3852038e-07
6.2429716e-07
9.7791393e-06
2.9245253e-07
7.8002789e-06
3.1795106e-07
2.3894375e-07
2.6395237e-06
6.3644661e-07
5.6767299e-07
6.3252631e-06
7.2887255e-07
7.2887222e-07
8.3887068e-06
6.1604398e-07
8.0914986e-07
9.5934523e-06
3.493273e-07
8.5130515e-07
1.0377945e-05
-3.0122198e-08
8.6976775e-07
1.1047496e-05
-4.6119936e-07
8.6535767e-07
1.1703546e-05
-8.2296442e-07
8.1415037e-07
1.2390046e-05
-7.9948813e-07
6.6909326e-07
1.2001147e-05
3.0151583e-07
8.8834109e-06
3.5328294e-07
1.9037303e-07
3.0028452e-06
7.0651747e-07
4.7603263e-07
7.1973385e-06
8.0915019e-07
6.1604379e-07
9.5934523e-06
6.838363e-07
6.8383611e-07
1.1002395e-05
3.8991639e-07
7.1646711e-07
1.1905497e-05
-2.222326e-08
7.2711968e-07
1.2628093e-05
-4.8146427e-07
7.1571517e-07
1.326343e-05
-8.5527961e-07
6.6392012e-07
1.3817547e-05
-8.2171842e-07
5.3057845e-07
1.3091802e-05
2.2306516e-07
9.3472211e-06
3.7467795e-07
7.8158391e-08
3.2479209e-06
7.4563419e-07
2.5992134e-07
7.7746242e-06
8.5130548e-07
3.4932732e-07
1.0377945e-05
7.164673e-07
3.8991641e-07
1.1905497e-05
4.0562408e-07
4.056241e-07
1.2870462e-05
-2.5268013e-08
4.0584791e-07
1.3611693e-05
-4.9946387e-07
3.9063657e-07
1.4217888e-05
-8.7814317e-07
3.5058888e-07
1.4673019e-05
-8.3676395e-07
2.6139113e-07
1.3731315e-05
7.8928036e-08
9.6145558e-06
3.8695281e-07
-8.8074822e-08
3.5147506e-06
7.6579459e-07
-5.3462321e-08
8.3153237e-06
8.6976808e-07
-3.012198e-08
1.1047496e-05
7.2711987e-07
-2.2223043e-08
1.2628093e-05
4.058479e-07
-2.5267798e-08
1.3611693e-05
-3.550315e-08
-3.5502935e-08
1.43531e-05
-5.176044e-07
-5.2760442e-08
1.4941043e-05
-8.981095e-07
-7.5657899e-08
1.5343521e-05
-8.4896571e-07
-1.0528367e-07
1.4273308e-05
-1.1935263e-07
9.8823449e-06
3.9584018e-07
-2.9630192e-07
3.8737569e-06
7.702504e-07
-4.2060698e-07
8.9245399e-06
8.6535799e-07
-4.6119902e-07
1.1703546e-05
7.1571536e-07
-4.8146394e-07
1.326343e-05
3.9063655e-07
-4.9946354e-07
1.4217888e-05
-5.2760657e-08
-5.1760407e-07
1.4941043e-05
-5.3663225e-07
-5.3663192e-07
1.552624e-05
-9.1839847e-07
-5.4467006e-07
1.5930683e-05
-8.6405888e-07
-5.1993092e-07
1.482314e-05
-3.578326e-07
1.0221215e-05
3.8252784e-07
-4.9149147e-07
4.4660288e-06
7.3478529e-07
-7.4488455e-07
9.7063263e-06
8.1415068e-07
-8.2296409e-07
1.2390046e-05
6.639203e-07
-8.5527929e-07
1.3817547e-05
3.5058886e-07
-8.7814286e-07
1.4673019e-05
-7.5658109e-08
-8.9810918e-07
1.5343521e-05
-5.4467039e-07
-9.1839814e-07
1.5930683e-05
-9.2028461e-07
-9.2028428e-07
1.6396795e-05
-8.6375243e-07
-8.7141035e-07
1.5389793e-05
-5.7263807e-07
1.0715864e-05
3.4576879e-07
-5.2565167e-07
4.8716504e-06
6.2429748e-07
-7.3852017e-07
9.7791392e-06
6.6909356e-07
-7.9948794e-07
1.2001147e-05
5.3057863e-07
-8.2171824e-07
1.3091802e-05
2.6139112e-07
-8.3676377e-07
1.3731315e-05
-1.0528387e-07
-8.4896554e-07
1.4273309e-05
-5.1993123e-07
-8.6405869e-07
1.482314e-05
-8.7141067e-07
-8.6375223e-07
1.5389793e-05
-8.3794706e-07
-8.3794685e-07
1.4763572e-05
-5.831155e-07
1.0688172e-05
1.5678967e-07
4.7006687e-06
2.9245286e-07
7.8002789e-06
3.0151614e-07
8.8834109e-06
2.2306534e-07
9.3472212e-06
7.8928021e-08
9.6145559e-06
-1.1935283e-07
9.8823451e-06
-3.5783293e-07
1.0221215e-05
-5.7263841e-07
1.0715864e-05
-5.8311572e-07
1.0688172e-05
8.6519864e-06
5.6355734e-08
5.6355477e-08
6.4614956e-07
1.2891944e-07
1.6100777e-07
1.7593562e-06
1.3906657e-07
2.1912892e-07
2.4102477e-06
8.3877668e-08
2.4998742e-07
2.8080467e-06
-2.8775116e-08
2.6947528e-07
3.0910983e-06
-1.8653947e-07
2.8092378e-07
3.3915911e-06
-3.6998264e-07
2.8967737e-07
3.7675227e-06
-5.1014863e-07
2.7919319e-07
4.3270018e-06
-4.8485475e-07
2.5202248e-07
4.5943343e-06
1.0729499e-07
4.1085192e-06
1.6100801e-07
1.2891906e-07
1.7593562e-06
3.4133967e-07
3.4133931e-07
4.4450261e-06
3.8029844e-07
4.5784757e-07
6.0475857e-06
2.7530812e-07
5.2054853e-07
7.0317676e-06
5.5038634e-08
5.5703641e-07
7.7073324e-06
-2.4789251e-07
5.7648919e-07
8.3226894e-06
-5.7636864e-07
5.8190625e-07
8.9607872e-06
-8.1023753e-07
5.5219656e-07
9.667192e-06
-7.0515141e-07
4.6245301e-07
9.4636228e-06
2.0454404e-07
6.9978787e-06
2.1912915e-07
1.3906622e-07
2.4102477e-06
4.5784794e-07
3.8029809e-07
6.0475857e-06
5.1394454e-07
5.1394419e-07
8.2765135e-06
3.8491427e-07
5.8577765e-07
9.6572533e-06
1.1160423e-07
6.2535059e-07
1.0582941e-05
-2.5793433e-07
6.436343e-07
1.1349889e-05
-6.4638092e-07
6.4131924e-07
1.2032579e-05
-9.069554e-07
5.9799522e-07
1.2604822e-05
-7.7104461e-07
4.7938555e-07
1.1848304e-05
1.9910484e-07
8.1178057e-06
2.4998764e-07
8.3877472e-08
2.8080467e-06
5.2054889e-07
2.7530792e-07
7.0317676e-06
5.8577801e-07
3.8491407e-07
9.6572533e-06
4.4329352e-07
4.4329331e-07
1.1287364e-05
1.4169864e-07
4.7318607e-07
1.2359256e-05
-2.6087478e-07
4.838898e-07
1.3190411e-05
-6.7592883e-07
4.752602e-07
1.3844543e-05
-9.4456742e-07
4.3279734e-07
1.4251384e-05
-7.9422689e-07
3.2942715e-07
1.309142e-05
1.1576569e-07
8.6363337e-06
2.6947549e-07
-2.8775088e-08