/*--------------------------------*- C++ -*----------------------------------*\
| =========                 |                                                 |
| \\      /  F ield         | OpenFOAM: The Open Source CFD Toolbox           |
|  \\    /   O peration     | Version:  dev                                   |
|   \\  /    A nd           | Web:      www.OpenFOAM.org                      |
|    \\/     M anipulation  |                                                 |
\*---------------------------------------------------------------------------*/
FoamFile
{
    version     2.0;
    format      ascii;
    class       volVectorField;
    location    "4";
    object      U;
}
// * * * * * * * * * * * * * * * * * * * * * * * * * * * * * * * * * * * * * //

dimensions      [0 1 -1 0 0 0 0];

internalField   nonuniform List<vector> 
10000
(
(0.069651433 0.069651431 0.078660547)
(0.078823288 0.07612125 0.087571712)
(0.082505733 0.076882811 0.088116654)
(0.082682501 0.077076363 0.088136136)
(0.08219874 0.077201254 0.08814985)
(0.081265925 0.077282075 0.088150366)
(0.079375687 0.077392583 0.088225205)
(0.076872401 0.077320069 0.088237901)
(0.065137954 0.077376358 0.089630393)
(0.062474081 0.072578512 0.09458559)
(0.076121252 0.078823283 0.087571712)
(0.087488725 0.087488721 0.09844659)
(0.091900331 0.089058964 0.099169898)
(0.091957795 0.089640491 0.099235969)
(0.091105851 0.089963025 0.099281862)
(0.089608521 0.090162928 0.099307338)
(0.086819659 0.090310714 0.099428505)
(0.08313571 0.090187303 0.099481843)
(0.068685459 0.089278914 0.10102773)
(0.064271468 0.080696875 0.10533104)
(0.076882813 0.082505727 0.088116652)
(0.089058969 0.091900325 0.099169898)
(0.09356268 0.093562674 0.099898464)
(0.093536805 0.094188466 0.099973682)
(0.092487515 0.094510012 0.10002542)
(0.090721743 0.094667895 0.10005277)
(0.087561338 0.094689679 0.10017749)
(0.083489557 0.094347586 0.10022061)
(0.068472919 0.092967434 0.10175388)
(0.064034521 0.08345637 0.10586937)
(0.077076365 0.082682497 0.088136134)
(0.089640496 0.091957791 0.099235968)
(0.094188471 0.0935368 0.099973682)
(0.094105613 0.094105608 0.10005591)
(0.092928173 0.094370698 0.10011143)
(0.091003274 0.094471075 0.10014018)
(0.087649095 0.09441337 0.10026576)
(0.083396793 0.094006756 0.10030315)
(0.068203075 0.092532518 0.10182535)
(0.063904275 0.083143195 0.10588039)
(0.077201256 0.082198739 0.088149848)
(0.08996303 0.09110585 0.099281861)
(0.094510018 0.092487514 0.10002542)
(0.094370702 0.092928171 0.10011143)
(0.093098602 0.0930986 0.10016828)
(0.09106702 0.093131179 0.10019689)
(0.087593754 0.09302706 0.10032166)
(0.083240517 0.092636599 0.10035387)
(0.06797264 0.091280393 0.10186927)
(0.063792672 0.082351991 0.10588944)
(0.077282077 0.081265928 0.088150364)
(0.090162933 0.089608523 0.099307336)
(0.094667901 0.090721745 0.10005276)
(0.09447108 0.091003276 0.10014018)
(0.093131181 0.091067022 0.10019689)
(0.091034455 0.091034457 0.1002255)
(0.087493402 0.090905423 0.10035039)
(0.083082808 0.09057626 0.1003812)
(0.067773012 0.089434265 0.10189472)
(0.063711927 0.08117011 0.10589002)
(0.077392585 0.079375691 0.088225204)
(0.090310719 0.086819663 0.099428504)
(0.094689684 0.087561342 0.10017749)
(0.094413375 0.0876491 0.10026576)
(0.093027061 0.087593759 0.10032166)
(0.090905421 0.087493407 0.10035039)
(0.087342292 0.087342297 0.1004756)
(0.082896773 0.087094395 0.10050695)
(0.067533975 0.086244136 0.10201789)
(0.063588291 0.078970698 0.10596978)
(0.077320071 0.076872407 0.0882379)
(0.090187308 0.083135715 0.099481843)
(0.094347592 0.083489563 0.10022061)
(0.09400676 0.083396799 0.10030315)
(0.0926366 0.083240523 0.10035387)
(0.090576258 0.083082813 0.1003812)
(0.08709439 0.082896779 0.10050695)
(0.082707333 0.082707338 0.10054269)
(0.067345987 0.082066697 0.10206574)
(0.063597075 0.07597482 0.10599085)
(0.077376359 0.065137959 0.089630393)
(0.089278918 0.068685464 0.10102773)
(0.092967439 0.068472923 0.10175388)
(0.092532522 0.068203079 0.10182535)
(0.091280394 0.067972644 0.10186927)
(0.089434263 0.067773016 0.10189472)
(0.086244131 0.067533979 0.10201789)
(0.082066692 0.067345991 0.10206574)
(0.066891231 0.066891236 0.10360852)
(0.063009686 0.06330644 0.10738964)
(0.072578514 0.062474083 0.09458559)
(0.08069688 0.06427147 0.10533104)
(0.083456375 0.064034523 0.10586937)
(0.083143199 0.063904277 0.10588039)
(0.082351992 0.063792674 0.10588944)
(0.081170108 0.063711929 0.10589002)
(0.078970694 0.063588293 0.10596979)
(0.075974815 0.063597077 0.10599085)
(0.063306435 0.063009688 0.10738964)
(0.059576049 0.059576051 0.11051889)
(0.035786852 0.035786849 0.049578924)
(0.05182206 0.045814667 0.067359906)
(0.058020136 0.047464711 0.069791846)
(0.058426358 0.047901247 0.070318743)
(0.057215207 0.048170232 0.070517099)
(0.054861827 0.048334939 0.070720009)
(0.050314896 0.048562097 0.07122141)
(0.044468535 0.048373727 0.072432211)
(0.023680486 0.048503208 0.076608544)
(0.022960442 0.041181735 0.091284037)
(0.04581467 0.051822052 0.067359904)
(0.06757762 0.067577612 0.090919886)
(0.076099844 0.071342984 0.094426339)
(0.076408499 0.072764869 0.09534512)
(0.074200937 0.0735368 0.095766101)
(0.070204926 0.073997453 0.096173937)
(0.063079716 0.074292743 0.096975326)
(0.053973621 0.073875867 0.098643545)
(0.026729304 0.071472889 0.10336883)
(0.022965202 0.055541931 0.11561883)
(0.047464714 0.058020127 0.069791843)
(0.071342992 0.076099835 0.094426337)
(0.080386905 0.080386897 0.098284781)
(0.080565704 0.082022325 0.099385734)
(0.077837448 0.082844054 0.099914845)
(0.073082536 0.083235648 0.10039527)
(0.064924821 0.08325482 0.1012504)
(0.054767391 0.082311352 0.10290445)
(0.026173654 0.078666682 0.10735664)
(0.022393182 0.060117593 0.1182329)
(0.04790125 0.058426351 0.070318738)
(0.072764877 0.076408493 0.095345116)
(0.082022334 0.080565697 0.099385733)
(0.082091077 0.08209107 0.10058633)
(0.079034359 0.08278917 0.10117076)
(0.073849598 0.083046153 0.10167621)
(0.065177499 0.082874311 0.10252572)
(0.054562401 0.08176136 0.10411176)
(0.025580566 0.077861915 0.10835956)
(0.022124817 0.059507502 0.11872215)
(0.048170235 0.057215205 0.070517093)
(0.073536807 0.074200935 0.095766096)
(0.082844063 0.077837446 0.099914843)
(0.082789177 0.079034357 0.10117075)
(0.07949332 0.079493317 0.10178136)
(0.074028849 0.079578896 0.10229334)
(0.065050888 0.079292786 0.10312868)
(0.054190288 0.078228383 0.10466148)
(0.025061249 0.074664516 0.10878657)
(0.02189572 0.057576211 0.1188928)
(0.048334942 0.05486183 0.070720004)
(0.07399746 0.070204929 0.096173932)
(0.083235656 0.073082539 0.10039526)
(0.083046159 0.073849601 0.10167621)
(0.079578898 0.074028852 0.10229334)
(0.073945079 0.073945082 0.1028053)
(0.064795606 0.073599367 0.10363414)
(0.053800397 0.072711758 0.10514197)
(0.024602018 0.069778123 0.1091946)
(0.02173145 0.054618444 0.11909626)
(0.0485621 0.050314904 0.071221406)
(0.074292751 0.063079723 0.096975323)
(0.083254828 0.064924828 0.1012504)
(0.082874317 0.065177506 0.10252572)
(0.079292789 0.065050896 0.10312868)
(0.073599364 0.064795613 0.10363414)
(0.064401869 0.064401877 0.10446523)
(0.053336999 0.063747354 0.10597685)
(0.024057964 0.061659934 0.10999067)
(0.021465419 0.049347334 0.11962691)
(0.04837373 0.044468544 0.072432208)
(0.073875874 0.05397363 0.098643544)
(0.08231136 0.054767399 0.10290445)
(0.081761366 0.054562409 0.10411176)
(0.078228385 0.054190297 0.10466148)
(0.072711755 0.053800405 0.10514198)
(0.063747347 0.053337007 0.10597685)
(0.05285866 0.052858668 0.10752499)
(0.02365059 0.051435674 0.11157535)
(0.021486482 0.042477591 0.12087702)
(0.048503211 0.023680494 0.076608543)
(0.071472896 0.026729311 0.10336883)
(0.07866669 0.026173661 0.10735664)
(0.077861921 0.025580573 0.10835956)
(0.074664518 0.025061256 0.10878657)
(0.06977812 0.024602025 0.10919461)
(0.061659927 0.024057971 0.10999068)
(0.051435665 0.023650597 0.11157535)
(0.022852466 0.022852473 0.11581984)
(0.020279474 0.020039336 0.12487405)
(0.041181738 0.022960445 0.091284037)
(0.055541938 0.022965205 0.11561883)
(0.060117601 0.022393185 0.11823291)
(0.059507508 0.02212482 0.11872216)
(0.057576213 0.021895723 0.1188928)
(0.054618441 0.021731452 0.11909626)
(0.049347327 0.021465422 0.11962692)
(0.042477583 0.021486485 0.12087703)
(0.020039329 0.020279477 0.12487405)
(0.017607533 0.017607536 0.1330212)
(0.018421378 0.018421375 0.031567547)
(0.034102056 0.027443234 0.051688004)
(0.04064207 0.029355847 0.055766004)
(0.041095391 0.0299123 0.056929104)
(0.039326981 0.030251292 0.057435415)
(0.035929425 0.030451615 0.057989116)
(0.029631276 0.030728011 0.059112123)
(0.021935197 0.030475351 0.061781337)
(-0.0004226164 0.030534161 0.067864054)
(0.0029526837 0.022775401 0.083742765)
(0.027443237 0.034102048 0.051688002)
(0.051304997 0.051304989 0.081524255)
(0.061422098 0.056275989 0.08812799)
(0.061896997 0.058235319 0.090316502)
(0.058613455 0.05929406 0.091408651)
(0.052627739 0.059908374 0.092495616)
(0.042356147 0.060258162 0.094325009)
(0.029882562 0.059581906 0.098022997)
(-0.00065549768 0.056244048 0.10481604)
(0.0010717878 0.03839507 0.11544679)
(0.02935585 0.040642061 0.055766)
(0.056275996 0.06142209 0.088127988)
(0.067402135 0.067402126 0.095760006)
(0.067773231 0.06977388 0.098480983)
(0.063709461 0.07095987 0.09988777)
(0.056536117 0.071513933 0.10118729)
(0.044677446 0.071507726 0.10315586)
(0.030645092 0.07009688 0.10681191)
(-0.0016635366 0.064947724 0.11283356)
(0.00029466016 0.043318305 0.12030542)
(0.029912303 0.041095384 0.056929098)
(0.058235326 0.06189699 0.090316498)
(0.069773889 0.067773225 0.09848098)
(0.070025409 0.070025402 0.10149405)
(0.065480911 0.071055832 0.10306364)
(0.057654192 0.071429675 0.10443832)
(0.045026212 0.071160262 0.10638819)
(0.030340472 0.069502713 0.10985584)
(-0.0024501427 0.063978082 0.11531022)
(-3.7523014e-05 0.042558394 0.12148092)
(0.030251294 0.039326979 0.057435408)
(0.059294067 0.058613453 0.091408645)
(0.070959879 0.063709459 0.099887767)
(0.071055839 0.065480909 0.10306364)
(0.066166051 0.066166049 0.10471269)
(0.057923702 0.066293123 0.1061095)
(0.04484909 0.065863347 0.10801901)
(0.029823288 0.064288456 0.11133977)
(-0.0031335741 0.059296745 0.1164481)
(-0.00031586266 0.039815837 0.12195102)
(0.030451617 0.035929428 0.057989109)
(0.059908381 0.052627743 0.09249561)
(0.071513942 0.05653612 0.10118729)
(0.071429681 0.057654195 0.10443832)
(0.066293125 0.057923705 0.1061095)
(0.057801442 0.057801445 0.10750633)
(0.044479696 0.057290374 0.10939386)
(0.029273129 0.055998849 0.11263977)
(-0.0037450375 0.05201981 0.11753619)
(-0.00051535188 0.035573525 0.12250603)
(0.030728014 0.029631283 0.059112117)
(0.060258169 0.042356155 0.094325005)
(0.071507734 0.044677454 0.10315586)
(0.071160269 0.045026219 0.10638819)
(0.065863349 0.044849097 0.10801901)
(0.057290371 0.044479703 0.10939386)
(0.043908517 0.043908524 0.11128315)
(0.028621382 0.042986003 0.11453264)
(-0.0044629042 0.040344929 0.11932296)
(-0.0008505251 0.028295341 0.12366871)
(0.030475354 0.021935206 0.061781334)
(0.059581913 0.02988257 0.098022996)
(0.070096888 0.030645101 0.10681191)
(0.069502719 0.03034048 0.10985585)
(0.064288458 0.029823296 0.11133978)
(0.055998846 0.029273137 0.11263978)
(0.042985996 0.02862139 0.11453265)
(0.027982156 0.027982164 0.11786775)
(-0.0049497427 0.026416496 0.12273654)
(-0.0008198412 0.019374596 0.12633135)
(0.030534164 -0.00042260886 0.067864053)
(0.056244055 -0.00065549067 0.10481604)
(0.064947732 -0.0016635299 0.11283357)
(0.063978088 -0.0024501363 0.11531022)
(0.059296747 -0.0031335678 0.1164481)
(0.052019807 -0.0037450311 0.1175362)
(0.040344922 -0.0044628977 0.11932297)
(0.026416487 -0.004949736 0.12273655)
(-0.0055564533 -0.0055564465 0.12812348)
(-0.002010224 -0.0046391128 0.13164538)
(0.022775403 0.0029526867 0.083742766)
(0.038395077 0.0010717905 0.1154468)
(0.043318314 0.00029466264 0.12030543)
(0.0425584 -3.7520791e-05 0.12148093)
(0.039815839 -0.00031586057 0.12195102)
(0.035573522 -0.00051534976 0.12250604)
(0.028295334 -0.00085052281 0.12366871)
(0.019374588 -0.00081983867 0.12633136)
(-0.0046391199 -0.0020102213 0.13164539)
(-0.001371756 -0.0013717532 0.13597827)
(0.0095121397 0.0095121364 0.021145103)
(0.022392585 0.016376541 0.040130788)
(0.028275992 0.018188956 0.045351298)
(0.028600979 0.018776936 0.047191461)
(0.026404078 0.019138059 0.048097813)
(0.022298904 0.019346658 0.049113938)
(0.015024151 0.01963666 0.050939681)
(0.0066835572 0.019369077 0.055040747)
(-0.013633933 0.01935319 0.061848141)
(-0.0064943129 0.012229886 0.074574616)
(0.016376544 0.022392577 0.040130786)
(0.038288921 0.038288914 0.071889086)
(0.048379417 0.0436643 0.081313308)
(0.048807754 0.045899508 0.085025015)
(0.044676571 0.047114445 0.087025449)
(0.037226192 0.047805283 0.089019256)
(0.024965872 0.048161741 0.092037643)
(0.010990928 0.0473144 0.097728129)
(-0.01760526 0.043600874 0.10496158)
(-0.0097059737 0.02664659 0.10912865)
(0.018188959 0.028275982 0.045351294)
(0.043664308 0.048379408 0.081313306)
(0.055155249 0.05515524 0.092688458)
(0.055525877 0.057981981 0.097438798)
(0.050409993 0.059404604 0.10005642)
(0.041419792 0.060061553 0.10246285)
(0.027147428 0.060028022 0.10572447)
(0.011287146 0.058317998 0.11129855)
(-0.019175515 0.052436289 0.11706285)
(-0.010617871 0.031154547 0.11603318)
(0.018776938 0.028600972 0.047191455)
(0.045899515 0.048807747 0.085025011)
(0.05798199 0.05552587 0.097438796)
(0.058246088 0.058246081 0.10276971)
(0.052537476 0.059504771 0.10571307)
(0.042717922 0.059959854 0.10827038)
(0.027487058 0.059622837 0.11149172)
(0.010854392 0.057618221 0.11669976)
(-0.020092679 0.051294616 0.12138954)
(-0.010975826 0.030265446 0.11803281)
(0.019138061 0.026404076 0.048097807)
(0.047114453 0.044676569 0.087025444)
(0.059404613 0.050409991 0.10005642)
(0.059504778 0.052537474 0.10571307)
(0.053377066 0.053377064 0.10881838)
(0.043040424 0.053534678 0.11142287)
(0.027263816 0.053010386 0.11456495)
(0.010238539 0.051125073 0.11948906)
(-0.020858258 0.045510543 0.12351395)
(-0.011264666 0.026960848 0.11892049)
(0.01934666 0.022298907 0.049113932)
(0.04780529 0.037226196 0.089019251)
(0.060061561 0.041419795 0.10246284)
(0.059959861 0.042717925 0.10827038)
(0.05353468 0.043040427 0.11142287)
(0.042891139 0.042891142 0.11402753)
(0.026816313 0.04227498 0.1171229)
(0.0095878 0.040767474 0.12189674)
(-0.021545024 0.036494448 0.12551061)
(-0.011472251 0.021864246 0.11993918)
(0.019636663 0.015024159 0.050939676)
(0.048161748 0.02496588 0.092037639)
(0.06002803 0.027147435 0.10572447)
(0.059622843 0.027487065 0.11149172)
(0.053010388 0.027263824 0.11456496)
(0.042274977 0.02681632 0.1171229)
(0.026137603 0.026137611 0.12021607)
(0.0088305821 0.025112007 0.12499004)
(-0.022341059 0.022573059 0.1284123)
(-0.011832411 0.013474504 0.12179)
(0.019369079 0.0066835666 0.055040744)
(0.047314407 0.010990937 0.097728127)
(0.058318007 0.011287155 0.11129855)
(0.057618228 0.0108544 0.11669976)
(0.051125075 0.010238547 0.11948906)
(0.040767471 0.0095878083 0.12189674)
(0.025112 0.0088305907 0.12499004)
(0.0081702394 0.0081702479 0.12991742)
(-0.022799025 0.0070115119 0.13349652)
(-0.011792224 0.003904847 0.1257427)
(0.019353193 -0.013633925 0.06184814)
(0.043600881 -0.017605253 0.10496158)
(0.052436297 -0.019175508 0.11706285)
(0.051294622 -0.020092673 0.12138954)
(0.045510545 -0.020858251 0.12351395)
(0.036494445 -0.021545018 0.12551062)
(0.022573052 -0.022341052 0.1284123)
(0.0070115035 -0.022799018 0.13349653)
(-0.022872151 -0.022872144 0.13807268)
(-0.012674032 -0.017831733 0.13088939)
(0.012229889 -0.0064943099 0.074574616)
(0.026646597 -0.0097059709 0.10912866)
(0.031154555 -0.010617869 0.11603318)
(0.030265452 -0.010975824 0.11803282)
(0.02696085 -0.011264665 0.1189205)
(0.021864243 -0.011472249 0.11993919)
(0.013474497 -0.011832409 0.12179001)
(0.0039048382 -0.011792221 0.1257427)
(-0.017831741 -0.012674029 0.13088939)
(-0.0091982194 -0.0091982165 0.12808399)
(0.0048744668 0.0048744632 0.014785134)
(0.014596331 0.009707795 0.031688604)
(0.019430817 0.011256665 0.037592882)
(0.01950692 0.011815656 0.040055285)
(0.016990566 0.012167913 0.041408569)
(0.012470178 0.012368538 0.042933223)
(0.0048452088 0.012652587 0.045427012)
(-0.0032787501 0.012397209 0.050613964)
(-0.020064754 0.012360773 0.057244653)
(-0.010291935 0.0063420871 0.065630458)
(0.0097077984 0.014596323 0.031688603)
(0.028039289 0.02803928 0.063195475)
(0.037132893 0.033251151 0.074899338)
(0.037295523 0.035550737 0.080178167)
(0.032513766 0.036819256 0.083229665)
(0.024102662 0.037532574 0.08624092)
(0.010886456 0.037876629 0.090410855)
(-0.0031120258 0.036963107 0.097586208)
(-0.027190179 0.033320279 0.10391409)
(-0.014242076 0.018554696 0.10050088)
(0.011256668 0.019430807 0.03759288)
(0.033251159 0.037132883 0.074899337)
(0.043969953 0.043969943 0.089587366)
(0.04410295 0.046989228 0.096516549)
(0.038177999 0.048533123 0.10055977)
(0.027959704 0.049244914 0.10422299)
(0.012447255 0.049197039 0.10873684)
(-0.0035782947 0.047363717 0.11565321)
(-0.029351248 0.041404973 0.11967951)
(-0.015231447 0.022290742 0.1090534)
(0.011815659 0.019506913 0.04005528)
(0.035550745 0.037295516 0.080178164)
(0.046989237 0.044102943 0.096516548)
(0.047033333 0.047033325 0.10439183)
(0.040436154 0.048418165 0.10897055)
(0.029259093 0.048923691 0.1128808)
(0.01266327 0.048558015 0.11732284)
(-0.0041825176 0.046412274 0.12364583)
(-0.030370194 0.040005446 0.1259919)
(-0.015591204 0.021247296 0.11189743)
(0.012167915 0.016990564 0.041408564)
(0.036819264 0.032513764 0.083229661)
(0.048533132 0.038177997 0.10055977)
(0.048418172 0.040436151 0.10897055)
(0.041354456 0.041354453 0.11381956)
(0.029590127 0.041532556 0.11781032)
(0.012386665 0.040968971 0.12212318)
(-0.0048693208 0.03898133 0.12798934)
(-0.031166641 0.033437128 0.12928244)
(-0.015868924 0.017573845 0.11327887)
(0.01236854 0.012470182 0.042933218)
(0.037532582 0.024102666 0.086240916)
(0.049244923 0.027959707 0.10422298)
(0.048923698 0.029259097 0.1128808)
(0.041532558 0.029590131 0.11781032)
(0.029423657 0.029423661 0.12180151)
(0.011891511 0.028766224 0.12603489)
(-0.0055730153 0.027234969 0.13165524)
(-0.031875185 0.023293108 0.13229885)
(-0.016068578 0.011987088 0.11480794)
(0.01265259 0.0048452174 0.045427008)
(0.037876637 0.010886464 0.090410852)
(0.049197049 0.012447263 0.10873683)
(0.048558023 0.012663278 0.11732284)
(0.040968974 0.012386673 0.12212318)
(0.028766221 0.011891519 0.12603489)
(0.011174301 0.011174309 0.13025881)
(-0.0063624773 0.010208079 0.13587529)
(-0.032680412 0.0082792463 0.136242)
(-0.01642535 0.0031966639 0.11728425)
(0.012397212 -0.0032787398 0.050613962)
(0.036963115 -0.0031120162 0.097586207)
(0.047363726 -0.0035782852 0.11565321)
(0.046412281 -0.0041825083 0.12364583)
(0.038981332 -0.0048693117 0.12798934)
(0.027234965 -0.0055730061 0.13165524)
(0.010208071 -0.0063624679 0.13587529)
(-0.0069178004 -0.006917791 0.14173634)
(-0.03303458 -0.0073032098 0.14239948)
(-0.016367245 -0.0060635748 0.12210639)
(0.012360776 -0.020064746 0.057244652)
(0.033320287 -0.027190171 0.10391409)
(0.041404982 -0.02935124 0.11967951)
(0.040005453 -0.030370187 0.12599191)
(0.033437131 -0.031166634 0.12928244)
(0.023293105 -0.031875178 0.13229885)
(0.0082792387 -0.032680405 0.136242)
(-0.0073032191 -0.033034572 0.14239948)
(-0.032430101 -0.032430093 0.14469486)
(-0.016890175 -0.023990145 0.12612038)
(0.0063420904 -0.010291932 0.065630458)
(0.018554704 -0.014242073 0.10050088)
(0.022290751 -0.015231444 0.10905341)
(0.021247303 -0.015591202 0.11189743)
(0.017573847 -0.015868922 0.11327887)
(0.011987085 -0.016068576 0.11480794)
(0.0031966561 -0.016425347 0.11728425)
(-0.0060635844 -0.016367242 0.12210639)
(-0.023990153 -0.016890172 0.12612038)
(-0.011757544 -0.011757541 0.11656845)
(0.0024424981 0.0024424942 0.010780487)
(0.0093703301 0.0056847401 0.025607388)
(0.013062243 0.0069251656 0.031875297)
(0.012826692 0.0074207708 0.034873016)
(0.010089938 0.0077455157 0.036683406)
(0.0054002333 0.0079294416 0.038708624)
(-0.0020993342 0.0081980566 0.041761743)
(-0.009450372 0.0079725455 0.047577996)
(-0.022344449 0.0079664218 0.053438217)
(-0.011111921 0.0031324074 0.057468144)
(0.0056847437 0.0093703206 0.025607387)
(0.020069277 0.020069268 0.055921465)
(0.027647594 0.02476116 0.069361342)
(0.027374136 0.026965929 0.07613049)
(0.022119851 0.028210315 0.080291768)
(0.013204685 0.028909661 0.084329918)
(-0.00011340007 0.02923909 0.089478409)
(-0.013079976 0.028357006 0.097444464)
(-0.03168751 0.025092004 0.10193612)
(-0.015310729 0.012952914 0.091282195)
(0.0069251687 0.013062232 0.031875295)
(0.024761169 0.027647583 0.069361341)
(0.034011625 0.034011614 0.086824616)
(0.033697845 0.036999054 0.095911918)
(0.02717995 0.038564653 0.10148572)
(0.016276972 0.039293972 0.10643406)
(0.00051813681 0.039253389 0.11200574)
(-0.014448072 0.037458967 0.11949327)
(-0.034385979 0.031915786 0.12077196)
(-0.016326843 0.015789097 0.10104776)
(0.0074207735 0.012826684 0.034873013)
(0.026965938 0.027374128 0.076130488)
(0.036999064 0.033697837 0.095911917)
(0.036605607 0.036605599 0.10636496)
(0.029361385 0.038021999 0.11271958)
(0.017414404 0.038552294 0.11802489)
(0.00050821527 0.038200663 0.12348148)
(-0.015262863 0.036105266 0.13010682)
(-0.035491652 0.030166032 0.12904134)
(-0.016674098 0.014561551 0.10468399)
(0.0077455181 0.010089936 0.036683403)
(0.028210324 0.022119849 0.080291765)
(0.038564663 0.027179948 0.10148571)
(0.038022007 0.029361382 0.11271958)
(0.03028453 0.030284528 0.11947372)
(0.017707792 0.030474224 0.12489927)
(0.00016473858 0.02992727 0.1301674)
(-0.01600568 0.028029809 0.1361355)
(-0.036288721 0.023082727 0.13358511)
(-0.016929641 0.010672661 0.10659234)
(0.0079294441 0.0054002375 0.038708621)
(0.02890967 0.013204689 0.084329915)
(0.039293983 0.016276976 0.10643406)
(0.038552302 0.017414408 0.11802489)
(0.030474227 0.017707796 0.12489927)
(0.017532196 0.017532199 0.13032567)
(-0.00035326143 0.016895255 0.13547546)
(-0.016725876 0.015513721 0.14108879)
(-0.036983267 0.012353839 0.13763121)
(-0.017112773 0.0048931716 0.1086241)
(0.0081980593 -0.002099325 0.04176174)
(0.029239098 -0.00011339137 0.089478407)
(0.039253399 0.00051814555 0.11200574)
(0.038200671 0.00050822392 0.12348148)
(0.029927273 0.00016474715 0.1301674)
(0.016895251 -0.00035325284 0.13547546)
(-0.0010459605 -0.0010459518 0.140607)
(-0.017486879 -0.0018136068 0.14621694)
(-0.037749569 -0.0028067212 0.14241533)
(-0.017449273 -0.0037674643 0.11159451)
(0.0079725485 -0.0094503608 0.047577994)
(0.028357015 -0.013079965 0.097444463)
(0.037458977 -0.014448061 0.11949327)
(0.036105274 -0.015262853 0.13010683)
(0.028029812 -0.01600567 0.13613551)
(0.015513717 -0.016725866 0.14108879)
(-0.0018136154 -0.017486869 0.14621694)
(-0.017839768 -0.017839758 0.15219243)
(-0.037956055 -0.017275138 0.14890519)
(-0.017371477 -0.012127385 0.11679482)
(0.0079664252 -0.022344439 0.053438216)
(0.025092012 -0.031687501 0.10193612)
(0.031915796 -0.034385971 0.12077196)
(0.030166039 -0.035491644 0.12904134)
(0.023082729 -0.036288713 0.13358511)
(0.012353836 -0.036983259 0.13763121)
(-0.0028067294 -0.037749561 0.14241533)
(-0.017275148 -0.037956047 0.14890519)
(-0.03667964 -0.036679631 0.14803407)
(-0.017591714 -0.02591368 0.1191918)
(0.003132411 -0.011111918 0.057468143)
(0.012952922 -0.015310726 0.091282195)
(0.015789107 -0.01632684 0.10104776)
(0.014561559 -0.016674096 0.10468399)
(0.010672664 -0.016929639 0.10659234)
(0.0048931681 -0.017112771 0.1086241)
(-0.0037674727 -0.017449271 0.11159452)
(-0.012127395 -0.017371474 0.11679483)
(-0.025913689 -0.01759171 0.1191918)
(-0.011806651 -0.011806648 0.10425392)
(0.0011631911 0.0011631869 0.0082983352)
(0.0058385781 0.0032514012 0.02134378)
(0.0084455158 0.0041986267 0.027778902)
(0.0078833086 0.0046161904 0.031226423)
(0.0050174991 0.0049037625 0.033477103)
(0.00035794857 0.0050673388 0.03595589)
(-0.0066785594 0.0053169131 0.039420665)
(-0.012947105 0.0051333275 0.045426658)
(-0.022179804 0.0051855667 0.050145723)
(-0.010455405 0.0014311716 0.050192564)
(0.0032514051 0.0058385679 0.021343779)
(0.013933677 0.013933667 0.050178302)
(0.019789711 0.017917849 0.064903111)
(0.018977023 0.019918469 0.073029091)
(0.013413988 0.02108321 0.078289788)
(0.0043880008 0.02174556 0.083285113)
(-0.0083739873 0.022066711 0.089159439)
(-0.01964395 0.021294484 0.097222301)
(-0.032800142 0.018586032 0.099295526)
(-0.014555472 0.0090507951 0.082234081)
(0.00419863 0.0084455042 0.027778902)
(0.017917858 0.0197897 0.064903111)
(0.025338016 0.025338005 0.084629874)
(0.024429387 0.028117931 0.095755377)
(0.017514222 0.029624074 0.10287054)
(0.0064028768 0.030343277 0.10903453)
(-0.0088163797 0.030334614 0.1153766)
(-0.021919435 0.028713541 0.12266559)
(-0.035927902 0.023913108 0.12058353)
(-0.015556057 0.010992082 0.092818043)
(0.0046161933 0.0078833 0.031226421)
(0.019918479 0.018977015 0.07302909)
(0.028117942 0.024429378 0.095755376)
(0.027122819 0.02712281 0.10869657)
(0.019446582 0.028488557 0.11686065)
(0.0072464168 0.029023089 0.12349801)
(-0.0091291248 0.028726861 0.12966822)
(-0.02296886 0.026842818 0.13579358)
(-0.037108328 0.021748412 0.13068003)
(-0.015883255 0.0095641505 0.097158571)
(0.0049037651 0.0050174965 0.033477101)
(0.021083219 0.013413986 0.078289786)
(0.029624085 0.017514219 0.10287054)
(0.028488565 0.019446579 0.11686065)
(0.020307969 0.020307966 0.12556826)
(0.0074593555 0.020501694 0.13236964)
(-0.0095544504 0.020022934 0.13828443)
(-0.023760319 0.018376231 0.14353321)
(-0.037889613 0.014378447 0.13648284)
(-0.0161122 0.0055831998 0.099589789)
(0.0050673414 0.0003579529 0.035955888)
(0.021745569 0.0043880049 0.083285111)
(0.030343288 0.0064028808 0.10903453)
(0.029023098 0.0072464208 0.12349801)
(0.020501697 0.0074593594 0.13236964)
(0.0072809363 0.0072809402 0.13917243)
(-0.010075978 0.0067193242 0.1449263)
(-0.024470418 0.005627122 0.14970504)
(-0.038547781 0.00352403 0.14148938)
(-0.016275237 -0.00015511556 0.10207723)
(0.005316916 -0.0066785496 0.039420663)
(0.02206672 -0.0083739781 0.089159437)
(0.030334625 -0.0088163704 0.1153766)
(0.02872687 -0.0091291157 0.12966822)
(0.020022937 -0.0095544413 0.13828443)
(0.0067193203 -0.010075969 0.1449263)
(-0.010691197 -0.010691188 0.15065434)
(-0.025156221 -0.011156481 0.15544015)
(-0.039243807 -0.011059911 0.14684654)
(-0.016582769 -0.0083156582 0.10538091)
(0.0051333308 -0.012947093 0.045426656)
(0.021294493 -0.019643939 0.097222299)
(0.028713552 -0.021919424 0.12266559)
(0.026842826 -0.02296885 0.13579358)
(0.018376234 -0.023760308 0.14353321)
(0.0056271182 -0.024470407 0.14970505)
(-0.01115649 -0.02515621 0.15544015)
(-0.025244434 -0.025244423 0.16074731)
(-0.039285065 -0.023709103 0.15297034)
(-0.016490136 -0.015465648 0.1105211)
(0.0051855703 -0.022179794 0.050145723)
(0.018586041 -0.032800133 0.099295526)
(0.023913118 -0.035927894 0.12058353)
(0.02174842 -0.03710832 0.13068003)
(0.01437845 -0.037889605 0.13648284)
(0.0035240264 -0.038547773 0.14148938)
(-0.01105992 -0.039243799 0.14684654)
(-0.023709114 -0.039285056 0.15297034)
(-0.037434682 -0.037434673 0.14851492)
(-0.016492366 -0.025392957 0.11112501)
(0.0014311754 -0.010455401 0.050192564)
(0.0090508044 -0.014555468 0.082234081)
(0.010992093 -0.015556054 0.092818044)
(0.0095641586 -0.015883252 0.097158573)
(0.0055832025 -0.016112197 0.099589791)
(-0.00015511927 -0.016275235 0.10207723)
(-0.0083156672 -0.016582767 0.10538091)
(-0.015465659 -0.016490133 0.1105211)
(-0.025392967 -0.016492363 0.11112501)
(-0.0107313 -0.010731297 0.09218423)
(0.00048529899 0.00048529466 0.0068365456)
(0.0034289099 0.0017716666 0.01847976)
(0.0050797195 0.0024666147 0.024978086)
(0.0042106593 0.0028042499 0.028801149)
(0.0012986997 0.0030511629 0.031455909)
(-0.0031759402 0.003193879 0.034315072)
(-0.0095301687 0.0034237816 0.038028721)
(-0.014592611 0.0032883567 0.043852307)
(-0.020670146 0.0034069418 0.047227363)
(-0.0091649154 0.0005665037 0.043826354)
(0.0017716706 0.0034288992 0.01847976)
(0.0092498988 0.0092498888 0.04590883)
(0.013382608 0.012461196 0.061580175)
(0.011994127 0.014192118 0.070906771)
(0.006272528 0.015240955 0.077202009)
(-0.0025426719 0.015853303 0.083026355)
(-0.01428109 0.016175566 0.089336064)
(-0.023516195 0.015567673 0.096888056)
(-0.031775618 0.013491837 0.096240969)
(-0.012954449 0.006312075 0.073786171)
(0.0024666183 0.0050797073 0.024978086)
(0.012461206 0.013382597 0.061580175)
(0.017933703 0.017933691 0.083134352)
(0.016353142 0.020382065 0.096121515)
(0.0092183647 0.021767162 0.10471114)
(-0.0017046961 0.022456981 0.11194631)
(-0.015808302 0.022503347 0.1187249)
(-0.026608507 0.021155178 0.12514069)
(-0.035199431 0.017279473 0.11940537)
(-0.013907632 0.0074378739 0.084863189)
(0.0028042531 0.0042106502 0.028801148)
(0.014192127 0.011994119 0.070906771)
(0.020382077 0.016353133 0.096121515)
(0.018689471 0.018689462 0.11138199)
(0.010773469 0.019938138 0.12129805)
(-0.0012476823 0.020461266 0.12912207)
(-0.016469365 0.02025628 0.13565752)
(-0.02789754 0.018705267 0.14058556)
(-0.036441046 0.014675483 0.13113773)
(-0.014211305 0.0058121208 0.089804362)
(0.0030511658 0.0012986969 0.031455908)
(0.015240964 0.0062725252 0.077202008)
(0.021767174 0.0092183617 0.10471114)
(0.019938147 0.010773466 0.12129805)
(0.011517932 0.011517929 0.13190962)
(-0.0011505755 0.011709542 0.13994285)
(-0.016989127 0.011342168 0.14615006)
(-0.0287337 0.010065858 0.14997231)
(-0.037198672 0.0072115969 0.13813733)
(-0.014413159 0.0018384247 0.09272457)
(0.0031938819 -0.0031759357 0.034315071)
(0.015853313 -0.0025426677 0.083026354)
(0.022456993 -0.0017046919 0.11194631)
(0.020461276 -0.0012476783 0.12912207)
(0.011709545 -0.0011505715 0.13994285)
(-0.0013271241 -0.0013271201 0.14797819)
(-0.017499859 -0.0017691136 0.15398074)
(-0.029415454 -0.0024737413 0.1572187)
(-0.037807953 -0.0033989892 0.14397636)
(-0.014555624 -0.0036828501 0.095594284)
(0.0034237847 -0.0095301585 0.03802872)
(0.016175576 -0.014281081 0.089336063)
(0.022503358 -0.015808293 0.1187249)
(0.020256288 -0.016469356 0.13565752)
(0.011342171 -0.016989118 0.14615006)
(-0.0017691176 -0.017499849 0.15398074)
(-0.017997217 -0.017997208 0.159954)
(-0.029993625 -0.018096107 0.16322444)
(-0.038415645 -0.016895307 0.14961356)