/*--------------------------------*- C++ -*----------------------------------*\
| =========                 |                                                 |
| \\      /  F ield         | OpenFOAM: The Open Source CFD Toolbox           |
|  \\    /   O peration     | Version:  dev                                   |
|   \\  /    A nd           | Web:      www.OpenFOAM.org                      |
|    \\/     M anipulation  |                                                 |
\*---------------------------------------------------------------------------*/
FoamFile
{
    version     2.0;
    format      ascii;
    class       volVectorField;
    location    "4";
    object      U_0;
}
// * * * * * * * * * * * * * * * * * * * * * * * * * * * * * * * * * * * * * //

dimensions      [0 1 -1 0 0 0 0];

internalField   nonuniform List<vector> 
10000
(
(0.069651431 0.069651431 0.078660548)
(0.078823285 0.076121251 0.087571713)
(0.082505729 0.076882811 0.088116653)
(0.082682498 0.077076363 0.088136135)
(0.082198739 0.077201254 0.088149848)
(0.081265927 0.077282075 0.088150365)
(0.07937569 0.077392583 0.088225204)
(0.076872405 0.077320069 0.088237901)
(0.065137957 0.077376358 0.089630394)
(0.062474082 0.072578512 0.094585591)
(0.076121251 0.078823284 0.087571713)
(0.087488722 0.087488721 0.098446591)
(0.091900326 0.089058964 0.099169898)
(0.091957792 0.089640491 0.099235968)
(0.09110585 0.089963025 0.099281861)
(0.089608523 0.090162928 0.099307336)
(0.086819662 0.090310714 0.099428504)
(0.083135714 0.090187303 0.099481844)
(0.068685463 0.089278914 0.10102773)
(0.06427147 0.080696876 0.10533104)
(0.076882811 0.082505728 0.088116654)
(0.089058965 0.091900325 0.099169899)
(0.093562675 0.093562674 0.099898464)
(0.093536801 0.094188465 0.099973681)
(0.092487514 0.094510012 0.10002542)
(0.090721745 0.094667895 0.10005276)
(0.087561342 0.094689678 0.10017749)
(0.083489562 0.094347586 0.10022061)
(0.068472922 0.092967434 0.10175388)
(0.064034523 0.083456371 0.10586937)
(0.077076363 0.082682497 0.088136136)
(0.089640491 0.091957791 0.099235969)
(0.094188466 0.0935368 0.099973681)
(0.094105609 0.094105608 0.10005591)
(0.092928171 0.094370698 0.10011143)
(0.091003276 0.094471075 0.10014017)
(0.087649099 0.09441337 0.10026575)
(0.083396798 0.094006756 0.10030315)
(0.068203079 0.092532518 0.10182535)
(0.063904277 0.083143195 0.10588039)
(0.077201254 0.082198739 0.088149849)
(0.089963026 0.09110585 0.099281862)
(0.094510013 0.092487514 0.10002542)
(0.094370699 0.092928171 0.10011143)
(0.093098601 0.0930986 0.10016828)
(0.091067022 0.093131179 0.10019689)
(0.087593758 0.09302706 0.10032166)
(0.083240522 0.092636599 0.10035387)
(0.067972644 0.091280393 0.10186927)
(0.063792674 0.082351991 0.10588944)
(0.077282075 0.081265927 0.088150365)
(0.090162929 0.089608523 0.099307337)
(0.094667896 0.090721745 0.10005276)
(0.094471076 0.091003276 0.10014017)
(0.09313118 0.091067022 0.10019689)
(0.091034457 0.091034457 0.1002255)
(0.087493406 0.090905423 0.10035039)
(0.083082813 0.09057626 0.1003812)
(0.067773016 0.089434265 0.10189472)
(0.063711929 0.08117011 0.10589002)
(0.077392583 0.079375691 0.088225205)
(0.090310715 0.086819663 0.099428505)
(0.094689679 0.087561343 0.10017749)
(0.094413371 0.0876491 0.10026575)
(0.09302706 0.087593759 0.10032166)
(0.090905423 0.087493407 0.10035039)
(0.087342296 0.087342297 0.1004756)
(0.082896778 0.087094395 0.10050695)
(0.067533978 0.086244135 0.10201789)
(0.063588293 0.078970698 0.10596979)
(0.077320069 0.076872406 0.088237902)
(0.090187304 0.083135715 0.099481844)
(0.094347587 0.083489563 0.10022061)
(0.094006757 0.083396799 0.10030315)
(0.092636599 0.083240523 0.10035387)
(0.09057626 0.083082814 0.1003812)
(0.087094394 0.082896779 0.10050695)
(0.082707337 0.082707338 0.10054269)
(0.06734599 0.082066697 0.10206574)
(0.063597076 0.07597482 0.10599086)
(0.077376358 0.065137958 0.089630394)
(0.089278915 0.068685464 0.10102773)
(0.092967435 0.068472923 0.10175388)
(0.092532519 0.06820308 0.10182535)
(0.091280393 0.067972645 0.10186927)
(0.089434265 0.067773017 0.10189472)
(0.086244134 0.067533979 0.10201789)
(0.082066696 0.067345991 0.10206574)
(0.066891234 0.066891235 0.10360852)
(0.063009688 0.063306439 0.10738965)
(0.072578513 0.062474083 0.094585591)
(0.080696877 0.06427147 0.10533104)
(0.083456371 0.064034523 0.10586937)
(0.083143196 0.063904277 0.10588039)
(0.082351991 0.063792674 0.10588944)
(0.081170109 0.063711929 0.10589002)
(0.078970697 0.063588293 0.10596978)
(0.075974819 0.063597077 0.10599085)
(0.063306439 0.063009688 0.10738965)
(0.05957605 0.059576051 0.11051889)
(0.035786849 0.03578685 0.049578926)
(0.051822052 0.045814667 0.067359907)
(0.058020126 0.047464711 0.069791846)
(0.058426351 0.047901247 0.070318741)
(0.057215205 0.048170232 0.070517097)
(0.05486183 0.048334938 0.070720007)
(0.050314904 0.048562097 0.071221409)
(0.044468544 0.048373727 0.072432211)
(0.023680493 0.048503209 0.076608545)
(0.022960445 0.041181735 0.091284039)
(0.045814666 0.051822053 0.067359907)
(0.067577612 0.067577613 0.090919888)
(0.076099834 0.071342984 0.094426338)
(0.076408492 0.072764869 0.095345118)
(0.074200935 0.073536799 0.095766098)
(0.07020493 0.073997452 0.096173934)
(0.063079724 0.074292743 0.096975325)
(0.05397363 0.073875867 0.098643546)
(0.026729311 0.07147289 0.10336883)
(0.022965206 0.055541932 0.11561883)
(0.04746471 0.058020127 0.069791846)
(0.071342983 0.076099835 0.094426338)
(0.080386896 0.080386896 0.098284781)
(0.080565696 0.082022325 0.099385732)
(0.077837446 0.082844054 0.099914842)
(0.07308254 0.083235647 0.10039526)
(0.064924829 0.083254819 0.1012504)
(0.0547674 0.082311352 0.10290445)
(0.026173661 0.078666683 0.10735664)
(0.022393186 0.060117594 0.11823291)
(0.047901246 0.058426351 0.070318741)
(0.072764868 0.076408493 0.095345118)
(0.082022324 0.080565697 0.099385732)
(0.08209107 0.08209107 0.10058633)
(0.079034357 0.08278917 0.10117075)
(0.073849601 0.083046152 0.1016762)
(0.065177508 0.082874311 0.10252571)
(0.054562411 0.081761359 0.10411176)
(0.025580575 0.077861915 0.10835956)
(0.022124821 0.059507502 0.11872215)
(0.048170231 0.057215205 0.070517097)
(0.073536798 0.074200936 0.095766098)
(0.082844053 0.077837446 0.099914842)
(0.082789169 0.079034357 0.10117075)
(0.079493317 0.079493317 0.10178136)
(0.074028853 0.079578896 0.10229333)
(0.065050897 0.079292786 0.10312868)
(0.054190299 0.078228383 0.10466148)
(0.025061257 0.074664516 0.10878657)
(0.021895724 0.057576211 0.1188928)
(0.048334938 0.05486183 0.070720007)
(0.073997452 0.070204929 0.096173934)
(0.083235646 0.073082539 0.10039526)
(0.083046152 0.073849601 0.1016762)
(0.079578895 0.074028853 0.10229333)
(0.073945082 0.073945082 0.1028053)
(0.064795614 0.073599367 0.10363414)
(0.053800407 0.072711758 0.10514197)
(0.024602026 0.069778122 0.1091946)
(0.021731453 0.054618444 0.11909626)
(0.048562096 0.050314903 0.071221409)
(0.074292742 0.063079723 0.096975325)
(0.083254818 0.064924828 0.1012504)
(0.08287431 0.065177507 0.10252571)
(0.079292786 0.065050896 0.10312868)
(0.073599367 0.064795613 0.10363414)
(0.064401878 0.064401877 0.10446523)
(0.053337008 0.063747354 0.10597685)
(0.024057972 0.061659933 0.10999068)
(0.021465423 0.049347333 0.11962692)
(0.048373727 0.044468543 0.072432211)
(0.073875866 0.053973629 0.098643546)
(0.082311351 0.054767399 0.10290445)
(0.081761359 0.05456241 0.10411176)
(0.078228383 0.054190298 0.10466148)
(0.072711758 0.053800406 0.10514197)
(0.063747354 0.053337008 0.10597685)
(0.052858669 0.052858668 0.10752499)
(0.023650598 0.051435673 0.11157535)
(0.021486485 0.04247759 0.12087703)
(0.048503208 0.023680493 0.076608545)
(0.071472889 0.02672931 0.10336883)
(0.078666682 0.026173661 0.10735664)
(0.077861914 0.025580574 0.10835956)
(0.074664516 0.025061257 0.10878657)
(0.069778123 0.024602025 0.1091946)
(0.061659934 0.024057972 0.10999068)
(0.051435674 0.023650597 0.11157535)
(0.022852473 0.022852473 0.11581984)
(0.020279477 0.020039335 0.12487405)
(0.041181735 0.022960445 0.091284039)
(0.055541931 0.022965205 0.11561883)
(0.060117593 0.022393185 0.11823291)
(0.059507502 0.02212482 0.11872215)
(0.057576211 0.021895723 0.1188928)
(0.054618444 0.021731453 0.11909626)
(0.049347334 0.021465422 0.11962692)
(0.042477591 0.021486485 0.12087703)
(0.020039336 0.020279476 0.12487405)
(0.017607536 0.017607535 0.1330212)
(0.018421375 0.018421375 0.03156755)
(0.034102047 0.027443234 0.051688006)
(0.04064206 0.029355847 0.055766003)
(0.041095384 0.0299123 0.056929102)
(0.039326979 0.03025129 0.057435412)
(0.035929429 0.030451614 0.057989113)
(0.029631284 0.030728011 0.059112121)
(0.021935207 0.030475352 0.061781338)
(-0.00042260841 0.030534162 0.067864056)
(0.0029526868 0.022775401 0.083742768)
(0.027443233 0.034102049 0.051688006)
(0.051304988 0.05130499 0.081524257)
(0.061422089 0.056275989 0.08812799)
(0.06189699 0.058235319 0.0903165)
(0.058613453 0.059294059 0.091408647)
(0.052627743 0.059908373 0.092495612)
(0.042356156 0.060258161 0.094325007)
(0.029882571 0.059581906 0.098022998)
(-0.00065548984 0.056244049 0.10481604)
(0.0010717908 0.038395071 0.1154468)
(0.029355846 0.040642062 0.055766004)
(0.056275988 0.06142209 0.08812799)
(0.067402125 0.067402126 0.095760005)
(0.067773224 0.069773879 0.098480979)
(0.063709458 0.070959869 0.099887766)
(0.056536121 0.071513933 0.10118729)
(0.044677455 0.071507725 0.10315586)
(0.030645102 0.07009688 0.10681191)
(-0.0016635284 0.064947725 0.11283357)
(0.00029466334 0.043318306 0.12030543)
(0.029912299 0.041095385 0.056929103)
(0.058235317 0.061896991 0.0903165)
(0.069773878 0.067773225 0.09848098)
(0.070025401 0.070025402 0.10149405)
(0.065480909 0.071055832 0.10306364)
(0.057654196 0.071429674 0.10443831)
(0.045026221 0.071160262 0.10638819)
(0.030340482 0.069502713 0.10985584)
(-0.0024501341 0.063978082 0.11531022)
(-3.7519693e-05 0.042558394 0.12148092)
(0.03025129 0.039326979 0.057435413)
(0.059294058 0.058613453 0.091408648)
(0.070959868 0.063709459 0.099887766)
(0.071055831 0.065480909 0.10306364)
(0.066166049 0.066166049 0.10471269)
(0.057923706 0.066293123 0.10610949)
(0.044849099 0.065863347 0.108019)
(0.029823299 0.064288456 0.11133977)
(-0.0031335654 0.059296745 0.1164481)
(-0.00031585926 0.039815837 0.12195102)
(0.030451614 0.035929428 0.057989114)
(0.059908371 0.052627743 0.092495613)
(0.071513931 0.05653612 0.10118729)
(0.071429673 0.057654195 0.10443831)
(0.066293122 0.057923706 0.10610949)
(0.057801446 0.057801446 0.10750633)
(0.044479705 0.057290374 0.10939386)
(0.02927314 0.055998849 0.11263977)
(-0.0037450288 0.05201981 0.11753619)
(-0.0005153485 0.035573525 0.12250604)
(0.030728011 0.029631282 0.059112121)
(0.06025816 0.042356154 0.094325007)
(0.071507724 0.044677454 0.10315586)
(0.071160261 0.045026219 0.10638819)
(0.065863347 0.044849097 0.108019)
(0.057290375 0.044479703 0.10939386)
(0.043908526 0.043908525 0.11128315)
(0.028621392 0.042986003 0.11453264)
(-0.0044628958 0.040344928 0.11932297)
(-0.00085052183 0.02829534 0.12366871)
(0.030475351 0.021935205 0.061781338)
(0.059581905 0.02988257 0.098022998)
(0.070096878 0.030645101 0.10681191)
(0.069502712 0.030340481 0.10985584)
(0.064288455 0.029823297 0.11133977)
(0.05599885 0.029273138 0.11263977)
(0.042986005 0.028621391 0.11453264)
(0.027982166 0.027982164 0.11786775)
(-0.0049497348 0.026416495 0.12273655)
(-0.00081983809 0.019374595 0.12633136)
(0.030534161 -0.00042261013 0.067864056)
(0.056244047 -0.00065549134 0.10481604)
(0.064947723 -0.0016635297 0.11283357)
(0.063978081 -0.0024501354 0.11531022)
(0.059296744 -0.0031335666 0.1164481)
(0.052019811 -0.00374503 0.11753619)
(0.040344929 -0.0044628971 0.11932297)
(0.026416497 -0.0049497361 0.12273655)
(-0.0055564459 -0.0055564474 0.12812348)
(-0.0020102211 -0.0046391141 0.13164539)
(0.022775401 0.0029526859 0.083742768)
(0.03839507 0.0010717899 0.1154468)
(0.043318304 0.00029466275 0.12030543)
(0.042558393 -3.7520051e-05 0.12148092)
(0.039815836 -0.0003158595 0.12195102)
(0.035573525 -0.00051534876 0.12250604)
(0.028295342 -0.00085052225 0.12366871)
(0.019374597 -0.00081983875 0.12633136)
(-0.0046391125 -0.002010222 0.13164539)
(-0.0013717531 -0.001371754 0.13597827)
(0.0095121368 0.0095121376 0.021145106)
(0.022392577 0.016376542 0.040130789)
(0.028275982 0.018188956 0.045351298)
(0.028600972 0.018776935 0.047191459)
(0.026404075 0.019138057 0.04809781)
(0.022298908 0.019346656 0.049113935)
(0.01502416 0.019636659 0.05093968)
(0.0066835669 0.019369077 0.055040748)
(-0.013633925 0.019353191 0.061848143)
(-0.0064943102 0.012229887 0.074574618)
(0.016376541 0.022392578 0.040130789)
(0.038288914 0.038288915 0.071889088)
(0.048379407 0.0436643 0.081313308)
(0.048807747 0.045899507 0.085025013)
(0.044676569 0.047114444 0.087025446)
(0.037226196 0.047805282 0.089019252)
(0.02496588 0.04816174 0.092037641)
(0.010990937 0.0473144 0.097728129)
(-0.017605253 0.043600875 0.10496158)
(-0.0097059711 0.026646591 0.10912866)
(0.018188956 0.028275984 0.045351298)
(0.043664299 0.048379408 0.081313308)
(0.055155239 0.05515524 0.092688458)
(0.05552587 0.05798198 0.097438795)
(0.050409991 0.059404603 0.10005642)
(0.041419795 0.060061552 0.10246284)
(0.027147436 0.060028021 0.10572447)
(0.011287156 0.058317998 0.11129855)
(-0.019175507 0.052436289 0.11706285)
(-0.010617868 0.031154548 0.11603318)
(0.018776935 0.028600973 0.04719146)
(0.045899506 0.048807747 0.085025013)
(0.05798198 0.05552587 0.097438795)
(0.05824608 0.058246081 0.10276971)
(0.052537474 0.059504771 0.10571307)
(0.042717926 0.059959854 0.10827038)
(0.027487066 0.059622836 0.11149172)
(0.010854402 0.057618221 0.11669976)
(-0.020092671 0.051294616 0.12138954)
(-0.010975823 0.030265446 0.11803281)
(0.019138058 0.026404076 0.048097811)
(0.047114444 0.044676569 0.087025447)
(0.059404603 0.050409991 0.10005642)
(0.05950477 0.052537474 0.10571307)
(0.053377064 0.053377064 0.10881837)
(0.043040428 0.053534678 0.11142287)
(0.027263825 0.053010386 0.11456495)
(0.010238549 0.051125073 0.11948906)
(-0.020858249 0.045510543 0.12351395)
(-0.011264664 0.026960848 0.1189205)
(0.019346657 0.022298907 0.049113936)
(0.047805281 0.037226196 0.089019253)
(0.060061551 0.041419795 0.10246284)
(0.059959853 0.042717926 0.10827038)
(0.053534678 0.043040428 0.11142287)
(0.042891143 0.042891143 0.11402753)
(0.026816322 0.04227498 0.11712289)
(0.0095878103 0.040767474 0.12189674)
(-0.021545016 0.036494447 0.12551062)
(-0.011472248 0.021864245 0.11993919)
(0.019636659 0.015024158 0.050939681)
(0.048161739 0.024965879 0.092037642)
(0.06002802 0.027147436 0.10572447)
(0.059622836 0.027487066 0.11149172)
(0.053010386 0.027263825 0.11456495)
(0.042274981 0.026816321 0.11712289)
(0.026137612 0.026137611 0.12021607)
(0.0088305921 0.025112007 0.12499004)
(-0.022341051 0.022573058 0.1284123)
(-0.011832408 0.013474503 0.12179001)
(0.019369076 0.0066835653 0.055040748)
(0.047314399 0.010990936 0.097728129)
(0.058317998 0.011287155 0.11129855)
(0.057618221 0.010854401 0.11669976)
(0.051125073 0.010238548 0.11948906)
(0.040767474 0.0095878096 0.12189674)
(0.025112007 0.0088305913 0.12499004)
(0.0081702487 0.0081702478 0.12991742)
(-0.022799018 0.0070115111 0.13349653)
(-0.011792221 0.0039048456 0.1257427)
(0.01935319 -0.013633927 0.061848144)
(0.043600874 -0.017605254 0.10496158)
(0.052436288 -0.019175508 0.11706285)
(0.051294616 -0.020092672 0.12138954)
(0.045510543 -0.02085825 0.12351395)
(0.036494448 -0.021545017 0.12551061)
(0.022573059 -0.022341052 0.1284123)
(0.007011512 -0.022799018 0.13349653)
(-0.022872144 -0.022872145 0.13807268)
(-0.01267403 -0.017831735 0.13088939)
(0.012229886 -0.0064943109 0.074574618)
(0.02664659 -0.0097059717 0.10912866)
(0.031154546 -0.010617868 0.11603318)
(0.030265445 -0.010975823 0.11803281)
(0.026960847 -0.011264663 0.11892049)
(0.021864246 -0.011472247 0.11993919)
(0.013474505 -0.011832408 0.12179001)
(0.0039048471 -0.011792221 0.1257427)
(-0.017831734 -0.01267403 0.13088939)
(-0.0091982167 -0.0091982175 0.12808399)
(0.0048744638 0.0048744646 0.014785136)
(0.014596323 0.0097077961 0.031688605)
(0.019430807 0.011256665 0.037592882)
(0.019506912 0.011815655 0.040055283)
(0.016990563 0.012167911 0.041408567)
(0.012470182 0.012368536 0.042933221)
(0.0048452175 0.012652586 0.045427011)
(-0.0032787399 0.012397209 0.050613964)
(-0.020064746 0.012360774 0.057244654)
(-0.010291932 0.0063420884 0.06563046)
(0.0097077955 0.014596324 0.031688605)
(0.02803928 0.028039281 0.063195476)
(0.037132883 0.03325115 0.074899338)
(0.037295516 0.035550736 0.080178166)
(0.032513764 0.036819255 0.083229663)
(0.024102666 0.037532573 0.086240918)
(0.010886464 0.037876628 0.090410853)
(-0.0031120163 0.036963107 0.097586208)
(-0.027190171 0.03332028 0.10391409)
(-0.014242073 0.018554698 0.10050088)
(0.011256665 0.019430809 0.037592883)
(0.03325115 0.037132884 0.074899338)
(0.043969942 0.043969943 0.089587365)
(0.044102942 0.046989227 0.096516547)
(0.038177997 0.048533122 0.10055977)
(0.027959708 0.049244913 0.10422298)
(0.012447263 0.049197038 0.10873683)
(-0.0035782844 0.047363717 0.11565321)
(-0.029351239 0.041404974 0.11967951)
(-0.015231444 0.022290743 0.10905341)
(0.011815655 0.019506913 0.040055284)
(0.035550735 0.037295516 0.080178166)
(0.046989226 0.044102943 0.096516548)
(0.047033325 0.047033325 0.10439183)
(0.040436151 0.048418164 0.10897055)
(0.029259097 0.04892369 0.1128808)
(0.012663279 0.048558015 0.11732284)
(-0.0041825067 0.046412274 0.12364583)
(-0.030370185 0.040005446 0.12599191)
(-0.015591201 0.021247296 0.11189743)
(0.012167912 0.016990564 0.041408567)
(0.036819254 0.032513764 0.083229663)
(0.048533121 0.038177997 0.10055977)
(0.048418164 0.040436151 0.10897055)
(0.041354453 0.041354453 0.11381955)
(0.029590132 0.041532556 0.11781032)
(0.012386675 0.040968971 0.12212318)
(-0.0048693097 0.03898133 0.12798934)
(-0.031166632 0.033437128 0.12928244)
(-0.015868921 0.017573845 0.11327887)
(0.012368537 0.012470182 0.042933222)
(0.037532572 0.024102665 0.086240918)
(0.049244912 0.027959707 0.10422298)
(0.04892369 0.029259097 0.1128808)
(0.041532556 0.029590131 0.11781032)
(0.029423661 0.029423661 0.12180151)
(0.011891521 0.028766224 0.12603489)
(-0.0055730042 0.027234969 0.13165524)
(-0.031875176 0.023293108 0.13229885)
(-0.016068575 0.011987088 0.11480794)
(0.012652587 0.0048452164 0.045427011)
(0.037876628 0.010886464 0.090410854)
(0.049197038 0.012447263 0.10873683)
(0.048558014 0.012663278 0.11732284)
(0.040968971 0.012386674 0.12212318)
(0.028766224 0.01189152 0.12603489)
(0.01117431 0.011174309 0.1302588)
(-0.0063624667 0.010208079 0.13587529)
(-0.032680404 0.0082792456 0.136242)
(-0.016425347 0.0031966628 0.11728425)
(0.012397209 -0.0032787413 0.050613965)
(0.036963106 -0.0031120169 0.097586209)
(0.047363716 -0.0035782849 0.11565321)
(0.046412273 -0.0041825072 0.12364583)
(0.03898133 -0.0048693101 0.12798934)
(0.027234969 -0.0055730047 0.13165523)
(0.010208079 -0.0063624672 0.13587529)
(-0.0069177905 -0.0069177911 0.14173634)
(-0.033034572 -0.0073032108 0.14239948)
(-0.016367242 -0.0060635763 0.12210639)
(0.012360773 -0.020064747 0.057244655)
(0.03332028 -0.027190172 0.10391409)
(0.041404973 -0.02935124 0.11967951)
(0.040005446 -0.030370185 0.12599191)
(0.033437128 -0.031166633 0.12928244)
(0.023293108 -0.031875176 0.13229885)
(0.0082792461 -0.032680404 0.136242)
(-0.0073032101 -0.033034572 0.14239948)
(-0.032430093 -0.032430094 0.14469487)
(-0.016890172 -0.023990146 0.12612038)
(0.0063420876 -0.010291933 0.06563046)
(0.018554697 -0.014242074 0.10050088)
(0.022290742 -0.015231444 0.10905341)
(0.021247296 -0.015591201 0.11189743)
(0.017573845 -0.015868921 0.11327887)
(0.011987088 -0.016068574 0.11480794)
(0.0031966638 -0.016425346 0.11728425)
(-0.006063575 -0.016367242 0.12210639)
(-0.023990145 -0.016890173 0.12612038)
(-0.011757541 -0.011757542 0.11656845)
(0.0024424949 0.0024424958 0.010780488)
(0.0093703209 0.0056847413 0.025607389)
(0.013062232 0.0069251654 0.031875297)
(0.012826684 0.0074207694 0.034873015)
(0.010089936 0.0077455136 0.036683405)
(0.0054002375 0.0079294397 0.038708623)
(-0.0020993249 0.0081980555 0.041761742)
(-0.0094503609 0.0079725456 0.047577996)
(-0.02234444 0.0079664231 0.053438218)
(-0.011111918 0.0031324089 0.057468145)
(0.0056847406 0.0093703223 0.025607389)
(0.020069268 0.020069269 0.055921466)
(0.027647583 0.02476116 0.069361342)
(0.027374128 0.026965928 0.076130489)
(0.022119848 0.028210313 0.080291767)
(0.013204689 0.02890966 0.084329917)
(-0.00011339133 0.029239089 0.089478408)
(-0.013079965 0.028357006 0.097444464)
(-0.031687501 0.025092005 0.10193612)
(-0.015310726 0.012952915 0.091282196)
(0.0069251655 0.013062234 0.031875297)
(0.024761159 0.027647584 0.069361342)
(0.034011613 0.034011614 0.086824616)
(0.033697837 0.036999053 0.095911917)
(0.027179948 0.038564651 0.10148571)
(0.016276977 0.039293971 0.10643406)
(0.00051814628 0.039253388 0.11200574)
(-0.01444806 0.037458967 0.11949327)
(-0.03438597 0.031915787 0.12077196)
(-0.01632684 0.015789098 0.10104776)
(0.0074207701 0.012826685 0.034873016)
(0.026965928 0.027374129 0.076130489)
(0.036999052 0.033697837 0.095911917)
(0.036605598 0.036605598 0.10636496)
(0.029361382 0.038021998 0.11271958)
(0.017414409 0.038552293 0.11802489)
(0.00050822534 0.038200663 0.12348148)
(-0.015262851 0.036105266 0.13010682)
(-0.035491643 0.030166032 0.12904134)
(-0.016674095 0.014561552 0.10468399)
(0.0077455146 0.010089936 0.036683405)
(0.028210313 0.022119849 0.080291767)
(0.038564651 0.027179948 0.10148571)
(0.038021997 0.029361382 0.11271958)
(0.030284527 0.030284528 0.11947371)
(0.017707796 0.030474224 0.12489927)
(0.00016474887 0.02992727 0.1301674)
(-0.016005668 0.028029809 0.1361355)
(-0.036288711 0.023082727 0.13358511)
(-0.016929638 0.010672661 0.10659234)
(0.0079294406 0.0054002369 0.038708624)
(0.028909659 0.013204689 0.084329917)
(0.03929397 0.016276976 0.10643406)
(0.038552293 0.017414409 0.11802489)
(0.030474224 0.017707796 0.12489927)
(0.0175322 0.0175322 0.13032567)
(-0.00035325128 0.016895255 0.13547546)
(-0.016725864 0.01551372 0.14108879)
(-0.036983257 0.012353839 0.13763121)
(-0.01711277 0.0048931711 0.1086241)
(0.0081980559 -0.0020993262 0.041761743)
(0.029239088 -0.00011339191 0.089478408)
(0.039253388 0.0005181458 0.11200574)
(0.038200662 0.00050822484 0.12348148)
(0.02992727 0.00016474835 0.1301674)
(0.016895256 -0.00035325179 0.13547546)
(-0.0010459508 -0.0010459513 0.140607)
(-0.017486868 -0.0018136069 0.14621694)
(-0.03774956 -0.002806722 0.14241533)
(-0.01744927 -0.0037674655 0.11159452)
(0.0079725454 -0.0094503624 0.047577996)
(0.028357005 -0.013079966 0.097444464)
(0.037458966 -0.014448061 0.11949327)
(0.036105266 -0.015262851 0.13010682)
(0.028029809 -0.016005669 0.1361355)
(0.015513721 -0.016725864 0.14108879)
(-0.0018136065 -0.017486868 0.14621694)
(-0.017839758 -0.017839758 0.15219243)
(-0.037956046 -0.017275139 0.14890519)
(-0.017371474 -0.012127387 0.11679483)
(0.0079664223 -0.022344441 0.053438218)
(0.025092004 -0.031687502 0.10193612)
(0.031915786 -0.03438597 0.12077196)
(0.030166032 -0.035491643 0.12904134)
(0.023082727 -0.036288711 0.13358511)
(0.012353839 -0.036983258 0.13763121)
(-0.0028067214 -0.037749561 0.14241533)
(-0.017275138 -0.037956047 0.14890519)
(-0.036679632 -0.036679632 0.14803407)
(-0.017591711 -0.025913682 0.1191918)
(0.003132408 -0.011111919 0.057468145)
(0.012952914 -0.015310727 0.091282196)
(0.015789097 -0.01632684 0.10104776)
(0.014561551 -0.016674094 0.10468399)
(0.010672661 -0.016929637 0.10659234)
(0.0048931715 -0.017112769 0.1086241)
(-0.0037674644 -0.01744927 0.11159452)
(-0.012127385 -0.017371474 0.11679483)
(-0.02591368 -0.017591712 0.1191918)
(-0.011806649 -0.011806649 0.10425392)
(0.0011631876 0.0011631886 0.0082983358)
(0.0058385683 0.0032514025 0.02134378)
(0.0084455043 0.0041986265 0.027778903)
(0.0078832998 0.004616189 0.031226423)
(0.0050174963 0.0049037603 0.033477103)
(0.00035795291 0.0050673367 0.03595589)
(-0.0066785495 0.0053169119 0.039420664)
(-0.012947093 0.0051333276 0.045426658)
(-0.022179795 0.0051855681 0.050145724)
(-0.010455401 0.0014311732 0.050192564)
(0.0032514017 0.0058385699 0.02134378)
(0.013933668 0.013933669 0.050178302)
(0.0197897 0.017917848 0.064903111)
(0.018977015 0.019918468 0.073029091)
(0.013413986 0.021083208 0.078289787)
(0.0043880049 0.021745558 0.083285112)
(-0.008373978 0.02206671 0.089159438)
(-0.019643939 0.021294484 0.0972223)
(-0.032800133 0.018586033 0.099295527)
(-0.014555469 0.0090507969 0.082234082)
(0.0041986265 0.0084455059 0.027778903)
(0.017917848 0.019789701 0.064903111)
(0.025338004 0.025338005 0.084629875)
(0.024429377 0.02811793 0.095755376)
(0.017514219 0.029624072 0.10287054)
(0.0064028812 0.030343276 0.10903453)
(-0.0088163696 0.030334613 0.1153766)
(-0.021919423 0.028713541 0.12266559)
(-0.035927893 0.023913109 0.12058353)
(-0.015556054 0.010992084 0.092818044)
(0.0046161896 0.007883301 0.031226423)
(0.019918468 0.018977015 0.073029091)
(0.028117929 0.024429378 0.095755376)
(0.027122809 0.02712281 0.10869657)
(0.019446579 0.028488556 0.11686065)
(0.0072464215 0.029023088 0.12349801)
(-0.0091291141 0.028726861 0.12966822)
(-0.022968848 0.026842818 0.13579358)
(-0.037108318 0.021748412 0.13068003)
(-0.015883251 0.0095641513 0.097158573)
(0.0049037612 0.0050174967 0.033477103)
(0.021083208 0.013413986 0.078289787)
(0.029624071 0.017514219 0.10287054)
(0.028488555 0.019446579 0.11686065)
(0.020307966 0.020307966 0.12556826)
(0.0074593603 0.020501694 0.13236964)
(-0.0095544394 0.020022934 0.13828442)
(-0.023760305 0.018376231 0.14353321)
(-0.037889602 0.014378447 0.13648284)
(-0.016112196 0.0055831999 0.099589791)
(0.0050673376 0.00035795234 0.03595589)
(0.021745558 0.0043880047 0.083285112)
(0.030343275 0.006402881 0.10903453)
(0.029023088 0.0072464213 0.12349801)
(0.020501693 0.00745936 0.13236964)
(0.007280941 0.0072809408 0.13917243)
(-0.010075967 0.0067193244 0.1449263)
(-0.024470405 0.0056271219 0.14970504)
(-0.03854777 0.0035240296 0.14148938)
(-0.016275234 -0.00015511619 0.10207723)
(0.0053169123 -0.0066785509 0.039420664)
(0.02206671 -0.0083739787 0.089159438)
(0.030334613 -0.0088163702 0.1153766)
(0.02872686 -0.0091291147 0.12966822)
(0.020022934 -0.00955444 0.13828442)
(0.0067193246 -0.010075967 0.1449263)
(-0.010691186 -0.010691187 0.15065434)
(-0.025156208 -0.011156481 0.15544015)
(-0.039243797 -0.011059912 0.14684654)
(-0.016582766 -0.0083156595 0.10538091)
(0.0051333274 -0.012947095 0.045426658)
(0.021294484 -0.01964394 0.0972223)
(0.02871354 -0.021919424 0.12266559)
(0.026842817 -0.022968848 0.13579358)
(0.018376231 -0.023760306 0.14353321)
(0.0056271221 -0.024470405 0.14970504)
(-0.011156481 -0.025156209 0.15544015)
(-0.025244422 -0.025244423 0.16074731)
(-0.039285056 -0.023709104 0.15297034)
(-0.016490133 -0.01546565 0.1105211)
(0.0051855672 -0.022179796 0.050145724)
(0.018586032 -0.032800134 0.099295527)
(0.023913108 -0.035927893 0.12058353)
(0.021748412 -0.037108318 0.13068003)
(0.014378447 -0.037889603 0.13648284)
(0.0035240299 -0.038547771 0.14148938)
(-0.011059911 -0.039243798 0.14684654)
(-0.023709104 -0.039285056 0.15297034)
(-0.037434673 -0.037434674 0.14851492)
(-0.016492363 -0.025392959 0.11112501)
(0.0014311722 -0.010455402 0.050192565)
(0.0090507955 -0.01455547 0.082234082)
(0.010992082 -0.015556054 0.092818044)
(0.0095641502 -0.015883251 0.097158573)
(0.0055831995 -0.016112195 0.099589791)
(-0.00015511569 -0.016275233 0.10207723)
(-0.0083156583 -0.016582765 0.10538091)
(-0.015465648 -0.016490133 0.1105211)
(-0.025392958 -0.016492364 0.11112501)
(-0.010731297 -0.010731298 0.092184231)
(0.00048529521 0.00048529629 0.0068365456)
(0.0034288997 0.0017716679 0.01847976)
(0.0050797073 0.0024666146 0.024978087)
(0.00421065 0.0028042485 0.028801149)
(0.0012986968 0.0030511608 0.031455909)
(-0.0031759357 0.003193877 0.034315072)
(-0.0095301584 0.0034237804 0.038028721)
(-0.014592599 0.0032883568 0.043852307)
(-0.020670136 0.0034069432 0.047227362)
(-0.0091649118 0.00056650525 0.043826354)
(0.0017716669 0.0034289014 0.01847976)
(0.0092498889 0.00924989 0.04590883)
(0.013382596 0.012461196 0.061580175)
(0.011994119 0.014192116 0.070906771)
(0.0062725251 0.015240953 0.077202009)
(-0.0025426676 0.015853302 0.083026355)
(-0.014281081 0.016175565 0.089336063)
(-0.023516183 0.015567673 0.096888055)
(-0.031775608 0.013491838 0.096240969)
(-0.012954446 0.006312077 0.073786171)
(0.0024666144 0.0050797092 0.024978087)
(0.012461195 0.013382598 0.061580175)
(0.01793369 0.017933691 0.083134352)
(0.016353132 0.020382064 0.096121516)
(0.0092183616 0.021767161 0.10471114)
(-0.0017046915 0.02245698 0.11194631)
(-0.015808292 0.022503346 0.1187249)
(-0.026608494 0.021155178 0.12514068)
(-0.035199421 0.017279474 0.11940537)
(-0.013907628 0.0074378756 0.08486319)
(0.002804249 0.0042106514 0.028801149)
(0.014192116 0.011994119 0.070906771)
(0.020382063 0.016353133 0.096121515)
(0.018689461 0.018689461 0.11138199)
(0.010773465 0.019938137 0.12129805)
(-0.0012476774 0.020461265 0.12912207)
(-0.016469354 0.020256279 0.13565752)
(-0.027897527 0.018705267 0.14058556)
(-0.036441035 0.014675484 0.13113773)
(-0.014211301 0.0058121218 0.089804362)
(0.0030511615 0.0012986972 0.031455909)
(0.015240952 0.0062725254 0.077202009)
(0.02176716 0.0092183618 0.10471114)
(0.019938137 0.010773466 0.12129805)
(0.011517929 0.011517929 0.13190962)
(-0.0011505706 0.011709542 0.13994285)
(-0.016989115 0.011342168 0.14615006)
(-0.028733685 0.010065858 0.1499723)
(-0.03719866 0.007211597 0.13813733)
(-0.014413155 0.0018384249 0.092724571)
(0.0031938777 -0.0031759363 0.034315072)
(0.015853301 -0.0025426679 0.083026355)
(0.022456979 -0.0017046917 0.11194631)
(0.020461265 -0.0012476777 0.12912207)
(0.011709542 -0.0011505709 0.13994285)
(-0.0013271192 -0.0013271195 0.14797819)
(-0.017499847 -0.0017691133 0.15398074)
(-0.02941544 -0.0024737414 0.1572187)
(-0.037807941 -0.0033989897 0.14397636)
(-0.01455562 -0.0036828508 0.095594285)
(0.0034237807 -0.0095301599 0.038028721)
(0.016175564 -0.014281081 0.089336063)
(0.022503345 -0.015808292 0.1187249)
(0.020256278 -0.016469355 0.13565752)
(0.011342168 -0.016989116 0.14615006)
(-0.001769113 -0.017499848 0.15398074)
(-0.017997206 -0.017997207 0.15995399)
(-0.029993611 -0.018096107 0.16322443)