/*--------------------------------*- C++ -*----------------------------------*\
| =========                 |                                                 |
| \\      /  F ield         | OpenFOAM: The Open Source CFD Toolbox           |
|  \\    /   O peration     | Version:  dev                                   |
|   \\  /    A nd           | Web:      www.OpenFOAM.org                      |
|    \\/     M anipulation  |                                                 |
\*---------------------------------------------------------------------------*/
FoamFile
{
    version     2.0;
    format      ascii;
    class       volScalarField;
    location    "84.995";
    object      A_0;
}
// * * * * * * * * * * * * * * * * * * * * * * * * * * * * * * * * * * * * * //

dimensions      [0 0 0 0 1 0 0];

internalField   nonuniform List<scalar> 
10000
(
2.1030388e-23
2.1009318e-23
2.0997809e-23
2.0991298e-23
2.0987794e-23
2.0986161e-23
2.09858e-23
2.0986558e-23
2.0988767e-23
2.0993162e-23
2.1009318e-23
2.0988331e-23
2.097685e-23
2.0970353e-23
2.0966859e-23
2.0965239e-23
2.09649e-23
2.0965708e-23
2.0968049e-23
2.0972818e-23
2.0997809e-23
2.097685e-23
2.0965388e-23
2.0958903e-23
2.0955421e-23
2.0953815e-23
2.0953504e-23
2.0954364e-23
2.0956795e-23
2.0961694e-23
2.0991298e-23
2.0970353e-23
2.0958903e-23
2.0952428e-23
2.0948957e-23
2.0947366e-23
2.0947077e-23
2.0947973e-23
2.0950455e-23
2.0955404e-23
2.0987794e-23
2.0966859e-23
2.0955421e-23
2.0948957e-23
2.0945496e-23
2.0943917e-23
2.0943644e-23
2.0944562e-23
2.0947071e-23
2.095204e-23
2.0986161e-23
2.0965239e-23
2.0953815e-23
2.0947366e-23
2.0943917e-23
2.0942349e-23
2.0942087e-23
2.0943019e-23
2.0945541e-23
2.0950519e-23
2.09858e-23
2.09649e-23
2.0953504e-23
2.0947077e-23
2.0943644e-23
2.0942087e-23
2.0941835e-23
2.0942774e-23
2.0945304e-23
2.0950287e-23
2.0986558e-23
2.0965708e-23
2.0954364e-23
2.0947973e-23
2.0944562e-23
2.0943019e-23
2.0942774e-23
2.094372e-23
2.0946254e-23
2.0951241e-23
2.0988767e-23
2.0968049e-23
2.0956795e-23
2.0950455e-23
2.0947071e-23
2.0945541e-23
2.0945304e-23
2.0946254e-23
2.0948793e-23
2.0953785e-23
2.0993162e-23
2.0972818e-23
2.0961694e-23
2.0955404e-23
2.095204e-23
2.0950519e-23
2.0950287e-23
2.0951241e-23
2.0953785e-23
2.0958791e-23
6.958473e-23
6.9517711e-23
6.9480031e-23
6.9458664e-23
6.9447159e-23
6.9441793e-23
6.9440601e-23
6.9443077e-23
6.9450319e-23
6.9465242e-23
6.9517711e-23
6.9450948e-23
6.9413361e-23
6.9392038e-23
6.9380565e-23
6.9375239e-23
6.9374121e-23
6.9376766e-23
6.9384441e-23
6.9400608e-23
6.9480031e-23
6.9413361e-23
6.9375834e-23
6.9354552e-23
6.9343115e-23
6.933784e-23
6.9336812e-23
6.9339626e-23
6.9347603e-23
6.9364197e-23
6.9458664e-23
6.9392038e-23
6.9354552e-23
6.9333304e-23
6.9321903e-23
6.9316675e-23
6.9315722e-23
6.9318655e-23
6.93268e-23
6.9343558e-23
6.9447159e-23
6.9380565e-23
6.9343115e-23
6.9321903e-23
6.9310536e-23
6.9305348e-23
6.9304448e-23
6.9307455e-23
6.9315686e-23
6.9332513e-23
6.9441793e-23
6.9375239e-23
6.933784e-23
6.9316675e-23
6.9305348e-23
6.9300195e-23
6.9299333e-23
6.9302383e-23
6.9310659e-23
6.9327516e-23
6.9440601e-23
6.9374121e-23
6.9336812e-23
6.9315722e-23
6.9304448e-23
6.9299333e-23
6.9298501e-23
6.9301577e-23
6.9309877e-23
6.932675e-23
6.9443077e-23
6.9376766e-23
6.9339626e-23
6.9318655e-23
6.9307455e-23
6.9302383e-23
6.9301577e-23
6.9304673e-23
6.9312989e-23
6.9329873e-23
6.9450319e-23
6.9384441e-23
6.9347603e-23
6.93268e-23
6.9315686e-23
6.9310659e-23
6.9309877e-23
6.9312989e-23
6.9321319e-23
6.9338221e-23
6.9465242e-23
6.9400608e-23
6.9364197e-23
6.9343558e-23
6.9332513e-23
6.9327516e-23
6.932675e-23
6.9329873e-23
6.9338221e-23
6.9355172e-23
1.4007226e-22
1.3994183e-22
1.3986738e-22
1.3982503e-22
1.3980219e-22
1.3979153e-22
1.3978915e-22
1.3979401e-22
1.3980831e-22
1.3983871e-22
1.3994183e-22
1.398119e-22
1.3973762e-22
1.3969536e-22
1.3967259e-22
1.39662e-22
1.3965977e-22
1.3966497e-22
1.3968014e-22
1.3971303e-22
1.3986738e-22
1.3973762e-22
1.3966347e-22
1.3962128e-22
1.3959858e-22
1.395881e-22
1.3958605e-22
1.3959159e-22
1.3960736e-22
1.3964111e-22
1.3982503e-22
1.3969536e-22
1.3962128e-22
1.3957917e-22
1.3955654e-22
1.3954615e-22
1.3954425e-22
1.3955003e-22
1.3956613e-22
1.3960022e-22
1.3980219e-22
1.3967259e-22
1.3959858e-22
1.3955654e-22
1.3953398e-22
1.3952367e-22
1.3952187e-22
1.395278e-22
1.3954408e-22
1.395783e-22
1.3979153e-22
1.39662e-22
1.395881e-22
1.3954615e-22
1.3952367e-22
1.3951344e-22
1.3951171e-22
1.3951773e-22
1.3953409e-22
1.3956838e-22
1.3978915e-22
1.3965977e-22
1.3958605e-22
1.3954425e-22
1.3952187e-22
1.3951171e-22
1.3951005e-22
1.3951612e-22
1.3953253e-22
1.3956684e-22
1.3979401e-22
1.3966497e-22
1.3959159e-22
1.3955003e-22
1.395278e-22
1.3951773e-22
1.3951612e-22
1.3952223e-22
1.3953867e-22
1.3957301e-22
1.3980831e-22
1.3968014e-22
1.3960736e-22
1.3956613e-22
1.3954408e-22
1.3953409e-22
1.3953253e-22
1.3953867e-22
1.3955514e-22
1.3958952e-22
1.3983871e-22
1.3971303e-22
1.3964111e-22
1.3960022e-22
1.395783e-22
1.3956838e-22
1.3956684e-22
1.3957301e-22
1.3958952e-22
1.3962399e-22
2.5577499e-22
2.5554465e-22
2.554119e-22
2.5533615e-22
2.5529523e-22
2.552761e-22
2.5527178e-22
2.5528039e-22
2.5530573e-22
2.5536022e-22
2.5554465e-22
2.5531516e-22
2.5518273e-22
2.5510713e-22
2.5506633e-22
2.5504734e-22
2.5504329e-22
2.5505252e-22
2.5507943e-22
2.5513848e-22
2.554119e-22
2.5518273e-22
2.5505051e-22
2.5497506e-22
2.5493438e-22
2.5491558e-22
2.5491185e-22
2.549217e-22
2.5494971e-22
2.5501031e-22
2.5533615e-22
2.5510713e-22
2.5497506e-22
2.5489972e-22
2.5485918e-22
2.5484054e-22
2.5483709e-22
2.5484736e-22
2.5487598e-22
2.5493718e-22
2.5529523e-22
2.5506633e-22
2.5493438e-22
2.5485918e-22
2.5481876e-22
2.5480026e-22
2.54797e-22
2.5480754e-22
2.5483648e-22
2.5489793e-22
2.552761e-22
2.5504734e-22
2.5491558e-22
2.5484054e-22
2.5480026e-22
2.547819e-22
2.5477878e-22
2.5478948e-22
2.5481857e-22
2.5488013e-22
2.5527178e-22
2.5504329e-22
2.5491185e-22
2.5483709e-22
2.54797e-22
2.5477878e-22
2.5477576e-22
2.5478656e-22
2.5481574e-22
2.5487736e-22
2.5528039e-22
2.5505252e-22
2.549217e-22
2.5484736e-22
2.5480754e-22
2.5478948e-22
2.5478656e-22
2.5479742e-22
2.5482666e-22
2.5488832e-22
2.5530573e-22
2.5507943e-22
2.5494971e-22
2.5487598e-22
2.5483648e-22
2.5481857e-22
2.5481574e-22
2.5482666e-22
2.5485595e-22
2.5491768e-22
2.5536022e-22
2.5513848e-22
2.5501031e-22
2.5493718e-22
2.5489793e-22
2.5488013e-22
2.5487736e-22
2.5488832e-22
2.5491768e-22
2.5497958e-22
4.567783e-22
4.5638057e-22
4.5614982e-22
4.5601771e-22
4.5594623e-22
4.5591275e-22
4.5590511e-22
4.5591993e-22
4.5596356e-22
4.5605744e-22
4.5638057e-22
4.559843e-22
4.5575409e-22
4.5562226e-22
4.5555097e-22
4.5551774e-22
4.5551057e-22
4.5552648e-22
4.5557292e-22
4.5567489e-22
4.5614982e-22
4.5575409e-22
4.5552425e-22
4.5539266e-22
4.553216e-22
4.5528869e-22
4.5528211e-22
4.5529911e-22
4.5534749e-22
4.5545223e-22
4.5601771e-22
4.5562226e-22
4.5539266e-22
4.5526128e-22
4.5519044e-22
4.5515784e-22
4.5515174e-22
4.551695e-22
4.5521897e-22
4.5532477e-22
4.5594623e-22
4.5555097e-22
4.553216e-22
4.5519044e-22
4.5511983e-22
4.5508748e-22
4.5508172e-22
4.5509995e-22
4.5514997e-22
4.5525622e-22
4.5591275e-22
4.5551774e-22
4.5528869e-22
4.5515784e-22
4.5508748e-22
4.5505536e-22
4.5504984e-22
4.5506835e-22
4.5511866e-22
4.552251e-22
4.5590511e-22
4.5551057e-22
4.5528211e-22
4.5515174e-22
4.5508172e-22
4.5504984e-22
4.5504451e-22
4.5506319e-22
4.5511365e-22
4.5522019e-22
4.5591993e-22
4.5552648e-22
4.5529911e-22
4.551695e-22
4.5509995e-22
4.5506835e-22
4.5506319e-22
4.55082e-22
4.5513256e-22
4.5523917e-22
4.5596356e-22
4.5557292e-22
4.5534749e-22
4.5521897e-22
4.5514997e-22
4.5511866e-22
4.5511365e-22
4.5513256e-22
4.5518321e-22
4.5528993e-22
4.5605744e-22
4.5567489e-22
4.5545223e-22
4.5532477e-22
4.5525622e-22
4.552251e-22
4.5522019e-22
4.5523917e-22
4.5528993e-22
4.5539696e-22
8.154107e-22
8.147245e-22
8.1432424e-22
8.1409439e-22
8.1396977e-22
8.139113e-22
8.1389782e-22
8.1392323e-22
8.1399804e-22
8.1415831e-22
8.147245e-22
8.140408e-22
8.1364148e-22
8.1341209e-22
8.132878e-22
8.1322977e-22
8.1321713e-22
8.1324448e-22
8.1332427e-22
8.1349889e-22
8.1432424e-22
8.1364148e-22
8.1324278e-22
8.1301382e-22
8.1288994e-22
8.1283248e-22
8.1282086e-22
8.1285014e-22
8.1293338e-22
8.1311291e-22
8.1409439e-22
8.1341209e-22
8.1301382e-22
8.1278523e-22
8.1266174e-22
8.1260481e-22
8.1259405e-22
8.1262468e-22
8.1270983e-22
8.1289124e-22
8.1396977e-22
8.132878e-22
8.1288994e-22
8.1266174e-22
8.1253864e-22
8.1248216e-22
8.12472e-22
8.1250346e-22
8.125896e-22
8.127718e-22
8.139113e-22
8.1322977e-22
8.1283248e-22
8.1260481e-22
8.1248216e-22
8.1242609e-22
8.1241635e-22
8.124483e-22
8.1253495e-22
8.127175e-22
8.1389782e-22
8.1321713e-22
8.1282086e-22
8.1259405e-22
8.12472e-22
8.1241635e-22
8.1240695e-22
8.1243921e-22
8.1252612e-22
8.1270885e-22
8.1392323e-22
8.1324448e-22
8.1285014e-22
8.1262468e-22
8.1250346e-22
8.124483e-22
8.1243921e-22
8.1247168e-22
8.1255877e-22
8.1274162e-22
8.1399804e-22
8.1332427e-22
8.1293338e-22
8.1270983e-22
8.125896e-22
8.1253495e-22
8.1252612e-22
8.1255877e-22
8.1264601e-22
8.1282905e-22
8.1415831e-22
8.1349889e-22
8.1311291e-22
8.1289124e-22
8.127718e-22
8.127175e-22
8.1270885e-22
8.1274162e-22
8.1282905e-22
8.1301263e-22
1.4652305e-21
1.4640393e-21
1.4633411e-21
1.462939e-21
1.4627205e-21
1.4626179e-21
1.4625939e-21
1.4626377e-21
1.4627666e-21
1.4630408e-21
1.4640393e-21
1.4628524e-21
1.4621558e-21
1.4617545e-21
1.4615366e-21
1.4614347e-21
1.4614123e-21
1.4614595e-21
1.4615973e-21
1.4618972e-21
1.4633411e-21
1.4621558e-21
1.4614604e-21
1.4610598e-21
1.4608426e-21
1.4607417e-21
1.4607211e-21
1.4607718e-21
1.4609157e-21
1.4612244e-21
1.462939e-21
1.4617545e-21
1.4610598e-21
1.4606598e-21
1.4604434e-21
1.4603434e-21
1.4603244e-21
1.4603774e-21
1.4605247e-21
1.4608368e-21
1.4627205e-21
1.4615366e-21
1.4608426e-21
1.4604434e-21
1.4602276e-21
1.4601285e-21
1.4601105e-21
1.460165e-21
1.4603141e-21
1.4606275e-21
1.4626179e-21
1.4614347e-21
1.4607417e-21
1.4603434e-21
1.4601285e-21
1.4600301e-21
1.4600128e-21
1.4600682e-21
1.4602182e-21
1.4605322e-21
1.4625939e-21
1.4614123e-21
1.4607211e-21
1.4603244e-21
1.4601105e-21
1.4600128e-21
1.4599961e-21
1.4600521e-21
1.4602025e-21
1.4605169e-21
1.4626377e-21
1.4614595e-21
1.4607718e-21
1.4603774e-21
1.460165e-21
1.4600682e-21
1.4600521e-21
1.4601085e-21
1.4602592e-21
1.4605738e-21
1.4627666e-21
1.4615973e-21
1.4609157e-21
1.4605247e-21
1.4603141e-21
1.4602182e-21
1.4602025e-21
1.4602592e-21
1.4604102e-21
1.4607251e-21
1.4630408e-21
1.4618972e-21
1.4612244e-21
1.4608368e-21
1.4606275e-21
1.4605322e-21
1.4605169e-21
1.4605738e-21
1.4607251e-21
1.461041e-21
2.6563752e-21
2.6542898e-21
2.653062e-21
2.6523527e-21
2.6519666e-21
2.6517849e-21
2.6517421e-21
2.6518182e-21
2.6520419e-21
2.6525145e-21
2.6542898e-21
2.6522118e-21
2.6509869e-21
2.6502789e-21
2.6498939e-21
2.6497136e-21
2.6496735e-21
2.6497558e-21
2.6499954e-21
2.6505143e-21
2.653062e-21
2.6509869e-21
2.6497638e-21
2.6490572e-21
2.6486734e-21
2.6484949e-21
2.648458e-21
2.6485465e-21
2.6487972e-21
2.6493318e-21
2.6523527e-21
2.6502789e-21
2.6490572e-21
2.6483518e-21
2.6479692e-21
2.6477924e-21
2.6477583e-21
2.647851e-21
2.6481079e-21
2.6486485e-21
2.6519666e-21
2.6498939e-21
2.6486734e-21
2.6479692e-21
2.6475879e-21
2.6474125e-21
2.6473803e-21
2.6474758e-21
2.6477357e-21
2.6482789e-21
2.6517849e-21
2.6497136e-21
2.6484949e-21
2.6477924e-21
2.6474125e-21
2.6472384e-21
2.6472075e-21
2.6473045e-21
2.6475661e-21
2.6481104e-21
2.6517421e-21
2.6496735e-21
2.648458e-21
2.6477583e-21
2.6473803e-21
2.6472075e-21
2.6471778e-21
2.6472757e-21
2.6475382e-21
2.648083e-21
2.6518182e-21
2.6497558e-21
2.6485465e-21
2.647851e-21
2.6474758e-21
2.6473045e-21
2.6472757e-21
2.6473744e-21
2.6476374e-21
2.6481826e-21
2.6520419e-21
2.6499954e-21
2.6487972e-21
2.6481079e-21
2.6477357e-21
2.6475661e-21
2.6475382e-21
2.6476374e-21
2.6479009e-21
2.6484467e-21
2.6525145e-21
2.6505143e-21
2.6493318e-21
2.6486485e-21
2.6482789e-21
2.6481104e-21
2.648083e-21
2.6481826e-21
2.6484467e-21
2.6489941e-21
4.8625129e-21
4.8588283e-21
4.8566494e-21
4.8553869e-21
4.8546985e-21
4.8543738e-21
4.8542967e-21
4.8544301e-21
4.854822e-21
4.8556436e-21
4.8588283e-21
4.8551567e-21
4.8529827e-21
4.8517227e-21
4.8510361e-21
4.850714e-21
4.8506417e-21
4.8507863e-21
4.8512072e-21
4.8521128e-21
4.8566494e-21
4.8529827e-21
4.8508121e-21
4.8495544e-21
4.84887e-21
4.8485512e-21
4.8484848e-21
4.8486406e-21
4.8490815e-21
4.8500158e-21
4.8553869e-21
4.8517227e-21
4.8495544e-21
4.8482988e-21
4.8476167e-21
4.8473009e-21
4.8472394e-21
4.8474031e-21
4.8478551e-21
4.8488003e-21
4.8546985e-21
4.8510361e-21
4.84887e-21
4.8476167e-21
4.8469368e-21
4.8466236e-21
4.8465656e-21
4.8467341e-21
4.8471918e-21
4.8481416e-21
4.8543738e-21
4.850714e-21
4.8485512e-21
4.8473009e-21
4.8466236e-21
4.8463127e-21
4.8462571e-21
4.8464284e-21
4.8468891e-21
4.8478409e-21
4.8542967e-21
4.8506417e-21
4.8484848e-21
4.8472394e-21
4.8465656e-21
4.8462571e-21
4.8462035e-21
4.8463766e-21
4.8468388e-21
4.8477916e-21
4.8544301e-21
4.8507863e-21
4.8486406e-21
4.8474031e-21
4.8467341e-21
4.8464284e-21
4.8463766e-21
4.8465509e-21
4.8470141e-21
4.8479676e-21
4.854822e-21
4.8512072e-21
4.8490815e-21
4.8478551e-21
4.8471918e-21
4.8468891e-21
4.8468388e-21
4.8470141e-21
4.8474781e-21
4.8484326e-21
4.8556436e-21
4.8521128e-21
4.8500158e-21
4.8488003e-21
4.8481416e-21
4.8478409e-21
4.8477916e-21
4.8479676e-21
4.8484326e-21
4.8493898e-21
8.9896057e-21
8.9830333e-21
8.9791299e-21
8.9768617e-21
8.9756225e-21
8.9750372e-21
8.9748968e-21
8.9751331e-21
8.9758261e-21
8.9772677e-21
8.9830333e-21
8.9764841e-21
8.9725893e-21
8.9703255e-21
8.9690896e-21
8.9685089e-21
8.9683774e-21
8.9686342e-21
8.9693803e-21
8.9709761e-21
8.9791299e-21
8.9725893e-21
8.9687005e-21
8.9664409e-21
8.9652091e-21
8.9646343e-21
8.9645136e-21
8.9647909e-21
8.9655737e-21
8.967222e-21
8.9768617e-21
8.9703255e-21
8.9664409e-21
8.9641851e-21
8.9629573e-21
8.9623881e-21
8.9622764e-21
8.962568e-21
8.9633711e-21
8.9650395e-21
8.9756225e-21
8.9690896e-21
8.9652091e-21
8.9629573e-21
8.9617336e-21
8.9611691e-21
8.9610637e-21
8.9613641e-21
8.9621777e-21
8.9638545e-21
8.9750372e-21
8.9685089e-21
8.9646343e-21
8.9623881e-21
8.9611691e-21
8.9606088e-21
8.960508e-21
8.9608135e-21
8.9616324e-21
8.9633129e-21
8.9748968e-21
8.9683774e-21
8.9645136e-21
8.9622764e-21
8.9610637e-21
8.960508e-21
8.9604106e-21
8.9607194e-21
8.9615411e-21
8.9632235e-21
8.9751331e-21
8.9686342e-21
8.9647909e-21
8.962568e-21
8.9613641e-21
8.9608135e-21
8.9607194e-21
8.9610304e-21
8.9618539e-21
8.9635375e-21
8.9758261e-21
8.9693803e-21
8.9655737e-21
8.9633711e-21
8.9621777e-21
8.9616324e-21
8.9615411e-21
8.9618539e-21
8.9626791e-21
8.9643643e-21
8.9772677e-21
8.9709761e-21
8.967222e-21
8.9650395e-21
8.9638545e-21
8.9633129e-21
8.9632235e-21
8.9635375e-21
8.9643643e-21
8.9660544e-21
1.6787306e-20
1.677547e-20
1.676841e-20
1.6764296e-20
1.6762044e-20
1.6760979e-20
1.6760721e-20
1.6761144e-20
1.6762381e-20
1.6764935e-20
1.677547e-20
1.6763675e-20
1.6756631e-20
1.6752525e-20
1.6750279e-20
1.6749222e-20
1.674898e-20
1.6749441e-20
1.6750777e-20
1.6753616e-20
1.676841e-20
1.6756631e-20
1.6749597e-20
1.6745498e-20
1.674326e-20
1.6742214e-20
1.6741993e-20
1.6742491e-20
1.6743895e-20
1.6746832e-20
1.6764296e-20
1.6752525e-20
1.6745498e-20
1.6741407e-20
1.6739176e-20
1.673814e-20
1.6737935e-20
1.673846e-20
1.6739901e-20
1.6742875e-20
1.6762044e-20
1.6750279e-20
1.674326e-20
1.6739176e-20
1.6736952e-20
1.6735925e-20
1.6735732e-20
1.6736273e-20
1.6737734e-20
1.6740723e-20
1.6760979e-20
1.6749222e-20
1.6742214e-20
1.673814e-20
1.6735925e-20
1.6734906e-20
1.6734721e-20
1.6735272e-20
1.6736742e-20
1.6739739e-20
1.6760721e-20
1.674898e-20
1.6741993e-20
1.6737935e-20
1.6735732e-20
1.6734721e-20
1.6734543e-20
1.67351e-20
1.6736575e-20
1.6739575e-20
1.6761144e-20
1.6749441e-20
1.6742491e-20
1.673846e-20
1.6736273e-20
1.6735272e-20
1.67351e-20
1.673566e-20
1.6737139e-20
1.6740141e-20
1.6762381e-20
1.6750777e-20
1.6743895e-20
1.6739901e-20
1.6737734e-20
1.6736742e-20
1.6736575e-20
1.6737139e-20
1.6738621e-20
1.6741626e-20
1.6764935e-20
1.6753616e-20
1.6746832e-20
1.6742875e-20
1.6740723e-20
1.6739739e-20
1.6739575e-20
1.6740141e-20
1.6741626e-20
1.6744639e-20
3.1667287e-20
3.1645763e-20
3.1632871e-20
3.1625338e-20
3.1621207e-20
3.161925e-20
3.1618773e-20
3.1619535e-20
3.1621767e-20
3.1626336e-20
3.1645763e-20
3.1624315e-20
3.1611451e-20
3.1603932e-20
3.1599812e-20
3.159787e-20
3.1597423e-20
3.1598257e-20
3.1600673e-20
3.1605776e-20
3.1632871e-20
3.1611451e-20
3.1598606e-20
3.1591101e-20
3.1586995e-20
3.1585073e-20
3.1584664e-20
3.1585568e-20
3.158811e-20
3.1593395e-20
3.1625338e-20
3.1603932e-20
3.1591101e-20
3.1583608e-20
3.1579516e-20
3.1577614e-20
3.1577235e-20
3.1578189e-20
3.1580801e-20
3.1586155e-20
3.1621207e-20
3.1599812e-20
3.1586995e-20
3.1579516e-20
3.1575437e-20
3.1573551e-20
3.1573194e-20
3.1574178e-20
3.1576826e-20
3.1582209e-20
3.161925e-20
3.159787e-20
3.1585073e-20
3.1577614e-20
3.1573551e-20
3.157168e-20
3.1571338e-20
3.157234e-20
3.1575006e-20
3.1580402e-20
3.1618773e-20
3.1597423e-20
3.1584664e-20
3.1577235e-20
3.1573194e-20
3.1571338e-20
3.1571009e-20
3.1572021e-20
3.1574698e-20
3.15801e-20
3.1619535e-20
3.1598257e-20
3.1585568e-20
3.1578189e-20
3.1574178e-20
3.157234e-20
3.1572021e-20
3.1573042e-20
3.1575724e-20
3.1581131e-20
3.1621767e-20
3.1600673e-20
3.158811e-20
3.1580801e-20
3.1576826e-20
3.1575006e-20
3.1574698e-20
3.1575724e-20
3.1578412e-20
3.1583824e-20
3.1626336e-20
3.1605776e-20
3.1593395e-20
3.1586155e-20
3.1582209e-20
3.1580402e-20
3.15801e-20
3.1581131e-20
3.1583824e-20
3.1589251e-20
6.0346212e-20
6.0306693e-20
6.0282923e-20
6.0268995e-20
6.0261343e-20
6.0257713e-20
6.0256821e-20
6.0258213e-20
6.0262278e-20
6.0270532e-20
6.0306693e-20
6.0267311e-20
6.0243592e-20
6.022969e-20
6.0222059e-20
6.0218457e-20
6.0217623e-20
6.0219148e-20
6.022356e-20
6.0232823e-20
6.0282923e-20
6.0243592e-20
6.0219909e-20
6.0206032e-20
6.0198427e-20
6.0194864e-20
6.0194099e-20
6.0195758e-20
6.0200408e-20
6.0210013e-20
6.0268995e-20
6.022969e-20
6.0206032e-20
6.0192179e-20
6.01846e-20
6.0181073e-20
6.0180366e-20
6.0182117e-20
6.0186899e-20
6.0196636e-20
6.0261343e-20
6.0222059e-20
6.0198427e-20
6.01846e-20
6.0177046e-20
6.0173549e-20
6.0172884e-20
6.0174691e-20
6.0179542e-20
6.0189333e-20
6.0257713e-20
6.0218457e-20
6.0194864e-20
6.0181073e-20
6.0173549e-20
6.017008e-20
6.0169443e-20
6.0171284e-20
6.0176169e-20
6.0185984e-20
6.0256821e-20
6.0217623e-20
6.0194099e-20
6.0180366e-20
6.0172884e-20
6.0169443e-20
6.016883e-20
6.0170691e-20
6.0175594e-20
6.0185422e-20
6.0258213e-20
6.0219148e-20
6.0195758e-20
6.0182117e-20
6.0174691e-20
6.0171284e-20
6.0170691e-20
6.0172568e-20
6.0177482e-20
6.0187317e-20
6.0262278e-20
6.022356e-20
6.0200408e-20
6.0186899e-20
6.0179542e-20
6.0176169e-20
6.0175594e-20
6.0177482e-20
6.0182406e-20
6.0192251e-20
6.0270532e-20
6.0232823e-20
6.0210013e-20
6.0196636e-20
6.0189333e-20
6.0185984e-20
6.0185422e-20
6.0187317e-20
6.0192251e-20
6.0202123e-20
1.1617515e-19
1.1610189e-19
1.1605763e-19
1.1603164e-19
1.1601733e-19
1.1601053e-19
1.1600885e-19
1.1601141e-19
1.1601889e-19
1.1603395e-19
1.1610189e-19
1.1602887e-19
1.1598471e-19
1.1595876e-19
1.1594449e-19
1.1593775e-19
1.1593617e-19
1.1593899e-19
1.1594713e-19
1.1596411e-19
1.1605763e-19
1.1598471e-19
1.1594062e-19
1.1591472e-19
1.159005e-19
1.1589383e-19
1.1589239e-19
1.1589546e-19
1.1590405e-19
1.1592169e-19
1.1603164e-19
1.1595876e-19
1.1591472e-19
1.1588886e-19
1.1587469e-19
1.1586808e-19
1.1586675e-19
1.1587e-19
1.1587884e-19
1.1589673e-19
1.1601733e-19
1.1594449e-19
1.159005e-19
1.1587469e-19
1.1586056e-19
1.1585402e-19
1.1585276e-19
1.1585612e-19
1.1586509e-19
1.1588308e-19
1.1601053e-19
1.1593775e-19
1.1589383e-19
1.1586808e-19
1.1585402e-19
1.1584752e-19
1.1584633e-19
1.1584975e-19
1.1585878e-19
1.1587682e-19
1.1600885e-19
1.1593617e-19
1.1589239e-19
1.1586675e-19
1.1585276e-19
1.1584633e-19
1.1584517e-19
1.1584863e-19
1.158577e-19
1.1587576e-19
1.1601141e-19
1.1593899e-19
1.1589546e-19
1.1587e-19
1.1585612e-19
1.1584975e-19
1.1584863e-19
1.1585212e-19
1.1586121e-19
1.1587928e-19
1.1601889e-19
1.1594713e-19
1.1590405e-19
1.1587884e-19
1.1586509e-19
1.1585878e-19
1.158577e-19
1.1586121e-19
1.1587032e-19
1.1588841e-19
1.1603395e-19
1.1596411e-19
1.1592169e-19
1.1589673e-19
1.1588308e-19
1.1587682e-19
1.1587576e-19
1.1587928e-19
1.1588841e-19
1.1590655e-19
2.2594943e-19
2.2581227e-19
2.2572909e-19
2.2568008e-19
2.2565307e-19
2.2564022e-19
2.2563702e-19
2.2564179e-19
2.2565569e-19
2.2568343e-19
2.2581227e-19
2.2567557e-19
2.2559257e-19
2.2554365e-19
2.2551671e-19
2.2550396e-19
2.2550097e-19
2.2550624e-19
2.255214e-19
2.2555285e-19
2.2572909e-19
2.2559257e-19
2.2550969e-19
2.2546086e-19
2.2543401e-19
2.2542141e-19
2.2541867e-19
2.2542442e-19
2.2544046e-19
2.2547316e-19
2.2568008e-19
2.2554365e-19
2.2546086e-19
2.2541213e-19
2.2538537e-19
2.2537289e-19
2.2537036e-19
2.2537645e-19
2.2539297e-19
2.2542616e-19
2.2565307e-19
2.2551671e-19
2.2543401e-19
2.2538537e-19
2.253587e-19
2.2534633e-19
2.2534396e-19
2.2535025e-19
2.2536702e-19
2.2540041e-19
2.2564022e-19
2.2550396e-19
2.2542141e-19
2.2537289e-19
2.2534633e-19
2.2533407e-19
2.253318e-19
2.2533821e-19
2.2535511e-19
2.2538858e-19
2.2563702e-19
2.2550097e-19
2.2541867e-19
2.2537036e-19
2.2534396e-19
2.253318e-19
2.2532961e-19
2.253361e-19
2.2535306e-19
2.2538658e-19
2.2564179e-19
2.2550624e-19
2.2542442e-19
2.2537645e-19
2.2535025e-19
2.2533821e-19
2.253361e-19
2.2534265e-19
2.2535965e-19
2.2539319e-19
2.2565569e-19
2.255214e-19
2.2544046e-19
2.2539297e-19
2.2536702e-19
2.2535511e-19
2.2535306e-19
2.2535965e-19
2.2537668e-19
2.2541026e-19
2.2568343e-19
2.2555285e-19
2.2547316e-19
2.2542616e-19
2.2540041e-19
2.2538858e-19
2.2538658e-19
2.2539319e-19
2.2541026e-19
2.2544393e-19
4.4396698e-19
4.437077e-19
4.4354983e-19
4.4345659e-19
4.4340509e-19
4.4338056e-19
4.4337441e-19
4.4338339e-19
4.4340947e-19
4.4346111e-19
4.437077e-19
4.434493e-19
4.4329176e-19
4.4319868e-19
4.4314732e-19
4.4312299e-19
4.4311725e-19
4.4312718e-19
4.4315572e-19
4.4321455e-19
4.4354983e-19
4.4329176e-19
4.4313445e-19
4.4304154e-19
4.4299036e-19
4.429663e-19
4.4296106e-19
4.4297192e-19
4.4300216e-19
4.4306343e-19
4.4345659e-19
4.4319868e-19
4.4304154e-19
4.4294879e-19
4.4289779e-19
4.4287398e-19
4.4286915e-19
4.4288067e-19
4.4291184e-19
4.4297405e-19
4.4340509e-19
4.4314732e-19
4.4299036e-19
4.4289779e-19
4.4284697e-19
4.4282337e-19
4.4281883e-19
4.4283075e-19
4.4286241e-19
4.42925e-19
4.4338056e-19
4.4312299e-19
4.429663e-19
4.4287398e-19
4.4282337e-19
4.4279997e-19
4.4279563e-19
4.4280779e-19
4.4283969e-19
4.4290246e-19
4.4337441e-19
4.4311725e-19
4.4296106e-19
4.4286915e-19
4.4281883e-19
4.4279563e-19
4.4279145e-19
4.4280376e-19
4.4283579e-19
4.4289863e-19
4.4338339e-19
4.4312718e-19
4.4297192e-19
4.4288067e-19
4.4283075e-19
4.4280779e-19
4.4280376e-19
4.4281617e-19
4.4284828e-19
4.4291118e-19
4.4340947e-19
4.4315572e-19
4.4300216e-19
4.4291184e-19
4.4286241e-19
4.4283969e-19
4.4283579e-19
4.4284828e-19
4.4288045e-19
4.4294341e-19
4.4346111e-19
4.4321455e-19
4.4306343e-19
4.4297405e-19
4.42925e-19
4.4290246e-19
4.4289863e-19
4.4291118e-19
4.4294341e-19
4.4300654e-19
8.8132093e-19
8.8082603e-19
8.8052351e-19
8.8034434e-19
8.8024524e-19
8.8019798e-19
8.8018607e-19
8.8020313e-19
8.8025256e-19
8.8034962e-19
8.8082603e-19
8.8033278e-19
8.8003089e-19
8.7985204e-19
8.797532e-19
8.7970633e-19
8.7969522e-19
8.7971413e-19
8.7976841e-19
8.7987958e-19
8.8052351e-19
8.8003089e-19
8.7972943e-19
8.7955092e-19
8.7945242e-19
8.7940607e-19
8.7939593e-19
8.7941669e-19
8.7947428e-19
8.7959024e-19
8.8034434e-19
8.7985204e-19
8.7955092e-19
8.7937272e-19
8.7927456e-19
8.7922871e-19
8.7921937e-19
8.7924141e-19
8.7930084e-19
8.7941862e-19
8.8024524e-19
8.797532e-19
8.7945242e-19
8.7927456e-19
8.7917677e-19
8.7913133e-19
8.7912255e-19
8.7914539e-19
8.7920575e-19
8.793243e-19
8.8019798e-19
8.7970633e-19
8.7940607e-19
8.7922871e-19
8.7913133e-19
8.7908627e-19
8.790779e-19
8.7910119e-19
8.7916203e-19
8.7928091e-19
8.8018607e-19
8.7969522e-19
8.7939593e-19
8.7921937e-19
8.7912255e-19
8.790779e-19
8.7906984e-19
8.7909341e-19
8.7915451e-19
8.7927355e-19
8.8020313e-19
8.7971413e-19
8.7941669e-19
8.7924141e-19
8.7914539e-19
8.7910119e-19
8.7909341e-19
8.7911719e-19
8.7917844e-19
8.7929758e-19
8.8025256e-19
8.7976841e-19
8.7947428e-19
8.7930084e-19
8.7920575e-19
8.7916203e-19
8.7915451e-19
8.7917844e-19
8.7923981e-19
8.7935908e-19
8.8034962e-19
8.7987958e-19
8.7959024e-19
8.7941862e-19
8.793243e-19
8.7928091e-19
8.7927355e-19
8.7929758e-19
8.7935908e-19
8.7947865e-19
1.7675009e-18
1.7665471e-18
1.7659617e-18
1.7656142e-18
1.7654216e-18
1.7653297e-18
1.7653064e-18
1.7653392e-18
1.7654338e-18
1.7656181e-18
1.7665471e-18
1.7655964e-18
1.7650123e-18
1.7646654e-18
1.7644733e-18
1.7643821e-18
1.7643604e-18
1.7643969e-18
1.7645011e-18
1.7647133e-18
1.7659617e-18
1.7650123e-18
1.764429e-18
1.7640827e-18
1.7638913e-18
1.7638012e-18
1.7637814e-18
1.7638215e-18
1.7639323e-18
1.764154e-18
1.7656142e-18
1.7646654e-18
1.7640827e-18
1.763737e-18
1.7635464e-18
1.7634572e-18
1.763439e-18
1.7634816e-18
1.763596e-18
1.7638213e-18
1.7654216e-18
1.7644733e-18
1.7638913e-18
1.7635464e-18
1.7633564e-18
1.763268e-18
1.7632509e-18
1.7632951e-18
1.7634114e-18
1.7636382e-18
1.7653297e-18
1.7643821e-18
1.7638012e-18
1.7634572e-18
1.763268e-18
1.7631804e-18
1.7631641e-18
1.7632092e-18
1.7633264e-18
1.7635539e-18
1.7653064e-18
1.7643604e-18
1.7637814e-18
1.763439e-18
1.7632509e-18
1.7631641e-18
1.7631485e-18
1.7631941e-18
1.7633118e-18
1.7635396e-18
1.7653392e-18
1.7643969e-18
1.7638215e-18
1.7634816e-18
1.7632951e-18
1.7632092e-18
1.7631941e-18
1.7632401e-18
1.7633582e-18
1.7635861e-18
1.7654338e-18
1.7645011e-18
1.7639323e-18
1.763596e-18
1.7634114e-18
1.7633264e-18
1.7633118e-18
1.7633582e-18
1.7634764e-18
1.7637047e-18
1.7656181e-18
1.7647133e-18
1.764154e-18
1.7638213e-18
1.7636382e-18
1.7635539e-18
1.7635396e-18
1.7635861e-18
1.7637047e-18
1.7639335e-18
3.5811364e-18
3.5792803e-18
3.5781369e-18
3.5774563e-18
3.5770785e-18
3.576898e-18
3.5768521e-18
3.5769156e-18
3.5770987e-18
3.5774519e-18
3.5792803e-18
3.5774303e-18
3.5762892e-18
3.5756098e-18
3.5752331e-18
3.5750541e-18
3.5750113e-18
3.5750822e-18
3.5752844e-18
3.5756935e-18
3.5781369e-18
3.5762892e-18
3.5751498e-18
3.5744716e-18
3.5740962e-18
3.5739193e-18
3.5738803e-18
3.5739585e-18
3.5741738e-18
3.5746019e-18
3.5774563e-18
3.5756098e-18
3.5744716e-18
3.5737946e-18
3.5734206e-18
3.5732456e-18
3.5732098e-18
3.573293e-18
3.5735156e-18
3.5739509e-18
3.5770785e-18
3.5752331e-18
3.5740962e-18
3.5734206e-18
3.573048e-18
3.5728746e-18
3.5728411e-18
3.5729274e-18
3.5731537e-18
3.573592e-18
3.576898e-18
3.5750541e-18
3.5739193e-18
3.5732456e-18
3.5728746e-18
3.5727027e-18
3.5726708e-18
3.5727589e-18
3.5729871e-18
3.5734267e-18
3.5768521e-18
3.5750113e-18
3.5738803e-18
3.5732098e-18
3.5728411e-18
3.5726708e-18
3.57264e-18
3.5727293e-18
3.5729584e-18
3.5733988e-18
3.5769156e-18
3.5750822e-18
3.5739585e-18
3.573293e-18
3.5729274e-18
3.5727589e-18
3.5727293e-18
3.5728193e-18
3.5730491e-18
3.5734898e-18
3.5770987e-18
3.5752844e-18
3.5741738e-18
3.5735156e-18
3.5731537e-18
3.5729871e-18
3.5729584e-18
3.5730491e-18
3.5732793e-18
3.5737205e-18
3.5774519e-18
3.5756935e-18
3.5746019e-18
3.5739509e-18
3.573592e-18
3.5734267e-18
3.5733988e-18
3.5734898e-18
3.5737205e-18
3.5741627e-18
7.3300392e-18
7.3263925e-18
7.3241375e-18
7.3227919e-18
7.322044e-18
7.3216862e-18
7.3215949e-18
7.3217193e-18
7.3220769e-18
7.3227609e-18
7.3263925e-18
7.3227577e-18
7.3205072e-18
7.319164e-18
7.318418e-18
7.3180633e-18
7.3179783e-18
7.3181175e-18
7.3185138e-18
7.3193107e-18
7.3241375e-18
7.3205072e-18
7.3182601e-18
7.3169193e-18
7.316176e-18
7.3158254e-18
7.3157481e-18
7.315902e-18
7.3163248e-18
7.3171599e-18
7.3227919e-18
7.319164e-18
7.3169193e-18
7.3155809e-18
7.3148403e-18
7.3144936e-18
7.3144227e-18
7.3145868e-18
7.3150241e-18
7.3158739e-18
7.322044e-18
7.318418e-18
7.316176e-18
7.3148403e-18
7.3141026e-18
7.3137592e-18
7.3136927e-18
7.3138631e-18
7.3143079e-18
7.3151637e-18
7.3216862e-18
7.3180633e-18
7.3158254e-18
7.3144936e-18
7.3137592e-18
7.3134187e-18
7.3133554e-18
7.3135295e-18
7.3139781e-18
7.3148366e-18
7.3215949e-18
7.3179783e-18
7.3157481e-18
7.3144227e-18
7.3136927e-18
7.3133554e-18
7.3132947e-18
7.313471e-18
7.3139216e-18
7.3147814e-18
7.3217193e-18
7.3181175e-18
7.315902e-18
7.3145868e-18
7.3138631e-18
7.3135295e-18
7.313471e-18
7.3136488e-18
7.3141007e-18
7.3149612e-18
7.3220769e-18
7.3185138e-18
7.3163248e-18
7.3150241e-18
7.3143079e-18
7.3139781e-18
7.3139216e-18
7.3141007e-18
7.3145535e-18
7.3154149e-18
7.3227609e-18
7.3193107e-18
7.3171599e-18
7.3158739e-18
7.3151637e-18
7.3148366e-18
7.3147814e-18
7.3149612e-18
7.3154149e-18
7.3162785e-18
1.5156511e-17
1.5149278e-17
1.5144789e-17
1.5142103e-17
1.5140608e-17
1.5139892e-17
1.5139709e-17
1.5139955e-17
1.5140661e-17
1.5141998e-17
1.5149278e-17
1.5142068e-17
1.5137588e-17
1.5134907e-17
1.5133416e-17
1.5132706e-17
1.5132536e-17
1.5132812e-17
1.5133597e-17
1.5135164e-17
1.5144789e-17
1.5137588e-17
1.5133114e-17
1.5130438e-17
1.5128952e-17
1.5128251e-17
1.5128096e-17
1.5128402e-17
1.5129241e-17
1.5130886e-17
1.5142103e-17
1.5134907e-17
1.5130438e-17
1.5127767e-17
1.5126287e-17
1.5125593e-17
1.5125451e-17
1.5125778e-17
1.5126646e-17
1.5128322e-17
1.5140608e-17
1.5133416e-17
1.5128952e-17
1.5126287e-17
1.5124812e-17
1.5124125e-17
1.5123993e-17
1.5124333e-17
1.5125216e-17
1.5126904e-17
1.5139892e-17
1.5132706e-17
1.5128251e-17
1.5125593e-17
1.5124125e-17
1.5123445e-17
1.5123319e-17
1.5123666e-17
1.5124557e-17
1.512625e-17
1.5139709e-17
1.5132536e-17
1.5128096e-17
1.5125451e-17
1.5123993e-17
1.5123319e-17
1.5123197e-17
1.5123549e-17
1.5124444e-17
1.512614e-17
1.5139955e-17
1.5132812e-17
1.5128402e-17
1.5125778e-17
1.5124333e-17
1.5123666e-17
1.5123549e-17
1.5123904e-17
1.5124802e-17
1.5126499e-17
1.5140661e-17
1.5133597e-17
1.5129241e-17
1.5126646e-17
1.5125216e-17
1.5124557e-17
1.5124444e-17
1.5124802e-17
1.5125701e-17
1.51274e-17
1.5141998e-17
1.5135164e-17
1.5130886e-17
1.5128322e-17
1.5126904e-17
1.512625e-17