/*--------------------------------*- C++ -*----------------------------------*\
| =========                 |                                                 |
| \\      /  F ield         | OpenFOAM: The Open Source CFD Toolbox           |
|  \\    /   O peration     | Version:  dev                                   |
|   \\  /    A nd           | Web:      www.OpenFOAM.org                      |
|    \\/     M anipulation  |                                                 |
\*---------------------------------------------------------------------------*/
FoamFile
{
    version     2.0;
    format      ascii;
    class       volScalarField;
    location    "59.995";
    object      A;
}
// * * * * * * * * * * * * * * * * * * * * * * * * * * * * * * * * * * * * * //

dimensions      [0 0 0 0 1 0 0];

internalField   nonuniform List<scalar> 
10000
(
2.0013908e-29
1.9980035e-29
1.9964049e-29
1.9956781e-29
1.9953801e-29
1.9952791e-29
1.995276e-29
1.995358e-29
1.9955883e-29
1.9961079e-29
1.9980035e-29
1.9946323e-29
1.9930391e-29
1.9923144e-29
1.9920174e-29
1.9919175e-29
1.9919167e-29
1.9920053e-29
1.9922545e-29
1.992831e-29
1.9964049e-29
1.9930391e-29
1.9914488e-29
1.9907255e-29
1.9904293e-29
1.9903304e-29
1.9903321e-29
1.9904264e-29
1.9906877e-29
1.9912829e-29
1.9956781e-29
1.9923144e-29
1.9907255e-29
1.990003e-29
1.9897073e-29
1.9896092e-29
1.9896124e-29
1.9897101e-29
1.9899771e-29
1.9905786e-29
1.9953801e-29
1.9920174e-29
1.9904293e-29
1.9897073e-29
1.989412e-29
1.9893143e-29
1.9893184e-29
1.9894176e-29
1.989687e-29
1.9902907e-29
1.9952791e-29
1.9919175e-29
1.9903304e-29
1.9896092e-29
1.9893143e-29
1.989217e-29
1.9892214e-29
1.9893213e-29
1.9895915e-29
1.9901959e-29
1.995276e-29
1.9919167e-29
1.9903321e-29
1.9896124e-29
1.9893184e-29
1.9892214e-29
1.9892261e-29
1.9893263e-29
1.9895968e-29
1.9902014e-29
1.995358e-29
1.9920053e-29
1.9904264e-29
1.9897101e-29
1.9894176e-29
1.9893213e-29
1.9893263e-29
1.9894266e-29
1.9896973e-29
1.9903022e-29
1.9955883e-29
1.9922545e-29
1.9906877e-29
1.9899771e-29
1.989687e-29
1.9895915e-29
1.9895968e-29
1.9896973e-29
1.9899683e-29
1.9905737e-29
1.9961079e-29
1.992831e-29
1.9912829e-29
1.9905786e-29
1.9902907e-29
1.9901959e-29
1.9902014e-29
1.9903022e-29
1.9905737e-29
1.9911809e-29
6.9890177e-29
6.9776268e-29
6.9721132e-29
6.9696012e-29
6.9685705e-29
6.9682211e-29
6.9682098e-29
6.9684922e-29
6.9692862e-29
6.9711478e-29
6.9776268e-29
6.9662887e-29
6.9607936e-29
6.9582888e-29
6.9572614e-29
6.9569155e-29
6.9569124e-29
6.9572176e-29
6.9580778e-29
6.9601387e-29
6.9721132e-29
6.9607936e-29
6.9553084e-29
6.9528083e-29
6.9517838e-29
6.9514415e-29
6.9514468e-29
6.9517722e-29
6.9526744e-29
6.9548003e-29
6.9696012e-29
6.9582888e-29
6.9528083e-29
6.9503109e-29
6.9492882e-29
6.9489486e-29
6.9489594e-29
6.9492964e-29
6.9502185e-29
6.9523666e-29
6.9685705e-29
6.9572614e-29
6.9517838e-29
6.9492882e-29
6.9482669e-29
6.9479287e-29
6.9479424e-29
6.9482848e-29
6.949215e-29
6.9513706e-29
6.9682211e-29
6.9569155e-29
6.9514415e-29
6.9489486e-29
6.9479287e-29
6.9475917e-29
6.9476068e-29
6.9479514e-29
6.9488846e-29
6.9510427e-29
6.9682098e-29
6.9569124e-29
6.9514468e-29
6.9489594e-29
6.9479424e-29
6.9476068e-29
6.9476228e-29
6.9479683e-29
6.9489026e-29
6.9510616e-29
6.9684922e-29
6.9572176e-29
6.9517722e-29
6.9492964e-29
6.9482848e-29
6.9479514e-29
6.9479683e-29
6.9483144e-29
6.9492494e-29
6.9514091e-29
6.9692862e-29
6.9580778e-29
6.9526744e-29
6.9502185e-29
6.949215e-29
6.9488846e-29
6.9489026e-29
6.9492494e-29
6.9501854e-29
6.952347e-29
6.9711478e-29
6.9601387e-29
6.9548003e-29
6.9523666e-29
6.9513706e-29
6.9510427e-29
6.9510616e-29
6.9514091e-29
6.952347e-29
6.954515e-29
1.5521081e-28
1.5496594e-28
1.5484602e-28
1.5479126e-28
1.5476876e-28
1.5476112e-28
1.5476086e-28
1.5476697e-28
1.5478416e-28
1.548257e-28
1.5496594e-28
1.5472218e-28
1.5460267e-28
1.5454805e-28
1.5452563e-28
1.5451807e-28
1.5451799e-28
1.545246e-28
1.5454326e-28
1.5458921e-28
1.5484602e-28
1.5460267e-28
1.5448336e-28
1.5442885e-28
1.5440649e-28
1.5439901e-28
1.5439911e-28
1.5440617e-28
1.5442576e-28
1.5447314e-28
1.5479126e-28
1.5454805e-28
1.5442885e-28
1.543744e-28
1.5435207e-28
1.5434465e-28
1.5434488e-28
1.5435219e-28
1.5437222e-28
1.544201e-28
1.5476876e-28
1.5452563e-28
1.5440649e-28
1.5435207e-28
1.5432978e-28
1.5432239e-28
1.5432268e-28
1.5433011e-28
1.5435032e-28
1.5439836e-28
1.5476112e-28
1.5451807e-28
1.5439901e-28
1.5434465e-28
1.5432239e-28
1.5431503e-28
1.5431535e-28
1.5432283e-28
1.543431e-28
1.543912e-28
1.5476086e-28
1.5451799e-28
1.5439911e-28
1.5434488e-28
1.5432268e-28
1.5431535e-28
1.5431569e-28
1.5432319e-28
1.5434349e-28
1.543916e-28
1.5476697e-28
1.545246e-28
1.5440617e-28
1.5435219e-28
1.5433011e-28
1.5432283e-28
1.5432319e-28
1.5433071e-28
1.5435102e-28
1.5439915e-28
1.5478416e-28
1.5454326e-28
1.5442576e-28
1.5437222e-28
1.5435032e-28
1.543431e-28
1.5434349e-28
1.5435102e-28
1.5437135e-28
1.5441953e-28
1.548257e-28
1.5458921e-28
1.5447314e-28
1.544201e-28
1.5439836e-28
1.543912e-28
1.543916e-28
1.5439915e-28
1.5441953e-28
1.5446785e-28
3.2165014e-28
3.211588e-28
3.2091659e-28
3.2080568e-28
3.2076006e-28
3.2074456e-28
3.2074399e-28
3.2075624e-28
3.2079065e-28
3.208743e-28
3.211588e-28
3.2066968e-28
3.2042825e-28
3.2031765e-28
3.2027218e-28
3.2025683e-28
3.2025663e-28
3.2026992e-28
3.2030735e-28
3.2040011e-28
3.2091659e-28
3.2042825e-28
3.2018725e-28
3.2007686e-28
3.2003151e-28
3.2001632e-28
3.200165e-28
3.2003071e-28
3.2007005e-28
3.2016577e-28
3.2080568e-28
3.2031765e-28
3.2007686e-28
3.1996658e-28
3.1992131e-28
3.1990625e-28
3.1990668e-28
3.1992141e-28
3.1996166e-28
3.2005839e-28
3.2076006e-28
3.2027218e-28
3.2003151e-28
3.1992131e-28
3.198761e-28
3.1986111e-28
3.1986167e-28
3.1987665e-28
3.1991726e-28
3.2001433e-28
3.2074456e-28
3.2025683e-28
3.2001632e-28
3.1990625e-28
3.1986111e-28
3.1984616e-28
3.1984678e-28
3.1986186e-28
3.1990262e-28
3.199998e-28
3.2074399e-28
3.2025663e-28
3.200165e-28
3.1990668e-28
3.1986167e-28
3.1984678e-28
3.1984745e-28
3.1986257e-28
3.1990337e-28
3.200006e-28
3.2075624e-28
3.2026992e-28
3.2003071e-28
3.1992141e-28
3.1987665e-28
3.1986186e-28
3.1986257e-28
3.1987772e-28
3.1991855e-28
3.2001581e-28
3.2079065e-28
3.2030735e-28
3.2007005e-28
3.1996166e-28
3.1991726e-28
3.1990262e-28
3.1990337e-28
3.1991855e-28
3.1995943e-28
3.2005677e-28
3.208743e-28
3.2040011e-28
3.2016577e-28
3.2005839e-28
3.2001433e-28
3.199998e-28
3.200006e-28
3.2001581e-28
3.2005677e-28
3.201544e-28
6.6204426e-28
6.6106535e-28
6.6058051e-28
6.6035798e-28
6.602663e-28
6.6023511e-28
6.6023387e-28
6.6025819e-28
6.6032626e-28
6.6049106e-28
6.6106535e-28
6.6009081e-28
6.5960751e-28
6.5938559e-28
6.5929421e-28
6.5926333e-28
6.5926284e-28
6.5928929e-28
6.5936353e-28
6.59547e-28
6.6058051e-28
6.5960751e-28
6.5912507e-28
6.5890355e-28
6.5881242e-28
6.5878187e-28
6.5878217e-28
6.5881049e-28
6.5888863e-28
6.5907817e-28
6.6035798e-28
6.5938559e-28
6.5890355e-28
6.5868227e-28
6.585913e-28
6.58561e-28
6.5856181e-28
6.585912e-28
6.5867119e-28
6.5886279e-28
6.602663e-28
6.5929421e-28
6.5881242e-28
6.585913e-28
6.5850045e-28
6.5847029e-28
6.5847136e-28
6.5850125e-28
6.58582e-28
6.5877431e-28
6.6023511e-28
6.5926333e-28
6.5878187e-28
6.58561e-28
6.5847029e-28
6.5844022e-28
6.5844142e-28
6.5847152e-28
6.5855255e-28
6.5874508e-28
6.6023387e-28
6.5926284e-28
6.5878217e-28
6.5856181e-28
6.5847136e-28
6.5844142e-28
6.5844271e-28
6.5847289e-28
6.5855402e-28
6.5874664e-28
6.6025819e-28
6.5928929e-28
6.5881049e-28
6.585912e-28
6.5850125e-28
6.5847152e-28
6.5847289e-28
6.5850313e-28
6.5858432e-28
6.58777e-28
6.6032626e-28
6.5936353e-28
6.5888863e-28
6.5867119e-28
6.58582e-28
6.5855255e-28
6.5855402e-28
6.5858432e-28
6.5866559e-28
6.5885843e-28
6.6049106e-28
6.59547e-28
6.5907817e-28
6.5886279e-28
6.5877431e-28
6.5874508e-28
6.5874664e-28
6.58777e-28
6.5885843e-28
6.5905186e-28
1.3730614e-27
1.371097e-27
1.3701201e-27
1.3696707e-27
1.3694853e-27
1.3694222e-27
1.3694195e-27
1.369468e-27
1.3696034e-27
1.3699287e-27
1.371097e-27
1.3691412e-27
1.3681675e-27
1.3677193e-27
1.3675345e-27
1.3674719e-27
1.3674708e-27
1.3675237e-27
1.3676718e-27
1.3680356e-27
1.3701201e-27
1.3681675e-27
1.3671954e-27
1.366748e-27
1.3665637e-27
1.3665019e-27
1.3665023e-27
1.3665591e-27
1.3667152e-27
1.3670915e-27
1.3696707e-27
1.3677193e-27
1.366748e-27
1.3663011e-27
1.3661171e-27
1.3660558e-27
1.3660573e-27
1.3661163e-27
1.3662762e-27
1.3666568e-27
1.3694853e-27
1.3675345e-27
1.3665637e-27
1.3661171e-27
1.3659334e-27
1.3658723e-27
1.3658744e-27
1.3659344e-27
1.3660959e-27
1.3664779e-27
1.3694222e-27
1.3674719e-27
1.3665019e-27
1.3660558e-27
1.3658723e-27
1.3658115e-27
1.3658138e-27
1.3658742e-27
1.3660363e-27
1.3664188e-27
1.3694195e-27
1.3674708e-27
1.3665023e-27
1.3660573e-27
1.3658744e-27
1.3658138e-27
1.3658163e-27
1.3658769e-27
1.3660392e-27
1.3664218e-27
1.369468e-27
1.3675237e-27
1.3665591e-27
1.3661163e-27
1.3659344e-27
1.3658742e-27
1.3658769e-27
1.3659377e-27
1.3661e-27
1.3664828e-27
1.3696034e-27
1.3676718e-27
1.3667152e-27
1.3662762e-27
1.3660959e-27
1.3660363e-27
1.3660392e-27
1.3661e-27
1.3662625e-27
1.3666457e-27
1.3699287e-27
1.3680356e-27
1.3670915e-27
1.3666568e-27
1.3664779e-27
1.3664188e-27
1.3664218e-27
1.3664828e-27
1.3666457e-27
1.3670299e-27
2.8795544e-27
2.87557e-27
2.8735812e-27
2.8726642e-27
2.8722853e-27
2.872156e-27
2.8721502e-27
2.8722482e-27
2.8725201e-27
2.873168e-27
2.87557e-27
2.8716029e-27
2.8696203e-27
2.8687057e-27
2.868328e-27
2.8682e-27
2.8681974e-27
2.8683046e-27
2.8686029e-27
2.8693312e-27
2.8735812e-27
2.8696203e-27
2.867641e-27
2.8667281e-27
2.8663514e-27
2.8662249e-27
2.8662256e-27
2.8663407e-27
2.8666558e-27
2.8674101e-27
2.8726642e-27
2.8687057e-27
2.8667281e-27
2.8658161e-27
2.8654401e-27
2.8653146e-27
2.8653175e-27
2.8654372e-27
2.8657602e-27
2.8665234e-27
2.8722853e-27
2.868328e-27
2.8663514e-27
2.8654401e-27
2.8650647e-27
2.8649397e-27
2.8649438e-27
2.8650656e-27
2.8653918e-27
2.866158e-27
2.872156e-27
2.8682e-27
2.8662249e-27
2.8653146e-27
2.8649397e-27
2.8648152e-27
2.8648198e-27
2.8649425e-27
2.8652699e-27
2.8660371e-27
2.8721502e-27
2.8681974e-27
2.8662256e-27
2.8653175e-27
2.8649438e-27
2.8648198e-27
2.8648247e-27
2.8649478e-27
2.8652756e-27
2.8660432e-27
2.8722482e-27
2.8683046e-27
2.8663407e-27
2.8654372e-27
2.8650656e-27
2.8649425e-27
2.8649478e-27
2.8650711e-27
2.8653992e-27
2.866167e-27
2.8725201e-27
2.8686029e-27
2.8666558e-27
2.8657602e-27
2.8653918e-27
2.8652699e-27
2.8652756e-27
2.8653992e-27
2.8657276e-27
2.866496e-27
2.873168e-27
2.8693312e-27
2.8674101e-27
2.8665234e-27
2.866158e-27
2.8660371e-27
2.8660432e-27
2.866167e-27
2.866496e-27
2.8672667e-27
6.1119901e-27
6.103814e-27
6.0997181e-27
6.0978253e-27
6.0970422e-27
6.0967746e-27
6.0967619e-27
6.096962e-27
6.0975144e-27
6.0988195e-27
6.103814e-27
6.0956734e-27
6.0915899e-27
6.089702e-27
6.0889213e-27
6.0886565e-27
6.0886505e-27
6.0888698e-27
6.089478e-27
6.0909525e-27
6.0997181e-27
6.0915899e-27
6.0875133e-27
6.0856288e-27
6.0848503e-27
6.0845884e-27
6.0845894e-27
6.0848255e-27
6.0854688e-27
6.0869983e-27
6.0978253e-27
6.089702e-27
6.0856288e-27
6.0837463e-27
6.0829692e-27
6.0827094e-27
6.082715e-27
6.0829608e-27
6.0836207e-27
6.0851688e-27
6.0970422e-27
6.0889213e-27
6.0848503e-27
6.0829692e-27
6.0821931e-27
6.0819346e-27
6.0819426e-27
6.0821928e-27
6.0828595e-27
6.0844139e-27
6.0967746e-27
6.0886565e-27
6.0845884e-27
6.0827094e-27
6.0819346e-27
6.0816769e-27
6.0816861e-27
6.0819381e-27
6.0826074e-27
6.0841639e-27
6.0967619e-27
6.0886505e-27
6.0845894e-27
6.082715e-27
6.0819426e-27
6.0816861e-27
6.081696e-27
6.0819488e-27
6.0826189e-27
6.0841762e-27
6.096962e-27
6.0888698e-27
6.0848255e-27
6.0829608e-27
6.0821928e-27
6.0819381e-27
6.0819488e-27
6.0822021e-27
6.0828727e-27
6.0844305e-27
6.0975144e-27
6.089478e-27
6.0854688e-27
6.0836207e-27
6.0828595e-27
6.0826074e-27
6.0826189e-27
6.0828727e-27
6.0835441e-27
6.0851031e-27
6.0988195e-27
6.0909525e-27
6.0869983e-27
6.0851688e-27
6.0844139e-27
6.0841639e-27
6.0841762e-27
6.0844305e-27
6.0851031e-27
6.0866667e-27
1.3133368e-26
1.311639e-26
1.3107855e-26
1.3103902e-26
1.3102264e-26
1.3101703e-26
1.3101676e-26
1.3102089e-26
1.3103225e-26
1.3105885e-26
1.311639e-26
1.3099486e-26
1.3090976e-26
1.3087033e-26
1.30854e-26
1.3084846e-26
1.3084832e-26
1.3085286e-26
1.3086541e-26
1.3089563e-26
1.3107855e-26
1.3090976e-26
1.308248e-26
1.3078544e-26
1.3076916e-26
1.3076368e-26
1.3076369e-26
1.3076859e-26
1.3078189e-26
1.3081327e-26
1.3103902e-26
1.3087033e-26
1.3078544e-26
1.3074612e-26
1.3072987e-26
1.3072443e-26
1.3072454e-26
1.3072965e-26
1.307433e-26
1.3077508e-26
1.3102264e-26
1.30854e-26
1.3076916e-26
1.3072987e-26
1.3071364e-26
1.3070823e-26
1.3070839e-26
1.3071359e-26
1.3072738e-26
1.307593e-26
1.3101703e-26
1.3084846e-26
1.3076368e-26
1.3072443e-26
1.3070823e-26
1.3070283e-26
1.3070302e-26
1.3070826e-26
1.3072211e-26
1.3075407e-26
1.3101676e-26
1.3084832e-26
1.3076369e-26
1.3072454e-26
1.3070839e-26
1.3070302e-26
1.3070322e-26
1.3070848e-26
1.3072234e-26
1.3075432e-26
1.3102089e-26
1.3085286e-26
1.3076859e-26
1.3072965e-26
1.3071359e-26
1.3070826e-26
1.3070848e-26
1.3071374e-26
1.3072762e-26
1.3075961e-26
1.3103225e-26
1.3086541e-26
1.3078189e-26
1.307433e-26
1.3072738e-26
1.3072211e-26
1.3072234e-26
1.3072762e-26
1.3074151e-26
1.3077353e-26
1.3105885e-26
1.3089563e-26
1.3081327e-26
1.3077508e-26
1.307593e-26
1.3075407e-26
1.3075432e-26
1.3075961e-26
1.3077353e-26
1.3080564e-26
2.8572833e-26
2.8537157e-26
2.8519157e-26
2.8510802e-26
2.8507336e-26
2.8506149e-26
2.8506087e-26
2.8506952e-26
2.8509317e-26
2.8514803e-26
2.8537157e-26
2.8501633e-26
2.8483685e-26
2.8475352e-26
2.8471897e-26
2.8470721e-26
2.847069e-26
2.8471643e-26
2.8474264e-26
2.8480532e-26
2.8519157e-26
2.8483685e-26
2.8465768e-26
2.8457449e-26
2.8454003e-26
2.8452841e-26
2.8452842e-26
2.8453872e-26
2.8456655e-26
2.8463175e-26
2.8510802e-26
2.8475352e-26
2.8457449e-26
2.8449139e-26
2.8445699e-26
2.8444547e-26
2.8444569e-26
2.8445643e-26
2.8448502e-26
2.8455108e-26
2.8507336e-26
2.8471897e-26
2.8454003e-26
2.8445699e-26
2.8442264e-26
2.8441118e-26
2.844115e-26
2.8442245e-26
2.8445135e-26
2.845177e-26
2.8506149e-26
2.8470721e-26
2.8452841e-26
2.8444547e-26
2.8441118e-26
2.8439975e-26
2.8440013e-26
2.8441117e-26
2.8444018e-26
2.8450662e-26
2.8506087e-26
2.847069e-26
2.8452842e-26
2.8444569e-26
2.844115e-26
2.8440013e-26
2.8440055e-26
2.8441161e-26
2.8444067e-26
2.8450715e-26
2.8506952e-26
2.8471643e-26
2.8453872e-26
2.8445643e-26
2.8442245e-26
2.8441117e-26
2.8441161e-26
2.844227e-26
2.8445178e-26
2.8451828e-26
2.8509317e-26
2.8474264e-26
2.8456655e-26
2.8448502e-26
2.8445135e-26
2.8444018e-26
2.8444067e-26
2.8445178e-26
2.8448088e-26
2.8454744e-26
2.8514803e-26
2.8480532e-26
2.8463175e-26
2.8455108e-26
2.845177e-26
2.8450662e-26
2.8450715e-26
2.8451828e-26
2.8454744e-26
2.8461418e-26
6.2942548e-26
6.2866673e-26
6.2828256e-26
6.2810388e-26
6.2802965e-26
6.2800419e-26
6.280028e-26
6.2802112e-26
6.2807095e-26
6.2818551e-26
6.2866673e-26
6.2791117e-26
6.2752812e-26
6.2734988e-26
6.2727587e-26
6.2725068e-26
6.2724997e-26
6.2727021e-26
6.2732563e-26
6.2745725e-26
6.2828256e-26
6.2752812e-26
6.2714569e-26
6.2696776e-26
6.2689396e-26
6.2686905e-26
6.2686904e-26
6.2689096e-26
6.269499e-26
6.2708704e-26
6.2810388e-26
6.2734988e-26
6.2696776e-26
6.2679002e-26
6.2671635e-26
6.2669165e-26
6.266921e-26
6.2671498e-26
6.2677558e-26
6.269146e-26
6.2802965e-26
6.2727587e-26
6.2689396e-26
6.2671635e-26
6.2664278e-26
6.2661821e-26
6.2661889e-26
6.2664222e-26
6.267035e-26
6.2684315e-26
6.2800419e-26
6.2725068e-26
6.2686905e-26
6.2669165e-26
6.2661821e-26
6.2659373e-26
6.2659452e-26
6.2661803e-26
6.2667956e-26
6.2681942e-26
6.280028e-26
6.2724997e-26
6.2686904e-26
6.266921e-26
6.2661889e-26
6.2659452e-26
6.2659539e-26
6.2661897e-26
6.266806e-26
6.2682053e-26
6.2802112e-26
6.2727021e-26
6.2689096e-26
6.2671498e-26
6.2664222e-26
6.2661803e-26
6.2661897e-26
6.2664261e-26
6.2670428e-26
6.2684426e-26
6.2807095e-26
6.2732563e-26
6.269499e-26
6.2677558e-26
6.267035e-26
6.2667956e-26
6.266806e-26
6.2670428e-26
6.2676601e-26
6.269061e-26
6.2818551e-26
6.2745725e-26
6.2708704e-26
6.269146e-26
6.2684315e-26
6.2681942e-26
6.2682053e-26
6.2684426e-26
6.269061e-26
6.2704658e-26
1.4040175e-25
1.4023843e-25
1.4015545e-25
1.4011677e-25
1.4010068e-25
1.4009516e-25
1.4009485e-25
1.4009878e-25
1.401094e-25
1.4013362e-25
1.4023843e-25
1.4007578e-25
1.3999304e-25
1.3995446e-25
1.3993842e-25
1.3993295e-25
1.3993279e-25
1.3993714e-25
1.3994901e-25
1.3997699e-25
1.4015545e-25
1.3999304e-25
1.3991043e-25
1.3987192e-25
1.3985592e-25
1.3985052e-25
1.3985051e-25
1.3985523e-25
1.3986787e-25
1.3989708e-25
1.4011677e-25
1.3995446e-25
1.3987192e-25
1.3983344e-25
1.3981748e-25
1.3981212e-25
1.3981221e-25
1.3981714e-25
1.3983015e-25
1.3985978e-25
1.4010068e-25
1.3993842e-25
1.3985592e-25
1.3981748e-25
1.3980153e-25
1.397962e-25
1.3979634e-25
1.3980138e-25
1.3981454e-25
1.398443e-25
1.4009516e-25
1.3993295e-25
1.3985052e-25
1.3981212e-25
1.397962e-25
1.3979089e-25
1.3979106e-25
1.3979613e-25
1.3980935e-25
1.3983915e-25
1.4009485e-25
1.3993279e-25
1.3985051e-25
1.3981221e-25
1.3979634e-25
1.3979106e-25
1.3979124e-25
1.3979633e-25
1.3980957e-25
1.3983939e-25
1.4009878e-25
1.3993714e-25
1.3985523e-25
1.3981714e-25
1.3980138e-25
1.3979613e-25
1.3979633e-25
1.3980143e-25
1.3981468e-25
1.3984451e-25
1.401094e-25
1.3994901e-25
1.3986787e-25
1.3983015e-25
1.3981454e-25
1.3980935e-25
1.3980957e-25
1.3981468e-25
1.3982794e-25
1.3985779e-25
1.4013362e-25
1.3997699e-25
1.3989708e-25
1.3985978e-25
1.398443e-25
1.3983915e-25
1.3983939e-25
1.3984451e-25
1.3985779e-25
1.3988773e-25
3.1714427e-25
3.1678844e-25
3.1660703e-25
3.1652231e-25
3.1648702e-25
3.1647489e-25
3.1647418e-25
3.1648271e-25
3.1650567e-25
3.1655748e-25
3.1678844e-25
3.1643407e-25
3.1625318e-25
3.1616866e-25
3.1613347e-25
3.1612147e-25
3.161211e-25
3.1613057e-25
3.1615629e-25
3.1621655e-25
3.1660703e-25
3.1625318e-25
3.1607258e-25
3.159882e-25
3.1595311e-25
3.1594125e-25
3.1594122e-25
3.1595152e-25
3.1597898e-25
3.1604197e-25
3.1652231e-25
3.1616866e-25
3.159882e-25
3.1590392e-25
3.1586889e-25
3.1585713e-25
3.1585733e-25
3.158681e-25
3.1589638e-25
3.1596029e-25
3.1648702e-25
3.1613347e-25
3.1595311e-25
3.1586889e-25
3.1583392e-25
3.1582222e-25
3.1582253e-25
3.1583352e-25
3.1586214e-25
3.1592636e-25
3.1647489e-25
3.1612147e-25
3.1594125e-25
3.1585713e-25
3.1582222e-25
3.1581057e-25
3.1581093e-25
3.1582201e-25
3.1585075e-25
3.1591508e-25
3.1647418e-25
3.161211e-25
3.1594122e-25
3.1585733e-25
3.1582253e-25
3.1581093e-25
3.1581133e-25
3.1582245e-25
3.1585123e-25
3.159156e-25
3.1648271e-25
3.1613057e-25
3.1595152e-25
3.158681e-25
3.1583352e-25
3.1582201e-25
3.1582245e-25
3.158336e-25
3.158624e-25
3.1592679e-25
3.1650567e-25
3.1615629e-25
3.1597898e-25
3.1589638e-25
3.1586214e-25
3.1585075e-25
3.1585123e-25
3.158624e-25
3.1589123e-25
3.1595567e-25
3.1655748e-25
3.1621655e-25
3.1604197e-25
3.1596029e-25
3.1592636e-25
3.1591508e-25
3.159156e-25
3.1592679e-25
3.1595567e-25
3.1602028e-25
7.2545777e-25
7.2467309e-25
7.2427172e-25
7.2408389e-25
7.2400555e-25
7.2397858e-25
7.2397697e-25
7.2399571e-25
7.2404591e-25
7.2415815e-25
7.2467309e-25
7.238916e-25
7.2349135e-25
7.2330396e-25
7.2322585e-25
7.2319918e-25
7.2319831e-25
7.232192e-25
7.2327566e-25
7.2340703e-25
7.2427172e-25
7.2349135e-25
7.2309174e-25
7.2290466e-25
7.2282677e-25
7.2280042e-25
7.2280032e-25
7.2282308e-25
7.2288347e-25
7.2302101e-25
7.2408389e-25
7.2330396e-25
7.2290466e-25
7.2271778e-25
7.2264003e-25
7.2261391e-25
7.2261432e-25
7.2263815e-25
7.2270039e-25
7.2284003e-25
7.2400555e-25
7.2322585e-25
7.2282677e-25
7.2264003e-25
7.2256239e-25
7.2253641e-25
7.2253708e-25
7.225614e-25
7.226244e-25
7.2276475e-25
7.2397858e-25
7.2319918e-25
7.2280042e-25
7.2261391e-25
7.2253641e-25
7.2251052e-25
7.2251132e-25
7.2253585e-25
7.2259913e-25
7.2273971e-25
7.2397697e-25
7.2319831e-25
7.2280032e-25
7.2261432e-25
7.2253708e-25
7.2251132e-25
7.2251221e-25
7.2253682e-25
7.2260019e-25
7.2274086e-25
7.2399571e-25
7.232192e-25
7.2282308e-25
7.2263815e-25
7.225614e-25
7.2253585e-25
7.2253682e-25
7.2256148e-25
7.2262491e-25
7.2276562e-25
7.2404591e-25
7.2327566e-25
7.2288347e-25
7.2270039e-25
7.226244e-25
7.2259913e-25
7.2260019e-25
7.2262491e-25
7.226884e-25
7.2282922e-25
7.2415815e-25
7.2340703e-25
7.2302101e-25
7.2284003e-25
7.2276475e-25
7.2273971e-25
7.2274086e-25
7.2276562e-25
7.2282922e-25
7.2297041e-25
1.6805398e-24
1.6787884e-24
1.6778895e-24
1.6774681e-24
1.6772921e-24
1.6772314e-24
1.6772277e-24
1.6772694e-24
1.6773806e-24
1.6776267e-24
1.6787884e-24
1.677044e-24
1.6761476e-24
1.6757271e-24
1.6755517e-24
1.6754917e-24
1.6754897e-24
1.6755363e-24
1.6756618e-24
1.6759518e-24
1.6778895e-24
1.6761476e-24
1.6752527e-24
1.6748329e-24
1.6746579e-24
1.6745987e-24
1.6745984e-24
1.6746493e-24
1.6747838e-24
1.675088e-24
1.6774681e-24
1.6757271e-24
1.6748329e-24
1.6744136e-24
1.6742389e-24
1.6741802e-24
1.6741811e-24
1.6742344e-24
1.6743731e-24
1.6746821e-24
1.6772921e-24
1.6755517e-24
1.6746579e-24
1.6742389e-24
1.6740644e-24
1.674006e-24
1.6740075e-24
1.674062e-24
1.6742025e-24
1.6745131e-24
1.6772314e-24
1.6754917e-24
1.6745987e-24
1.6741802e-24
1.674006e-24
1.6739478e-24
1.6739496e-24
1.6740046e-24
1.6741457e-24
1.6744568e-24
1.6772277e-24
1.6754897e-24
1.6745984e-24
1.6741811e-24
1.6740075e-24
1.6739496e-24
1.6739516e-24
1.6740068e-24
1.6741481e-24
1.6744594e-24
1.6772694e-24
1.6755363e-24
1.6746493e-24
1.6742344e-24
1.674062e-24
1.6740046e-24
1.6740068e-24
1.674062e-24
1.6742035e-24
1.6745149e-24
1.6773806e-24
1.6756618e-24
1.6747838e-24
1.6743731e-24
1.6742025e-24
1.6741457e-24
1.6741481e-24
1.6742035e-24
1.6743451e-24
1.6746567e-24
1.6776267e-24
1.6759518e-24
1.675088e-24
1.6746821e-24
1.6745131e-24
1.6744568e-24
1.6744594e-24
1.6745149e-24
1.6746567e-24
1.6749692e-24
3.9425102e-24
3.9385533e-24
3.9365161e-24
3.935559e-24
3.9351589e-24
3.9350208e-24
3.9350121e-24
3.9351062e-24
3.9353554e-24
3.935902e-24
3.9385533e-24
3.9346123e-24
3.9325806e-24
3.9316257e-24
3.9312266e-24
3.9310901e-24
3.9310854e-24
3.9311908e-24
3.9314733e-24
3.9321216e-24
3.9365161e-24
3.9325806e-24
3.9305521e-24
3.9295988e-24
3.9292008e-24
3.929066e-24
3.9290654e-24
3.9291807e-24
3.929484e-24
3.9301652e-24
3.935559e-24
3.9316257e-24
3.9295988e-24
3.9286464e-24
3.9282492e-24
3.9281156e-24
3.9281176e-24
3.9282386e-24
3.9285517e-24
3.9292441e-24
3.9351589e-24
3.9312266e-24
3.9292008e-24
3.9282492e-24
3.9278526e-24
3.9277197e-24
3.9277231e-24
3.9278467e-24
3.9281639e-24
3.92886e-24
3.9350208e-24
3.9310901e-24
3.929066e-24
3.9281156e-24
3.9277197e-24
3.9275873e-24
3.9275915e-24
3.9277161e-24
3.9280347e-24
3.9287321e-24
3.9350121e-24
3.9310854e-24
3.9290654e-24
3.9281176e-24
3.9277231e-24
3.9275915e-24
3.927596e-24
3.9277211e-24
3.9280402e-24
3.928738e-24
3.9351062e-24
3.9311908e-24
3.9291807e-24
3.9282386e-24
3.9278467e-24
3.9277161e-24
3.9277211e-24
3.9278465e-24
3.9281659e-24
3.9288639e-24
3.9353554e-24
3.9314733e-24
3.929484e-24
3.9285517e-24
3.9281639e-24
3.9280347e-24
3.9280402e-24
3.9281659e-24
3.9284856e-24
3.9291841e-24
3.935902e-24
3.9321216e-24
3.9301652e-24
3.9292441e-24
3.92886e-24
3.9287321e-24
3.928738e-24
3.9288639e-24
3.9291841e-24
3.9298845e-24
9.3666729e-24
9.3576248e-24
9.3529516e-24
9.3507518e-24
9.349831e-24
9.3495131e-24
9.3494927e-24
9.3497072e-24
9.350273e-24
9.3515018e-24
9.3576248e-24
9.3486126e-24
9.3439519e-24
9.3417571e-24
9.3408388e-24
9.3405245e-24
9.3405134e-24
9.3407546e-24
9.3413983e-24
9.3428663e-24
9.3529516e-24
9.3439519e-24
9.3392985e-24
9.3371072e-24
9.3361915e-24
9.3358811e-24
9.3358796e-24
9.336144e-24
9.3368367e-24
9.3383817e-24
9.3507518e-24
9.3417571e-24
9.3371072e-24
9.3349182e-24
9.3340042e-24
9.3336966e-24
9.3337014e-24
9.3339791e-24
9.3346949e-24
9.336266e-24
9.349831e-24
9.3408388e-24
9.3361915e-24
9.3340042e-24
9.3330916e-24
9.3327857e-24
9.3327937e-24
9.3330776e-24
9.3338027e-24
9.3353827e-24
9.3495131e-24
9.3405245e-24
9.3358811e-24
9.3336966e-24
9.3327857e-24
9.332481e-24
9.3324906e-24
9.332777e-24
9.3335056e-24
9.3350885e-24
9.3494927e-24
9.3405134e-24
9.3358796e-24
9.3337014e-24
9.3327937e-24
9.3324906e-24
9.3325012e-24
9.3327886e-24
9.3335184e-24
9.3351023e-24
9.3497072e-24
9.3407546e-24
9.336144e-24
9.3339791e-24
9.3330776e-24
9.332777e-24
9.3327886e-24
9.3330768e-24
9.3338072e-24
9.3353916e-24
9.350273e-24
9.3413983e-24
9.3368367e-24
9.3346949e-24
9.3338027e-24
9.3335056e-24
9.3335184e-24
9.3338072e-24
9.3345382e-24
9.3361238e-24
9.3515018e-24
9.3428663e-24
9.3383817e-24
9.336266e-24
9.3353827e-24
9.3350885e-24
9.3351023e-24
9.3353916e-24
9.3361238e-24
9.3377134e-24
2.2536291e-23
2.251535e-23
2.2504501e-23
2.2499384e-23
2.249724e-23
2.2496499e-23
2.249645e-23
2.2496946e-23
2.2498247e-23
2.2501044e-23
2.251535e-23
2.2494492e-23
2.2483671e-23
2.2478566e-23
2.2476427e-23
2.2475695e-23
2.2475669e-23
2.2476228e-23
2.2477713e-23
2.2481079e-23
2.2504501e-23
2.2483671e-23
2.2472867e-23
2.246777e-23
2.2465638e-23
2.2464914e-23
2.2464911e-23
2.2465525e-23
2.2467127e-23
2.2470676e-23
2.2499384e-23
2.2478566e-23
2.246777e-23
2.2462678e-23
2.246055e-23
2.2459833e-23
2.2459845e-23
2.246049e-23
2.2462147e-23
2.2465758e-23
2.249724e-23
2.2476427e-23
2.2465638e-23
2.246055e-23
2.2458425e-23
2.2457712e-23
2.2457731e-23
2.2458391e-23
2.246007e-23
2.2463702e-23
2.2496499e-23
2.2475695e-23
2.2464914e-23
2.2459833e-23
2.2457712e-23
2.2457002e-23
2.2457025e-23
2.2457691e-23
2.2459378e-23
2.2463017e-23
2.249645e-23
2.2475669e-23
2.2464911e-23
2.2459845e-23
2.2457731e-23
2.2457025e-23
2.245705e-23
2.2457719e-23
2.2459409e-23
2.246305e-23
2.2496946e-23
2.2476228e-23
2.2465525e-23
2.246049e-23
2.2458391e-23
2.2457691e-23
2.2457719e-23
2.2458389e-23
2.2460081e-23
2.2463723e-23
2.2498247e-23
2.2477713e-23
2.2467127e-23
2.2462147e-23
2.246007e-23
2.2459378e-23
2.2459409e-23
2.2460081e-23
2.2461774e-23
2.2465419e-23
2.2501044e-23
2.2481079e-23
2.2470676e-23
2.2465758e-23
2.2463702e-23
2.2463017e-23
2.246305e-23
2.2463723e-23
2.2465419e-23
2.2469072e-23
5.4910419e-23
5.486137e-23
5.483588e-23
5.4823836e-23
5.4818782e-23
5.4817034e-23
5.4816919e-23
5.4818079e-23
5.4821105e-23
5.4827551e-23
5.486137e-23
5.4812511e-23
5.4787087e-23
5.4775069e-23
5.477003e-23
5.4768303e-23
5.476824e-23
5.4769552e-23
5.4773024e-23
5.4780838e-23
5.483588e-23
5.4787087e-23
5.4761702e-23
5.4749703e-23
5.4744678e-23
5.4742973e-23
5.4742965e-23
5.4744409e-23
5.474816e-23
5.4756415e-23
5.4823836e-23
5.4775069e-23
5.4749703e-23
5.4737717e-23
5.4732701e-23
5.4731012e-23
5.473104e-23
5.473256e-23
5.4736443e-23
5.4744846e-23
5.4818782e-23
5.477003e-23
5.4744678e-23
5.4732701e-23
5.4727693e-23
5.4726013e-23
5.4726059e-23
5.4727615e-23
5.4731551e-23
5.4740005e-23
5.4817034e-23
5.4768303e-23
5.4742973e-23
5.4731012e-23
5.4726013e-23
5.4724341e-23
5.4724396e-23
5.4725966e-23
5.4729921e-23
5.4738392e-23
5.4816919e-23
5.476824e-23
5.4742965e-23
5.473104e-23
5.4726059e-23
5.4724396e-23
5.4724456e-23
5.4726032e-23
5.4729995e-23
5.4738471e-23
5.4818079e-23
5.4769552e-23
5.4744409e-23
5.473256e-23
5.4727615e-23
5.4725966e-23
5.4726032e-23
5.4727612e-23
5.4731578e-23
5.4740057e-23
5.4821105e-23
5.4773024e-23
5.474816e-23
5.4736443e-23
5.4731551e-23
5.4729921e-23
5.4729995e-23
5.4731578e-23
5.4735548e-23
5.4744033e-23
5.4827551e-23
5.4780838e-23
5.4756415e-23
5.4744846e-23
5.4740005e-23
5.4738392e-23
5.4738471e-23
5.4740057e-23
5.4744033e-23
5.4752539e-23
1.3548378e-22
1.3536751e-22
1.353069e-22
1.3527821e-22
1.3526616e-22
1.3526199e-22
1.3526171e-22
1.3526446e-22
1.3527159e-22
1.3528663e-22
1.3536751e-22
1.3525169e-22
1.3519124e-22
1.3516261e-22
1.3515059e-22
1.3514647e-22
1.3514632e-22
1.3514944e-22
1.3515765e-22
1.3517602e-22
1.353069e-22
1.3519124e-22
1.3513088e-22
1.351023e-22
1.3509031e-22
1.3508624e-22
1.3508622e-22
1.3508967e-22
1.3509856e-22
1.35118e-22
1.3527821e-22
1.3516261e-22
1.351023e-22
1.3507374e-22
1.3506178e-22
1.3505775e-22
1.3505782e-22
1.3506145e-22
1.3507066e-22
1.3509047e-22
1.3526616e-22
1.3515059e-22
1.3509031e-22
1.3506178e-22
1.3504984e-22
1.3504583e-22
1.3504595e-22
1.3504966e-22
1.35059e-22
1.3507893e-22
1.3526199e-22
1.3514647e-22
1.3508624e-22
1.3505775e-22
1.3504583e-22
1.3504184e-22
1.3504198e-22
1.3504572e-22
1.3505512e-22
1.3507509e-22
1.3526171e-22
1.3514632e-22
1.3508622e-22
1.3505782e-22
1.3504595e-22
1.3504198e-22
1.3504213e-22
1.3504589e-22
1.350553e-22
1.3507528e-22
1.3526446e-22
1.3514944e-22
1.3508967e-22
1.3506145e-22
1.3504966e-22
1.3504572e-22
1.3504589e-22
1.3504966e-22
1.3505907e-22
1.3507906e-22
1.3527159e-22
1.3515765e-22
1.3509856e-22
1.3507066e-22
1.35059e-22
1.3505512e-22
1.350553e-22
1.3505907e-22
1.350685e-22
1.350885e-22
1.3528663e-22
1.3517602e-22
1.35118e-22
1.3509047e-22
1.3507893e-22
1.3507509e-22
1.3507528e-22
1.3507906e-22
1.350885e-22
1.3510855e-22
3.3850024e-22
3.3822133e-22
3.3807552e-22
3.3800638e-22
3.379773e-22
3.3796723e-22
3.3796655e-22
3.3797315e-22
3.3799016e-22
3.3802569e-22
3.3822133e-22
3.3794349e-22
3.3779805e-22
3.3772905e-22
3.3770006e-22
3.3769011e-22
3.3768974e-22
3.3769725e-22
3.3771693e-22
3.3776067e-22
3.3807552e-22
3.3779805e-22
3.3765283e-22
3.3758394e-22
3.3755502e-22
3.3754521e-22
3.3754517e-22
3.3755346e-22
3.3757482e-22
3.3762119e-22
3.3800638e-22
3.3772905e-22
3.3758394e-22
3.3751512e-22
3.3748626e-22
3.3747654e-22
3.3747671e-22
3.3748546e-22
3.3750761e-22
3.3755487e-22
3.379773e-22
3.3770006e-22
3.3755502e-22
3.3748626e-22
3.3745745e-22
3.3744778e-22
3.3744807e-22
3.3745703e-22
3.3747949e-22
3.3752706e-22
3.3796723e-22
3.3769011e-22
3.3754521e-22
3.3747654e-22
3.3744778e-22
3.3743816e-22
3.3743849e-22
3.3744754e-22
3.3747012e-22
3.3751779e-22
3.3796655e-22
3.3768974e-22
3.3754517e-22
3.3747671e-22
3.3744807e-22
3.3743849e-22
3.3743887e-22
3.3744795e-22
3.3747057e-22
3.3751827e-22
3.3797315e-22
3.3769725e-22
3.3755346e-22
3.3748546e-22
3.3745703e-22
3.3744754e-22
3.3744795e-22
3.3745705e-22
3.3747969e-22
3.3752741e-22
3.3799016e-22
3.3771693e-22
3.3757482e-22
3.3750761e-22
3.3747949e-22
3.3747012e-22
3.3747057e-22
3.3747969e-22
3.3750235e-22
3.3755011e-22
3.3802569e-22
3.3776067e-22
3.3762119e-22
3.3755487e-22
3.3752706e-22
3.3751779e-22
3.3751827e-22
3.3752741e-22
3.3755011e-22