/*--------------------------------*- C++ -*----------------------------------*\
| =========                 |                                                 |
| \\      /  F ield         | OpenFOAM: The Open Source CFD Toolbox           |
|  \\    /   O peration     | Version:  dev                                   |
|   \\  /    A nd           | Web:      www.OpenFOAM.org                      |
|    \\/     M anipulation  |                                                 |
\*---------------------------------------------------------------------------*/
FoamFile
{
    version     2.0;
    format      ascii;
    class       volScalarField;
    location    "59.995";
    object      A_0;
}
// * * * * * * * * * * * * * * * * * * * * * * * * * * * * * * * * * * * * * //

dimensions      [0 0 0 0 1 0 0];

internalField   nonuniform List<scalar> 
10000
(
1.9312324e-29
1.9279601e-29
1.9264166e-29
1.9257155e-29
1.9254283e-29
1.9253311e-29
1.9253282e-29
1.9254073e-29
1.9256294e-29
1.926131e-29
1.9279601e-29
1.9247033e-29
1.9231651e-29
1.9224661e-29
1.9221798e-29
1.9220836e-29
1.9220829e-29
1.9221684e-29
1.9224088e-29
1.9229653e-29
1.9264166e-29
1.9231651e-29
1.9216297e-29
1.920932e-29
1.9206465e-29
1.9205513e-29
1.920553e-29
1.920644e-29
1.9208961e-29
1.9214707e-29
1.9257155e-29
1.9224661e-29
1.920932e-29
1.920235e-29
1.91995e-29
1.9198556e-29
1.9198587e-29
1.919953e-29
1.9202106e-29
1.9207913e-29
1.9254283e-29
1.9221798e-29
1.9206465e-29
1.91995e-29
1.9196655e-29
1.9195714e-29
1.9195754e-29
1.9196711e-29
1.919931e-29
1.9205138e-29
1.9253311e-29
1.9220836e-29
1.9205513e-29
1.9198556e-29
1.9195714e-29
1.9194777e-29
1.919482e-29
1.9195784e-29
1.9198391e-29
1.9204225e-29
1.9253282e-29
1.9220829e-29
1.920553e-29
1.9198587e-29
1.9195754e-29
1.919482e-29
1.9194866e-29
1.9195832e-29
1.9198442e-29
1.9204279e-29
1.9254073e-29
1.9221684e-29
1.920644e-29
1.919953e-29
1.9196711e-29
1.9195784e-29
1.9195832e-29
1.91968e-29
1.9199412e-29
1.9205251e-29
1.9256294e-29
1.9224088e-29
1.9208961e-29
1.9202106e-29
1.919931e-29
1.9198391e-29
1.9198442e-29
1.9199412e-29
1.9202027e-29
1.9207871e-29
1.926131e-29
1.9229653e-29
1.9214707e-29
1.9207913e-29
1.9205138e-29
1.9204225e-29
1.9204279e-29
1.9205251e-29
1.9207871e-29
1.9213732e-29
6.7450608e-29
6.7340549e-29
6.7287308e-29
6.7263072e-29
6.7253137e-29
6.7249773e-29
6.7249666e-29
6.725239e-29
6.7260052e-29
6.7278025e-29
6.7340549e-29
6.7231001e-29
6.7177938e-29
6.7153771e-29
6.7143869e-29
6.7140539e-29
6.7140511e-29
6.7143456e-29
6.7151756e-29
6.7171654e-29
6.7287308e-29
6.7177938e-29
6.7124971e-29
6.710085e-29
6.7090975e-29
6.708768e-29
6.7087734e-29
6.7090872e-29
6.7099579e-29
6.7120104e-29
6.7263072e-29
6.7153771e-29
6.710085e-29
6.7076755e-29
6.7066897e-29
6.7063627e-29
6.7063734e-29
6.7066985e-29
6.7075883e-29
6.7096623e-29
6.7253137e-29
6.7143869e-29
6.7090975e-29
6.7066897e-29
6.7057053e-29
6.7053797e-29
6.7053932e-29
6.7057234e-29
6.7066211e-29
6.7087023e-29
6.7249773e-29
6.7140539e-29
6.708768e-29
6.7063627e-29
6.7053797e-29
6.7050553e-29
6.70507e-29
6.7054024e-29
6.706303e-29
6.7083866e-29
6.7249666e-29
6.7140511e-29
6.7087734e-29
6.7063734e-29
6.7053932e-29
6.70507e-29
6.7050857e-29
6.7054189e-29
6.7063206e-29
6.7084051e-29
6.725239e-29
6.7143456e-29
6.7090872e-29
6.7066985e-29
6.7057234e-29
6.7054024e-29
6.7054189e-29
6.7057528e-29
6.7066551e-29
6.7087403e-29
6.7260052e-29
6.7151756e-29
6.7099579e-29
6.7075883e-29
6.7066211e-29
6.706303e-29
6.7063206e-29
6.7066551e-29
6.7075583e-29
6.7096453e-29
6.7278025e-29
6.7171654e-29
6.7120104e-29
6.7096623e-29
6.7087023e-29
6.7083866e-29
6.7084051e-29
6.7087403e-29
6.7096453e-29
6.7117386e-29
1.4983412e-28
1.4959746e-28
1.4948164e-28
1.4942878e-28
1.4940709e-28
1.4939973e-28
1.4939949e-28
1.4940538e-28
1.4942198e-28
1.4946209e-28
1.4959746e-28
1.4936188e-28
1.4924644e-28
1.4919373e-28
1.4917211e-28
1.4916483e-28
1.4916476e-28
1.4917114e-28
1.4918915e-28
1.4923353e-28
1.4948164e-28
1.4924644e-28
1.4913121e-28
1.490786e-28
1.4905704e-28
1.4904984e-28
1.4904994e-28
1.4905675e-28
1.4907566e-28
1.4912142e-28
1.4942878e-28
1.4919373e-28
1.490786e-28
1.4902605e-28
1.4900452e-28
1.4899738e-28
1.489976e-28
1.4900466e-28
1.4902399e-28
1.4907023e-28
1.4940709e-28
1.4917211e-28
1.4905704e-28
1.4900452e-28
1.4898303e-28
1.4897591e-28
1.489762e-28
1.4898337e-28
1.4900287e-28
1.4904927e-28
1.4939973e-28
1.4916483e-28
1.4904984e-28
1.4899738e-28
1.4897591e-28
1.4896882e-28
1.4896914e-28
1.4897636e-28
1.4899592e-28
1.4904237e-28
1.4939949e-28
1.4916476e-28
1.4904994e-28
1.489976e-28
1.489762e-28
1.4896914e-28
1.4896947e-28
1.4897671e-28
1.489963e-28
1.4904277e-28
1.4940538e-28
1.4917114e-28
1.4905675e-28
1.4900466e-28
1.4898337e-28
1.4897636e-28
1.4897671e-28
1.4898396e-28
1.4900357e-28
1.4905005e-28
1.4942198e-28
1.4918915e-28
1.4907566e-28
1.4902399e-28
1.4900287e-28
1.4899592e-28
1.489963e-28
1.4900357e-28
1.4902319e-28
1.4906972e-28
1.4946209e-28
1.4923353e-28
1.4912142e-28
1.4907023e-28
1.4904927e-28
1.4904237e-28
1.4904277e-28
1.4905005e-28
1.4906972e-28
1.4911638e-28
3.1061425e-28
3.1013922e-28
3.0990519e-28
3.0979812e-28
3.0975412e-28
3.0973919e-28
3.0973865e-28
3.0975047e-28
3.097837e-28
3.098645e-28
3.1013922e-28
3.0966634e-28
3.0943307e-28
3.093263e-28
3.0928244e-28
3.0926765e-28
3.0926747e-28
3.092803e-28
3.0931644e-28
3.0940605e-28
3.0990519e-28
3.0943307e-28
3.0920021e-28
3.0909364e-28
3.090499e-28
3.0903527e-28
3.0903546e-28
3.0904917e-28
3.0908716e-28
3.0917963e-28
3.0979812e-28
3.093263e-28
3.0909364e-28
3.0898718e-28
3.0894352e-28
3.08929e-28
3.0892943e-28
3.0894365e-28
3.0898252e-28
3.0907596e-28
3.0975412e-28
3.0928244e-28
3.090499e-28
3.0894352e-28
3.0889991e-28
3.0888547e-28
3.0888602e-28
3.0890048e-28
3.089397e-28
3.0903347e-28
3.0973919e-28
3.0926765e-28
3.0903527e-28
3.08929e-28
3.0888547e-28
3.0887107e-28
3.0887168e-28
3.0888624e-28
3.0892559e-28
3.0901947e-28
3.0973865e-28
3.0926747e-28
3.0903546e-28
3.0892943e-28
3.0888602e-28
3.0887168e-28
3.0887233e-28
3.0888693e-28
3.0892633e-28
3.0902025e-28
3.0975047e-28
3.092803e-28
3.0904917e-28
3.0894365e-28
3.0890048e-28
3.0888624e-28
3.0888693e-28
3.0890155e-28
3.0894098e-28
3.0903493e-28
3.097837e-28
3.0931644e-28
3.0908716e-28
3.0898252e-28
3.089397e-28
3.0892559e-28
3.0892633e-28
3.0894098e-28
3.0898045e-28
3.0907448e-28
3.098645e-28
3.0940605e-28
3.0917963e-28
3.0907596e-28
3.0903347e-28
3.0901947e-28
3.0902025e-28
3.0903493e-28
3.0907448e-28
3.091688e-28
6.3956977e-28
6.38623e-28
6.3815436e-28
6.3793945e-28
6.3785101e-28
6.3782094e-28
6.3781977e-28
6.3784325e-28
6.37909e-28
6.3806825e-28
6.38623e-28
6.3768046e-28
6.3721332e-28
6.3699899e-28
6.3691083e-28
6.3688107e-28
6.3688063e-28
6.3690617e-28
6.3697787e-28
6.3715518e-28
6.3815436e-28
6.3721332e-28
6.36747e-28
6.3653307e-28
6.3644514e-28
6.3641571e-28
6.3641602e-28
6.3644336e-28
6.3651884e-28
6.3670202e-28
6.3793945e-28
6.3699899e-28
6.3653307e-28
6.3631936e-28
6.362316e-28
6.3620239e-28
6.3620319e-28
6.3623157e-28
6.3630884e-28
6.3649401e-28
6.3785101e-28
6.3691083e-28
6.3644514e-28
6.362316e-28
6.3614395e-28
6.3611487e-28
6.3611593e-28
6.3614479e-28
6.3622279e-28
6.3640864e-28
6.3782094e-28
6.3688107e-28
6.3641571e-28
6.3620239e-28
6.3611487e-28
6.360859e-28
6.3608708e-28
6.3611614e-28
6.3619441e-28
6.3638048e-28
6.3781977e-28
6.3688063e-28
6.3641602e-28
6.3620319e-28
6.3611593e-28
6.3608708e-28
6.3608834e-28
6.3611748e-28
6.3619585e-28
6.36382e-28
6.3784325e-28
6.3690617e-28
6.3644336e-28
6.3623157e-28
6.3614479e-28
6.3611614e-28
6.3611748e-28
6.3614668e-28
6.362251e-28
6.3641131e-28
6.37909e-28
6.3697787e-28
6.3651884e-28
6.3630884e-28
6.3622279e-28
6.3619441e-28
6.3619585e-28
6.362251e-28
6.3630361e-28
6.3648997e-28
6.3806825e-28
6.3715518e-28
6.3670202e-28
6.3649401e-28
6.3640864e-28
6.3638048e-28
6.36382e-28
6.3641131e-28
6.3648997e-28
6.366769e-28
1.3269696e-27
1.325069e-27
1.3241244e-27
1.3236903e-27
1.3235113e-27
1.3234504e-27
1.3234479e-27
1.3234948e-27
1.3236256e-27
1.32394e-27
1.325069e-27
1.3231767e-27
1.3222351e-27
1.3218021e-27
1.3216238e-27
1.3215635e-27
1.3215624e-27
1.3216136e-27
1.3217566e-27
1.3221084e-27
1.3241244e-27
1.3222351e-27
1.3212952e-27
1.320863e-27
1.3206851e-27
1.3206255e-27
1.320626e-27
1.3206808e-27
1.3208317e-27
1.3211955e-27
1.3236903e-27
1.3218021e-27
1.320863e-27
1.3204312e-27
1.3202536e-27
1.3201945e-27
1.320196e-27
1.320253e-27
1.3204075e-27
1.3207755e-27
1.3235113e-27
1.3216238e-27
1.3206851e-27
1.3202536e-27
1.3200763e-27
1.3200174e-27
1.3200195e-27
1.3200775e-27
1.3202335e-27
1.3206028e-27
1.3234504e-27
1.3215635e-27
1.3206255e-27
1.3201945e-27
1.3200174e-27
1.3199587e-27
1.319961e-27
1.3200194e-27
1.320176e-27
1.3205458e-27
1.3234479e-27
1.3215624e-27
1.320626e-27
1.320196e-27
1.3200195e-27
1.319961e-27
1.3199635e-27
1.3200221e-27
1.3201788e-27
1.3205488e-27
1.3234948e-27
1.3216136e-27
1.3206808e-27
1.320253e-27
1.3200775e-27
1.3200194e-27
1.3200221e-27
1.3200807e-27
1.3202376e-27
1.3206077e-27
1.3236256e-27
1.3217566e-27
1.3208317e-27
1.3204075e-27
1.3202335e-27
1.320176e-27
1.3201788e-27
1.3202376e-27
1.3203947e-27
1.320765e-27
1.32394e-27
1.3221084e-27
1.3211955e-27
1.3207755e-27
1.3206028e-27
1.3205458e-27
1.3205488e-27
1.3206077e-27
1.320765e-27
1.3211366e-27
2.7840075e-27
2.7801508e-27
2.778227e-27
2.7773407e-27
2.7769749e-27
2.7768502e-27
2.7768446e-27
2.7769393e-27
2.7772021e-27
2.7778288e-27
2.7801508e-27
2.776311e-27
2.7743931e-27
2.7735091e-27
2.7731445e-27
2.7730211e-27
2.7730186e-27
2.7731222e-27
2.7734105e-27
2.7741149e-27
2.778227e-27
2.7743931e-27
2.7724785e-27
2.7715961e-27
2.7712324e-27
2.7711104e-27
2.7711112e-27
2.7712224e-27
2.771527e-27
2.7722566e-27
2.7773407e-27
2.7735091e-27
2.7715961e-27
2.7707147e-27
2.7703517e-27
2.7702306e-27
2.7702335e-27
2.7703491e-27
2.7706614e-27
2.7713995e-27
2.7769749e-27
2.7731445e-27
2.7712324e-27
2.7703517e-27
2.7699891e-27
2.7698686e-27
2.7698726e-27
2.7699903e-27
2.7703057e-27
2.7710467e-27
2.7768502e-27
2.7730211e-27
2.7711104e-27
2.7702306e-27
2.7698686e-27
2.7697485e-27
2.7697531e-27
2.7698716e-27
2.7701881e-27
2.7709301e-27
2.7768446e-27
2.7730186e-27
2.7711112e-27
2.7702335e-27
2.7698726e-27
2.7697531e-27
2.7697579e-27
2.7698768e-27
2.7701937e-27
2.7709361e-27
2.7769393e-27
2.7731222e-27
2.7712224e-27
2.7703491e-27
2.7699903e-27
2.7698716e-27
2.7698768e-27
2.769996e-27
2.7703131e-27
2.7710557e-27
2.7772021e-27
2.7734105e-27
2.771527e-27
2.7706614e-27
2.7703057e-27
2.7701881e-27
2.7701937e-27
2.7703131e-27
2.7706305e-27
2.7713737e-27
2.7778288e-27
2.7741149e-27
2.7722566e-27
2.7713995e-27
2.7710467e-27
2.7709301e-27
2.7709361e-27
2.7710557e-27
2.7713737e-27
2.7721191e-27
5.9115967e-27
5.9036796e-27
5.8997157e-27
5.8978856e-27
5.8971292e-27
5.8968709e-27
5.8968589e-27
5.8970523e-27
5.8975865e-27
5.8988491e-27
5.9036796e-27
5.8957967e-27
5.891845e-27
5.8900196e-27
5.8892655e-27
5.88901e-27
5.8890044e-27
5.8892164e-27
5.8898045e-27
5.8912312e-27
5.8997157e-27
5.891845e-27
5.8878999e-27
5.8860778e-27
5.8853258e-27
5.8850731e-27
5.8850743e-27
5.8853025e-27
5.8859247e-27
5.8874045e-27
5.8978856e-27
5.8900196e-27
5.8860778e-27
5.8842576e-27
5.8835069e-27
5.8832563e-27
5.8832619e-27
5.8834994e-27
5.8841377e-27
5.8856356e-27
5.8971292e-27
5.8892655e-27
5.8853258e-27
5.8835069e-27
5.8827572e-27
5.8825078e-27
5.8825157e-27
5.8827576e-27
5.8834024e-27
5.8849064e-27
5.8968709e-27
5.88901e-27
5.8850731e-27
5.8832563e-27
5.8825078e-27
5.8822593e-27
5.8822683e-27
5.8825119e-27
5.8831591e-27
5.8846651e-27
5.8968589e-27
5.8890044e-27
5.8850743e-27
5.8832619e-27
5.8825157e-27
5.8822683e-27
5.882278e-27
5.8825224e-27
5.8831705e-27
5.8846772e-27
5.8970523e-27
5.8892164e-27
5.8853025e-27
5.8834994e-27
5.8827576e-27
5.8825119e-27
5.8825224e-27
5.8827672e-27
5.8834158e-27
5.884923e-27
5.8975865e-27
5.8898045e-27
5.8859247e-27
5.8841377e-27
5.8834024e-27
5.8831591e-27
5.8831705e-27
5.8834158e-27
5.8840651e-27
5.8855735e-27
5.8988491e-27
5.8912312e-27
5.8874045e-27
5.8856356e-27
5.8849064e-27
5.8846651e-27
5.8846772e-27
5.884923e-27
5.8855735e-27
5.8870863e-27
1.2708022e-26
1.2691576e-26
1.2683312e-26
1.2679489e-26
1.2677906e-26
1.2677365e-26
1.2677338e-26
1.2677738e-26
1.2678837e-26
1.2681412e-26
1.2691576e-26
1.26752e-26
1.2666961e-26
1.2663147e-26
1.266157e-26
1.2661034e-26
1.2661022e-26
1.2661461e-26
1.2662675e-26
1.26656e-26
1.2683312e-26
1.2666961e-26
1.2658736e-26
1.2654929e-26
1.2653356e-26
1.2652826e-26
1.2652828e-26
1.2653302e-26
1.2654588e-26
1.2657626e-26
1.2679489e-26
1.2663147e-26
1.2654929e-26
1.2651126e-26
1.2649555e-26
1.264903e-26
1.2649041e-26
1.2649535e-26
1.2650856e-26
1.2653932e-26
1.2677906e-26
1.266157e-26
1.2653356e-26
1.2649555e-26
1.2647987e-26
1.2647464e-26
1.264748e-26
1.2647983e-26
1.2649318e-26
1.2652407e-26
1.2677365e-26
1.2661034e-26
1.2652826e-26
1.264903e-26
1.2647464e-26
1.2646944e-26
1.2646962e-26
1.2647469e-26
1.2648809e-26
1.2651902e-26
1.2677338e-26
1.2661022e-26
1.2652828e-26
1.2649041e-26
1.264748e-26
1.2646962e-26
1.2646982e-26
1.264749e-26
1.2648832e-26
1.2651927e-26
1.2677738e-26
1.2661461e-26
1.2653302e-26
1.2649535e-26
1.2647983e-26
1.2647469e-26
1.264749e-26
1.2647999e-26
1.2649342e-26
1.2652439e-26
1.2678837e-26
1.2662675e-26
1.2654588e-26
1.2650856e-26
1.2649318e-26
1.2648809e-26
1.2648832e-26
1.2649342e-26
1.2650686e-26
1.2653785e-26
1.2681412e-26
1.26656e-26
1.2657626e-26
1.2653932e-26
1.2652407e-26
1.2651902e-26
1.2651927e-26
1.2652439e-26
1.2653785e-26
1.2656893e-26
2.7659066e-26
2.7624491e-26
2.7607056e-26
2.7598972e-26
2.7595621e-26
2.7594474e-26
2.7594415e-26
2.7595252e-26
2.759754e-26
2.7602853e-26
2.7624491e-26
2.7590063e-26
2.757268e-26
2.7564615e-26
2.7561275e-26
2.756014e-26
2.7560111e-26
2.7561033e-26
2.756357e-26
2.7569639e-26
2.7607056e-26
2.757268e-26
2.7555326e-26
2.7547276e-26
2.7543944e-26
2.7542822e-26
2.7542824e-26
2.7543821e-26
2.7546514e-26
2.7552828e-26
2.7598972e-26
2.7564615e-26
2.7547276e-26
2.7539234e-26
2.7535908e-26
2.7534796e-26
2.7534818e-26
2.7535857e-26
2.7538624e-26
2.7545021e-26
2.7595621e-26
2.7561275e-26
2.7543944e-26
2.7535908e-26
2.7532587e-26
2.7531481e-26
2.7531513e-26
2.7532572e-26
2.7535369e-26
2.7541794e-26
2.7594474e-26
2.756014e-26
2.7542822e-26
2.7534796e-26
2.7531481e-26
2.7530378e-26
2.7530415e-26
2.7531482e-26
2.753429e-26
2.7540725e-26
2.7594415e-26
2.7560111e-26
2.7542824e-26
2.7534818e-26
2.7531513e-26
2.7530415e-26
2.7530456e-26
2.7531526e-26
2.7534338e-26
2.7540776e-26
2.7595252e-26
2.7561033e-26
2.7543821e-26
2.7535857e-26
2.7532572e-26
2.7531482e-26
2.7531526e-26
2.7532599e-26
2.7535413e-26
2.7541853e-26
2.759754e-26
2.756357e-26
2.7546514e-26
2.7538624e-26
2.7535369e-26
2.753429e-26
2.7534338e-26
2.7535413e-26
2.753823e-26
2.7544675e-26
2.7602853e-26
2.7569639e-26
2.7552828e-26
2.7545021e-26
2.7541794e-26
2.7540725e-26
2.7540776e-26
2.7541853e-26
2.7544675e-26
2.7551138e-26
6.0955574e-26
6.0882009e-26
6.0844785e-26
6.0827486e-26
6.0820307e-26
6.0817847e-26
6.0817715e-26
6.0819488e-26
6.0824312e-26
6.083541e-26
6.0882009e-26
6.0808754e-26
6.0771638e-26
6.0754382e-26
6.0747224e-26
6.0744791e-26
6.0744724e-26
6.0746683e-26
6.0752049e-26
6.07648e-26
6.0844785e-26
6.0771638e-26
6.0734582e-26
6.0717357e-26
6.0710218e-26
6.0707813e-26
6.0707813e-26
6.0709935e-26
6.0715643e-26
6.0728928e-26
6.0827486e-26
6.0754382e-26
6.0717357e-26
6.0700149e-26
6.0693024e-26
6.0690638e-26
6.0690683e-26
6.0692898e-26
6.0698766e-26
6.0712234e-26
6.0820307e-26
6.0747224e-26
6.0710218e-26
6.0693024e-26
6.0685909e-26
6.0683535e-26
6.0683602e-26
6.068586e-26
6.0691794e-26
6.0705323e-26
6.0817847e-26
6.0744791e-26
6.0707813e-26
6.0690638e-26
6.0683535e-26
6.068117e-26
6.0681248e-26
6.0683524e-26
6.0689482e-26
6.0703031e-26
6.0817715e-26
6.0744724e-26
6.0707813e-26
6.0690683e-26
6.0683602e-26
6.0681248e-26
6.0681334e-26
6.0683617e-26
6.0689584e-26
6.070314e-26
6.0819488e-26
6.0746683e-26
6.0709935e-26
6.0692898e-26
6.068586e-26
6.0683524e-26
6.0683617e-26
6.0685904e-26
6.0691876e-26
6.0705437e-26
6.0824312e-26
6.0752049e-26
6.0715643e-26
6.0698766e-26
6.0691794e-26
6.0689482e-26
6.0689584e-26
6.0691876e-26
6.0697854e-26
6.0711425e-26
6.083541e-26
6.07648e-26
6.0728928e-26
6.0712234e-26
6.0705323e-26
6.0703031e-26
6.070314e-26
6.0705437e-26
6.0711425e-26
6.0725034e-26
1.3602825e-25
1.3586983e-25
1.3578939e-25
1.3575194e-25
1.3573637e-25
1.3573103e-25
1.3573073e-25
1.3573454e-25
1.3574483e-25
1.357683e-25
1.3586983e-25
1.3571207e-25
1.3563186e-25
1.355945e-25
1.3557898e-25
1.3557369e-25
1.3557354e-25
1.3557775e-25
1.3558925e-25
1.3561637e-25
1.3578939e-25
1.3563186e-25
1.3555179e-25
1.3551448e-25
1.35499e-25
1.3549378e-25
1.3549378e-25
1.3549835e-25
1.355106e-25
1.3553891e-25
1.3575194e-25
1.355945e-25
1.3551448e-25
1.3547722e-25
1.3546177e-25
1.3545659e-25
1.3545668e-25
1.3546146e-25
1.3547407e-25
1.3550277e-25
1.3573637e-25
1.3557898e-25
1.35499e-25
1.3546177e-25
1.3544634e-25
1.3544119e-25
1.3544133e-25
1.3544621e-25
1.3545895e-25
1.354878e-25
1.3573103e-25
1.3557369e-25
1.3549378e-25
1.3545659e-25
1.3544119e-25
1.3543606e-25
1.3543623e-25
1.3544114e-25
1.3545394e-25
1.3548283e-25
1.3573073e-25
1.3557354e-25
1.3549378e-25
1.3545668e-25
1.3544133e-25
1.3543623e-25
1.3543641e-25
1.3544134e-25
1.3545416e-25
1.3548306e-25
1.3573454e-25
1.3557775e-25
1.3549835e-25
1.3546146e-25
1.3544621e-25
1.3544114e-25
1.3544134e-25
1.3544628e-25
1.3545911e-25
1.3548802e-25
1.3574483e-25
1.3558925e-25
1.355106e-25
1.3547407e-25
1.3545895e-25
1.3545394e-25
1.3545416e-25
1.3545911e-25
1.3547195e-25
1.3550089e-25
1.357683e-25
1.3561637e-25
1.3553891e-25
1.3550277e-25
1.354878e-25
1.3548283e-25
1.3548306e-25
1.3548802e-25
1.3550089e-25
1.355299e-25
3.0739977e-25
3.0705447e-25
3.0687854e-25
3.0679645e-25
3.0676229e-25
3.0675056e-25
3.0674988e-25
3.0675814e-25
3.0678039e-25
3.0683062e-25
3.0705447e-25
3.0671059e-25
3.0653516e-25
3.0645326e-25
3.0641921e-25
3.064076e-25
3.0640725e-25
3.0641642e-25
3.0644135e-25
3.0649978e-25
3.0687854e-25
3.0653516e-25
3.0636002e-25
3.0627826e-25
3.0624429e-25
3.0623283e-25
3.062328e-25
3.0624278e-25
3.062694e-25
3.0633047e-25
3.0679645e-25
3.0645326e-25
3.0627826e-25
3.0619659e-25
3.0616269e-25
3.0615132e-25
3.0615151e-25
3.0616195e-25
3.0618936e-25
3.0625133e-25
3.0676229e-25
3.0641921e-25
3.0624429e-25
3.0616269e-25
3.0612883e-25
3.0611752e-25
3.0611783e-25
3.0612848e-25
3.0615621e-25
3.0621848e-25
3.0675056e-25
3.064076e-25
3.0623283e-25
3.0615132e-25
3.0611752e-25
3.0610625e-25
3.0610661e-25
3.0611735e-25
3.061452e-25
3.0620757e-25
3.0674988e-25
3.0640725e-25
3.062328e-25
3.0615151e-25
3.0611783e-25
3.0610661e-25
3.0610701e-25
3.0611778e-25
3.0614567e-25
3.0620808e-25
3.0675814e-25
3.0641642e-25
3.0624278e-25
3.0616195e-25
3.0612848e-25
3.0611735e-25
3.0611778e-25
3.0612858e-25
3.0615649e-25
3.0621892e-25
3.0678039e-25
3.0644135e-25
3.062694e-25
3.0618936e-25
3.0615621e-25
3.061452e-25
3.0614567e-25
3.0615649e-25
3.0618444e-25
3.0624691e-25
3.0683062e-25
3.0649978e-25
3.0633047e-25
3.0625133e-25
3.0621848e-25
3.0620757e-25
3.0620808e-25
3.0621892e-25
3.0624691e-25
3.0630956e-25
7.034795e-25
7.027177e-25
7.0232828e-25
7.021462e-25
7.0207034e-25
7.0204425e-25
7.0204271e-25
7.0206087e-25
7.0210954e-25
7.022184e-25
7.027177e-25
7.0195901e-25
7.0157067e-25
7.0138902e-25
7.0131338e-25
7.0128758e-25
7.0128676e-25
7.01307e-25
7.0136174e-25
7.0148918e-25
7.0232828e-25
7.0157067e-25
7.0118296e-25
7.0100161e-25
7.0092618e-25
7.0090069e-25
7.0090062e-25
7.0092267e-25
7.0098123e-25
7.0111465e-25
7.021462e-25
7.0138902e-25
7.0100161e-25
7.0082045e-25
7.0074516e-25
7.0071989e-25
7.0072031e-25
7.007434e-25
7.0080375e-25
7.0093921e-25
7.0207034e-25
7.0131338e-25
7.0092618e-25
7.0074516e-25
7.0066997e-25
7.0064484e-25
7.0064551e-25
7.0066908e-25
7.0073016e-25
7.0086631e-25
7.0204425e-25
7.0128758e-25
7.0090069e-25
7.0071989e-25
7.0064484e-25
7.006198e-25
7.0062059e-25
7.0064436e-25
7.0070571e-25
7.0084209e-25
7.0204271e-25
7.0128676e-25
7.0090062e-25
7.0072031e-25
7.0064551e-25
7.0062059e-25
7.0062146e-25
7.0064532e-25
7.0070676e-25
7.0084322e-25
7.0206087e-25
7.01307e-25
7.0092267e-25
7.007434e-25
7.0066908e-25
7.0064436e-25
7.0064532e-25
7.0066922e-25
7.0073072e-25
7.0086722e-25
7.0210954e-25
7.0136174e-25
7.0098123e-25
7.0080375e-25
7.0073016e-25
7.0070571e-25
7.0070676e-25
7.0073072e-25
7.0079227e-25
7.0092887e-25
7.022184e-25
7.0148918e-25
7.0111465e-25
7.0093921e-25
7.0086631e-25
7.0084209e-25
7.0084322e-25
7.0086722e-25
7.0092887e-25
7.0106584e-25
1.6303593e-24
1.6286582e-24
1.6277857e-24
1.627377e-24
1.6272065e-24
1.6271478e-24
1.6271442e-24
1.6271847e-24
1.6272925e-24
1.6275313e-24
1.6286582e-24
1.6269639e-24
1.6260939e-24
1.6256861e-24
1.625516e-24
1.625458e-24
1.6254561e-24
1.6255013e-24
1.625623e-24
1.6259045e-24
1.6277857e-24
1.6260939e-24
1.6252252e-24
1.6248181e-24
1.6246485e-24
1.6245912e-24
1.624591e-24
1.6246403e-24
1.6247708e-24
1.625066e-24
1.627377e-24
1.6256861e-24
1.6248181e-24
1.6244114e-24
1.6242421e-24
1.6241853e-24
1.6241862e-24
1.624238e-24
1.6243725e-24
1.6246724e-24
1.6272065e-24
1.625516e-24
1.6246485e-24
1.6242421e-24
1.6240731e-24
1.6240166e-24
1.6240181e-24
1.6240709e-24
1.6242072e-24
1.6245086e-24
1.6271478e-24
1.625458e-24
1.6245912e-24
1.6241853e-24
1.6240166e-24
1.6239603e-24
1.6239621e-24
1.6240154e-24
1.6241522e-24
1.6244542e-24
1.6271442e-24
1.6254561e-24
1.624591e-24
1.6241862e-24
1.6240181e-24
1.6239621e-24
1.623964e-24
1.6240175e-24
1.6241546e-24
1.6244567e-24
1.6271847e-24
1.6255013e-24
1.6246403e-24
1.624238e-24
1.6240709e-24
1.6240154e-24
1.6240175e-24
1.6240711e-24
1.6242083e-24
1.6245105e-24
1.6272925e-24
1.625623e-24
1.6247708e-24
1.6243725e-24
1.6242072e-24
1.6241522e-24
1.6241546e-24
1.6242083e-24
1.6243456e-24
1.6246481e-24
1.6275313e-24
1.6259045e-24
1.625066e-24
1.6246724e-24
1.6245086e-24
1.6244542e-24
1.6244567e-24
1.6245105e-24
1.6246481e-24
1.6249513e-24
3.8265301e-24
3.8226851e-24
3.8207068e-24
3.8197781e-24
3.8193903e-24
3.8192566e-24
3.8192483e-24
3.8193395e-24
3.8195813e-24
3.820112e-24
3.8226851e-24
3.8188555e-24
3.8168826e-24
3.815956e-24
3.8155693e-24
3.8154371e-24
3.8154327e-24
3.8155349e-24
3.815809e-24
3.8164385e-24
3.8207068e-24
3.8168826e-24
3.8149127e-24
3.8139877e-24
3.813602e-24
3.8134715e-24
3.813471e-24
3.8135828e-24
3.8138772e-24
3.8145386e-24
3.8197781e-24
3.815956e-24
3.8139877e-24
3.8130636e-24
3.8126787e-24
3.8125493e-24
3.8125514e-24
3.8126688e-24
3.8129726e-24
3.8136449e-24
3.8193903e-24
3.8155693e-24
3.813602e-24
3.8126787e-24
3.8122942e-24
3.8121656e-24
3.812169e-24
3.8122889e-24
3.8125967e-24
3.8132726e-24
3.8192566e-24
3.8154371e-24
3.8134715e-24
3.8125493e-24
3.8121656e-24
3.8120375e-24
3.8120415e-24
3.8121625e-24
3.8124717e-24
3.8131488e-24
3.8192483e-24
3.8154327e-24
3.813471e-24
3.8125514e-24
3.812169e-24
3.8120415e-24
3.812046e-24
3.8121674e-24
3.8124771e-24
3.8131546e-24
3.8193395e-24
3.8155349e-24
3.8135828e-24
3.8126688e-24
3.8122889e-24
3.8121625e-24
3.8121674e-24
3.812289e-24
3.812599e-24
3.8132767e-24
3.8195813e-24
3.815809e-24
3.8138772e-24
3.8129726e-24
3.8125967e-24
3.8124717e-24
3.8124771e-24
3.812599e-24
3.8129092e-24
3.8135875e-24
3.820112e-24
3.8164385e-24
3.8145386e-24
3.8136449e-24
3.8132726e-24
3.8131488e-24
3.8131546e-24
3.8132767e-24
3.8135875e-24
3.8142674e-24
9.0953203e-24
9.0865241e-24
9.0819839e-24
9.0798485e-24
9.0789556e-24
9.0786477e-24
9.0786281e-24
9.0788363e-24
9.0793855e-24
9.080579e-24
9.0865241e-24
9.0777628e-24
9.0732347e-24
9.0711041e-24
9.0702138e-24
9.0699093e-24
9.0698987e-24
9.0701329e-24
9.0707578e-24
9.0721838e-24
9.0819839e-24
9.0732347e-24
9.0687137e-24
9.0665866e-24
9.0656986e-24
9.065398e-24
9.0653967e-24
9.0656534e-24
9.0663259e-24
9.0678267e-24
9.0798485e-24
9.0711041e-24
9.0665866e-24
9.0644617e-24
9.0635754e-24
9.0632775e-24
9.0632823e-24
9.0635519e-24
9.0642468e-24
9.065773e-24
9.0789556e-24
9.0702138e-24
9.0656986e-24
9.0635754e-24
9.0626904e-24
9.0623941e-24
9.0624021e-24
9.0626777e-24
9.0633816e-24
9.0649164e-24
9.0786477e-24
9.0699093e-24
9.065398e-24
9.0632775e-24
9.0623941e-24
9.0620991e-24
9.0621085e-24
9.0623865e-24
9.0630938e-24
9.0646315e-24
9.0786281e-24
9.0698987e-24
9.0653967e-24
9.0632823e-24
9.0624021e-24
9.0621085e-24
9.062119e-24
9.062398e-24
9.0631065e-24
9.0646451e-24
9.0788363e-24
9.0701329e-24
9.0656534e-24
9.0635519e-24
9.0626777e-24
9.0623865e-24
9.062398e-24
9.0626776e-24
9.0633867e-24
9.0649258e-24
9.0793855e-24
9.0707578e-24
9.0663259e-24
9.0642468e-24
9.0633816e-24
9.0630938e-24
9.0631065e-24
9.0633867e-24
9.0640965e-24
9.0656367e-24
9.080579e-24
9.0721838e-24
9.0678267e-24
9.065773e-24
9.0649164e-24
9.0646315e-24
9.0646451e-24
9.0649258e-24
9.0656367e-24
9.0671808e-24
2.189364e-23
2.1873273e-23
2.1862727e-23
2.1857758e-23
2.1855678e-23
2.185496e-23
2.1854913e-23
2.1855395e-23
2.1856658e-23
2.1859376e-23
2.1873273e-23
2.1852986e-23
2.1842468e-23
2.183751e-23
2.1835435e-23
2.1834726e-23
2.18347e-23
2.1835243e-23
2.1836686e-23
2.1839957e-23
2.1862727e-23
2.1842468e-23
2.1831967e-23
2.1827017e-23
2.1824948e-23
2.1824247e-23
2.1824244e-23
2.182484e-23
2.1826396e-23
2.1829845e-23
2.1857758e-23
2.183751e-23
2.1827017e-23
2.1822071e-23
2.1820007e-23
2.1819312e-23
2.1819324e-23
2.1819951e-23
2.182156e-23
2.1825069e-23
2.1855678e-23
2.1835435e-23
2.1824948e-23
2.1820007e-23
2.1817945e-23
2.1817254e-23
2.1817273e-23
2.1817914e-23
2.1819545e-23
2.1823075e-23
2.185496e-23
2.1834726e-23
2.1824247e-23
2.1819312e-23
2.1817254e-23
2.1816567e-23
2.1816589e-23
2.1817236e-23
2.1818875e-23
2.1822411e-23
2.1854913e-23
2.18347e-23
2.1824244e-23
2.1819324e-23
2.1817273e-23
2.1816589e-23
2.1816614e-23
2.1817263e-23
2.1818905e-23
2.1822443e-23
2.1855395e-23
2.1835243e-23
2.182484e-23
2.1819951e-23
2.1817914e-23
2.1817236e-23
2.1817263e-23
2.1817914e-23
2.1819557e-23
2.1823097e-23
2.1856658e-23
2.1836686e-23
2.1826396e-23
2.182156e-23
2.1819545e-23
2.1818875e-23
2.1818905e-23
2.1819557e-23
2.1821201e-23
2.1824744e-23
2.1859376e-23
2.1839957e-23
2.1829845e-23
2.1825069e-23
2.1823075e-23
2.1822411e-23
2.1822443e-23
2.1823097e-23
2.1824744e-23
2.1828295e-23
5.3369819e-23
5.332209e-23
5.3297302e-23
5.32856e-23
5.3280694e-23
5.3279e-23
5.3278889e-23
5.3280016e-23
5.3282957e-23
5.3289223e-23
5.332209e-23
5.3274547e-23
5.3249823e-23
5.3238146e-23
5.3233255e-23
5.323158e-23
5.323152e-23
5.3232795e-23
5.3236169e-23
5.3243767e-23
5.3297302e-23
5.3249823e-23
5.3225137e-23
5.3213479e-23
5.3208601e-23
5.3206948e-23
5.3206941e-23
5.3208345e-23
5.321199e-23
5.3220016e-23
5.32856e-23
5.3238146e-23
5.3213479e-23
5.3201833e-23
5.3196964e-23
5.3195327e-23
5.3195354e-23
5.3196832e-23
5.3200605e-23
5.3208776e-23
5.3280694e-23
5.3233255e-23
5.3208601e-23
5.3196964e-23
5.3192103e-23
5.3190475e-23
5.319052e-23
5.3192032e-23
5.3195857e-23
5.3204077e-23
5.3279e-23
5.323158e-23
5.3206948e-23
5.3195327e-23
5.3190475e-23
5.3188853e-23
5.3188907e-23
5.3190433e-23
5.3194277e-23
5.3202513e-23
5.3278889e-23
5.323152e-23
5.3206941e-23
5.3195354e-23
5.319052e-23
5.3188907e-23
5.3188967e-23
5.3190498e-23
5.3194349e-23
5.3202591e-23
5.3280016e-23
5.3232795e-23
5.3208345e-23
5.3196832e-23
5.3192032e-23
5.3190433e-23
5.3190498e-23
5.3192033e-23
5.3195887e-23
5.3204131e-23
5.3282957e-23
5.3236169e-23
5.321199e-23
5.3200605e-23
5.3195857e-23
5.3194277e-23
5.3194349e-23
5.3195887e-23
5.3199745e-23
5.3207995e-23
5.3289223e-23
5.3243767e-23
5.3220016e-23
5.3208776e-23
5.3204077e-23
5.3202513e-23
5.3202591e-23
5.3204131e-23
5.3207995e-23
5.3216265e-23
1.3174563e-22
1.3163244e-22
1.3157347e-22
1.3154559e-22
1.3153388e-22
1.3152984e-22
1.3152957e-22
1.3153224e-22
1.3153917e-22
1.315538e-22
1.3163244e-22
1.3151968e-22
1.3146087e-22
1.3143304e-22
1.3142137e-22
1.3141737e-22
1.3141723e-22
1.3142026e-22
1.3142825e-22
1.3144612e-22
1.3157347e-22
1.3146087e-22
1.3140214e-22
1.3137436e-22
1.3136272e-22
1.3135878e-22
1.3135876e-22
1.3136211e-22
1.3137075e-22
1.3138967e-22
1.3154559e-22
1.3143304e-22
1.3137436e-22
1.313466e-22
1.3133499e-22
1.3133108e-22
1.3133115e-22
1.3133467e-22
1.3134363e-22
1.313629e-22
1.3153388e-22
1.3142137e-22
1.3136272e-22
1.3133499e-22
1.3132339e-22
1.3131951e-22
1.3131962e-22
1.3132322e-22
1.3133231e-22
1.313517e-22
1.3152984e-22
1.3141737e-22
1.3135878e-22
1.3133108e-22
1.3131951e-22
1.3131564e-22
1.3131577e-22
1.3131941e-22
1.3132854e-22
1.3134797e-22
1.3152957e-22
1.3141723e-22
1.3135876e-22
1.3133115e-22
1.3131962e-22
1.3131577e-22
1.3131592e-22
1.3131957e-22
1.3132872e-22
1.3134816e-22
1.3153224e-22
1.3142026e-22
1.3136211e-22
1.3133467e-22
1.3132322e-22
1.3131941e-22
1.3131957e-22
1.3132323e-22
1.3133239e-22
1.3135184e-22
1.3153917e-22
1.3142825e-22
1.3137075e-22
1.3134363e-22
1.3133231e-22
1.3132854e-22
1.3132872e-22
1.3133239e-22
1.3134155e-22
1.3136101e-22
1.315538e-22
1.3144612e-22
1.3138967e-22
1.313629e-22
1.313517e-22
1.3134797e-22
1.3134816e-22
1.3135184e-22
1.3136101e-22
1.3138052e-22
3.2932021e-22
3.2904855e-22
3.2890662e-22
3.2883937e-22
3.2881112e-22
3.2880135e-22
3.288007e-22
3.2880711e-22
3.2882366e-22
3.2885823e-22
3.2904855e-22
3.2877793e-22
3.2863636e-22
3.2856925e-22
3.2854108e-22
3.2853143e-22
3.2853108e-22
3.2853838e-22
3.2855752e-22
3.2860009e-22
3.2890662e-22
3.2863636e-22
3.28495e-22
3.28428e-22
3.2839991e-22
3.2839038e-22
3.2839035e-22
3.2839842e-22
3.2841919e-22
3.2846432e-22
3.2883937e-22
3.2856925e-22
3.28428e-22
3.2836107e-22
3.2833303e-22
3.283236e-22
3.2832377e-22
3.2833228e-22
3.2835382e-22
3.2839983e-22
3.2881112e-22
3.2854108e-22
3.2839991e-22
3.2833303e-22
3.2830504e-22
3.2829566e-22
3.2829594e-22
3.2830465e-22
3.283265e-22
3.283728e-22
3.2880135e-22
3.2853143e-22
3.2839038e-22
3.283236e-22
3.2829566e-22
3.2828632e-22
3.2828665e-22
3.2829545e-22
3.2831741e-22
3.2836381e-22
3.288007e-22
3.2853108e-22
3.2839035e-22
3.2832377e-22
3.2829594e-22
3.2828665e-22
3.2828702e-22
3.2829585e-22
3.2831785e-22
3.2836428e-22
3.2880711e-22
3.2853838e-22
3.2839842e-22
3.2833228e-22
3.2830465e-22
3.2829545e-22
3.2829585e-22
3.283047e-22
3.2832672e-22
3.2837317e-22
3.2882366e-22
3.2855752e-22
3.2841919e-22
3.2835382e-22
3.283265e-22
3.2831741e-22
3.2831785e-22
3.2832672e-22
3.2834877e-22
3.2839525e-22
3.2885823e-22
3.2860009e-22
3.2846432e-22
3.2839983e-22
3.283728e-22
3.2836381e-22
3.2836428e-22
3.2837317e-22
3.2839525e-22
3.2844183e-22
8.335175e-22