/*--------------------------------*- C++ -*----------------------------------*\
| =========                 |                                                 |
| \\      /  F ield         | OpenFOAM: The Open Source CFD Toolbox           |
|  \\    /   O peration     | Version:  dev                                   |
|   \\  /    A nd           | Web:      www.OpenFOAM.org                      |
|    \\/     M anipulation  |                                                 |
\*---------------------------------------------------------------------------*/
FoamFile
{
    version     2.0;
    format      ascii;
    class       volScalarField;
    location    "5";
    object      A;
}
// * * * * * * * * * * * * * * * * * * * * * * * * * * * * * * * * * * * * * //

dimensions      [0 0 0 0 1 0 0];

internalField   nonuniform List<scalar> 
10000
(
0.99956018
0.99956109
0.999562
0.99956283
0.99956353
0.99956407
0.99956443
0.99956465
0.99956478
0.99956497
0.99956109
0.99956221
0.99956328
0.99956423
0.99956501
0.99956559
0.99956597
0.99956617
0.99956622
0.99956627
0.999562
0.99956328
0.99956453
0.99956562
0.99956649
0.99956712
0.9995675
0.99956763
0.99956756
0.99956745
0.99956283
0.99956423
0.99956562
0.99956683
0.99956778
0.99956844
0.9995688
0.99956886
0.99956867
0.99956845
0.99956353
0.99956501
0.99956649
0.99956778
0.99956878
0.99956946
0.9995698
0.9995698
0.99956953
0.99956922
0.99956407
0.99956559
0.99956712
0.99956844
0.99956946
0.99957014
0.99957046
0.99957043
0.99957011
0.99956975
0.99956443
0.99956597
0.9995675
0.9995688
0.9995698
0.99957046
0.99957077
0.99957074
0.99957041
0.99957004
0.99956465
0.99956617
0.99956763
0.99956886
0.9995698
0.99957043
0.99957074
0.99957073
0.99957043
0.99957008
0.99956478
0.99956622
0.99956756
0.99956867
0.99956953
0.99957011
0.99957041
0.99957043
0.99957022
0.99956994
0.99956497
0.99956627
0.99956745
0.99956845
0.99956922
0.99956975
0.99957004
0.99957008
0.99956994
0.99956974
0.99866824
0.99867086
0.99867359
0.99867611
0.99867823
0.99867985
0.99868094
0.99868159
0.99868195
0.99868243
0.99867086
0.99867415
0.99867738
0.99868025
0.99868261
0.99868437
0.99868551
0.9986861
0.99868622
0.99868623
0.99867359
0.99867738
0.99868114
0.99868444
0.99868709
0.99868899
0.99869012
0.99869052
0.99869026
0.99868978
0.99867611
0.99868025
0.99868444
0.9986881
0.99869099
0.99869299
0.99869407
0.99869425
0.99869363
0.9986928
0.99867823
0.99868261
0.99868709
0.99869099
0.99869402
0.99869607
0.99869709
0.9986971
0.99869622
0.99869514
0.99867985
0.99868437
0.99868899
0.99869299
0.99869607
0.99869812
0.99869909
0.99869899
0.99869797
0.99869675
0.99868094
0.99868551
0.99869012
0.99869407
0.99869709
0.99869909
0.99870003
0.99869992
0.99869887
0.9986976
0.99868159
0.9986861
0.99869052
0.99869425
0.9986971
0.99869899
0.99869992
0.99869988
0.99869894
0.99869773
0.99868195
0.99868622
0.99869026
0.99869363
0.99869622
0.99869797
0.99869887
0.99869894
0.99869825
0.99869726
0.99868243
0.99868623
0.99868978
0.9986928
0.99869514
0.99869675
0.9986976
0.99869773
0.99869726
0.99869655
0.9977538
0.99775793
0.99776245
0.99776668
0.99777023
0.99777294
0.99777476
0.99777582
0.99777632
0.99777682
0.99775793
0.99776314
0.99776853
0.99777336
0.99777733
0.99778028
0.99778219
0.99778313
0.99778321
0.9977829
0.99776245
0.99776853
0.99777482
0.99778037
0.99778483
0.99778803
0.99778992
0.99779055
0.99778996
0.99778881
0.99776668
0.99777336
0.99778038
0.99778654
0.99779141
0.99779478
0.99779658
0.99779683
0.99779563
0.99779387
0.99777023
0.99777733
0.99778483
0.99779141
0.99779653
0.99779998
0.99780168
0.99780163
0.99779999
0.99779781
0.99777294
0.99778028
0.99778803
0.99779478
0.99779998
0.99780343
0.99780504
0.99780482
0.99780293
0.9978005
0.99777476
0.99778219
0.99778992
0.99779658
0.99780168
0.99780504
0.9978066
0.99780636
0.99780443
0.99780191
0.99777582
0.99778313
0.99779055
0.99779683
0.99780163
0.99780482
0.99780636
0.99780624
0.99780451
0.99780211
0.99777632
0.99778321
0.99778996
0.99779563
0.99779999
0.99780293
0.99780443
0.99780451
0.99780321
0.9978012
0.99777682
0.9977829
0.99778881
0.99779387
0.99779781
0.9978005
0.99780191
0.99780211
0.9978012
0.99779974
0.9968166
0.99682199
0.99682825
0.99683417
0.99683917
0.99684297
0.9968455
0.99684689
0.99684737
0.99684763
0.99682199
0.99682886
0.99683634
0.99684314
0.99684874
0.99685289
0.99685554
0.99685677
0.99685662
0.99685569
0.99682825
0.99683634
0.99684512
0.99685296
0.99685926
0.99686376
0.99686638
0.99686715
0.99686603
0.9968639
0.99683417
0.99684314
0.99685296
0.99686167
0.99686855
0.9968733
0.99687579
0.99687602
0.99687403
0.996871
0.99683917
0.99684874
0.99685926
0.99686855
0.9968758
0.99688067
0.996883
0.9968828
0.99688017
0.99687655
0.99684297
0.99685289
0.99686376
0.9968733
0.99688067
0.99688553
0.99688774
0.9968873
0.99688431
0.99688033
0.9968455
0.99685554
0.99686639
0.99687579
0.996883
0.99688774
0.99688989
0.99688942
0.99688638
0.99688228
0.99684689
0.99685677
0.99686715
0.99687602
0.9968828
0.9968873
0.99688942
0.99688913
0.99688639
0.99688246
0.99684737
0.99685662
0.99686603
0.99687403
0.99688017
0.99688431
0.99688638
0.99688639
0.99688429
0.99688097
0.99684763
0.99685569
0.9968639
0.996871
0.99687655
0.99688033
0.99688228
0.99688246
0.99688097
0.99687856
0.99585622
0.99586266
0.99587056
0.99587816
0.99588459
0.99588946
0.99589264
0.99589428
0.99589456
0.99589434
0.99586266
0.99587094
0.99588041
0.99588916
0.99589638
0.99590171
0.99590505
0.99590645
0.99590587
0.99590408
0.99587056
0.99588041
0.99589158
0.9959017
0.99590984
0.99591564
0.99591893
0.99591971
0.99591784
0.99591447
0.99587816
0.99588916
0.9959017
0.99591296
0.99592187
0.99592799
0.9959311
0.99593117
0.99592813
0.99592358
0.99588459
0.99589638
0.99590984
0.99592187
0.99593126
0.99593753
0.99594043
0.99593994
0.99593606
0.99593072
0.99588946
0.99590171
0.99591564
0.99592799
0.99593753
0.99594379
0.99594654
0.99594572
0.99594138
0.99593557
0.99589264
0.99590505
0.99591893
0.9959311
0.99594043
0.99594654
0.99594921
0.99594836
0.99594397
0.99593801
0.99589428
0.99590645
0.99591971
0.99593117
0.99593994
0.99594572
0.99594836
0.99594777
0.9959438
0.99593809
0.99589456
0.99590587
0.99591784
0.99592813
0.99593606
0.99594138
0.99594397
0.9959438
0.9959407
0.99593587
0.99589434
0.99590408
0.99591447
0.99592358
0.99593072
0.99593557
0.99593801
0.99593809
0.99593587
0.99593235
0.99487216
0.9948795
0.99488892
0.99489814
0.99490598
0.99491187
0.99491563
0.99491738
0.99491729
0.99491641
0.9948795
0.99488894
0.99490029
0.99491094
0.99491976
0.99492623
0.99493017
0.99493159
0.99493037
0.99492755
0.99488892
0.99490029
0.99491374
0.99492609
0.99493606
0.99494311
0.99494698
0.99494759
0.99494475
0.99493996
0.99489814
0.99491094
0.99492609
0.99493987
0.99495079
0.99495823
0.99496187
0.99496159
0.99495729
0.99495103
0.99490598
0.99491976
0.99493606
0.99495079
0.99496231
0.99496993
0.99497331
0.99497233
0.99496697
0.99495973
0.99491187
0.99492623
0.99494311
0.99495823
0.99496993
0.99497756
0.99498074
0.99497937
0.99497343
0.9949656
0.99491563
0.99493017
0.99494698
0.99496187
0.99497331
0.99498074
0.99498384
0.99498244
0.99497646
0.99496846
0.99491738
0.99493159
0.99494759
0.99496159
0.99497233
0.99497937
0.99498244
0.99498138
0.99497596
0.99496833
0.99491729
0.99493037
0.99494475
0.99495729
0.99496697
0.99497343
0.99497646
0.99497596
0.99497169
0.99496524
0.99491641
0.99492755
0.99493996
0.99495103
0.99495973
0.9949656
0.99496846
0.99496833
0.99496524
0.99496057
0.99386388
0.99387197
0.99388282
0.99389359
0.99390278
0.99390963
0.99391387
0.99391558
0.99391495
0.99391329
0.99387197
0.99388242
0.9938955
0.99390798
0.99391834
0.99392589
0.99393031
0.99393158
0.99392952
0.99392558
0.99388282
0.9938955
0.99391108
0.9939256
0.99393734
0.99394557
0.99394989
0.99395016
0.99394614
0.99393985
0.99389359
0.99390798
0.9939256
0.99394183
0.99395471
0.9939634
0.99396743
0.99396662
0.99396083
0.99395278
0.99390278
0.99391834
0.99393734
0.99395471
0.99396831
0.99397722
0.99398094
0.99397928
0.99397222
0.99396298
0.99390963
0.99392589
0.99394557
0.9939634
0.99397722
0.99398612
0.99398962
0.99398749
0.99397975
0.99396982
0.99391387
0.99393031
0.99394989
0.99396743
0.99398094
0.99398962
0.99399301
0.99399087
0.99398311
0.99397301
0.99391558
0.99393158
0.99395016
0.99396662
0.99397928
0.99398749
0.99399087
0.99398917
0.99398213
0.99397254
0.99391495
0.99392952
0.99394614
0.99396083
0.99397222
0.99397975
0.99398311
0.99398213
0.99397654
0.99396847
0.99391329
0.99392558
0.99393985
0.99395278
0.99396298
0.99396982
0.99397301
0.99397254
0.99396847
0.99396265
0.99283076
0.99283953
0.99285169
0.99286393
0.99287439
0.99288212
0.99288672
0.99288824
0.99288691
0.99288441
0.99283953
0.99285083
0.99286553
0.99287974
0.99289156
0.99290008
0.99290486
0.9929058
0.99290275
0.99289764
0.99285169
0.99286553
0.99288308
0.99289966
0.9929131
0.9929224
0.99292703
0.99292676
0.99292139
0.99291359
0.99286393
0.99287974
0.99289966
0.99291824
0.992933
0.99294283
0.99294711
0.99294555
0.99293812
0.99292827
0.99287439
0.99289156
0.9929131
0.992933
0.9929486
0.99295868
0.99296259
0.99296004
0.99295112
0.99293988
0.99288212
0.99290009
0.9929224
0.99294283
0.99295868
0.99296877
0.99297241
0.99296933
0.99295963
0.9929476
0.99288672
0.99290486
0.99292703
0.99294711
0.99296259
0.99297241
0.99297596
0.99297288
0.9929632
0.99295101
0.99288824
0.9929058
0.99292676
0.99294555
0.99296004
0.99296932
0.99297288
0.99297037
0.9929616
0.99295008
0.99288691
0.99290275
0.99292139
0.99293812
0.99295112
0.99295963
0.9929632
0.9929616
0.9929546
0.99294497
0.99288441
0.99289764
0.99291359
0.99292826
0.99293988
0.9929476
0.99295101
0.99295008
0.99294497
0.99293805
0.99177218
0.99178155
0.99179492
0.99180853
0.99182018
0.99182868
0.99183351
0.99183469
0.99183255
0.99182918
0.99178155
0.99179363
0.99180979
0.99182562
0.99183881
0.99184819
0.99185317
0.9918536
0.99184944
0.99184316
0.99179492
0.99180979
0.99182916
0.99184768
0.9918627
0.99187295
0.99187772
0.99187672
0.9918699
0.99186061
0.99180853
0.99182562
0.99184768
0.99186847
0.991885
0.99189584
0.9919002
0.99189771
0.99188851
0.99187689
0.99182018
0.99183881
0.9918627
0.991885
0.99190248
0.99191361
0.99191753
0.9919139
0.99190301
0.99188982
0.99182868
0.99184819
0.99187295
0.99189584
0.99191361
0.99192473
0.99192837
0.99192414
0.99191238
0.99189831
0.99183351
0.99185317
0.99187772
0.9919002
0.99191753
0.99192837
0.9919319
0.99192772
0.99191603
0.99190184
0.99183469
0.9918536
0.99187672
0.99189771
0.9919139
0.99192413
0.99192772
0.99192424
0.99191366
0.99190034
0.99183255
0.99184944
0.9918699
0.99188851
0.99190301
0.99191238
0.99191603
0.99191366
0.99190522
0.99189414
0.99182918
0.99184316
0.99186061
0.99187689
0.99188982
0.99189831
0.99190184
0.99190034
0.99189414
0.9918862
0.99068746
0.9906974
0.99071188
0.99072676
0.99073948
0.99074864
0.99075356
0.99075425
0.99075121
0.99074696
0.9906974
0.99071017
0.99072767
0.99074501
0.99075944
0.99076954
0.99077457
0.99077432
0.99076897
0.99076156
0.99071188
0.99072767
0.99074872
0.99076903
0.9907855
0.99079655
0.99080129
0.9907994
0.99079103
0.99078032
0.99072676
0.99074501
0.99076903
0.99079188
0.99081003
0.99082173
0.99082598
0.99082238
0.99081136
0.99079806
0.99073948
0.99075944
0.9907855
0.99081003
0.99082924
0.99084125
0.99084501
0.99084013
0.99082722
0.99081217
0.99074864
0.99076954
0.99079655
0.99082173
0.99084125
0.99085326
0.9908567
0.99085117
0.99083732
0.99082132
0.99075356
0.99077457
0.9908013
0.99082598
0.99084501
0.9908567
0.99086006
0.99085463
0.9908409
0.99082485
0.99075425
0.99077432
0.9907994
0.99082238
0.99084013
0.99085117
0.99085463
0.99085005
0.99083766
0.99082269
0.99075121
0.99076897
0.99079103
0.99081136
0.99082722
0.99083732
0.9908409
0.99083766
0.99082776
0.99081539
0.99074696
0.99076156
0.99078032
0.99079806
0.99081217
0.99082132
0.99082485
0.99082269
0.99081539
0.99080654
0.98957592
0.98958638
0.98960187
0.98961791
0.98963159
0.98964127
0.98964615
0.98964623
0.98964222
0.98963712
0.98958638
0.9895998
0.98961853
0.98963722
0.98965276
0.98966344
0.98966836
0.9896673
0.98966069
0.98965221
0.98960187
0.98961853
0.98964109
0.98966304
0.9896808
0.98969249
0.98969704
0.98969409
0.98968415
0.9896721
0.98961791
0.98963722
0.98966304
0.98968778
0.98970738
0.98971976
0.98972372
0.98971888
0.989706
0.98969114
0.98963159
0.98965276
0.9896808
0.98970738
0.98972814
0.98974086
0.98974428
0.98973801
0.98972307
0.9897063
0.98964127
0.98966344
0.98969249
0.98971976
0.98974086
0.98975358
0.98975665
0.98974969
0.98973374
0.98971598
0.98964615
0.98966836
0.98969704
0.98972372
0.98974428
0.98975665
0.98975967
0.98975287
0.98973714
0.98971939
0.98964623
0.9896673
0.98969409
0.98971888
0.98973801
0.98974969
0.98975287
0.98974709
0.98973293
0.98971648
0.98964222
0.98966069
0.98968415
0.989706
0.98972307
0.98973374
0.98973714
0.98973293
0.98972161
0.9897081
0.98963712
0.98965221
0.9896721
0.98969114
0.9897063
0.98971598
0.98971939
0.98971648
0.9897081
0.98969845
0.98843681
0.98844777
0.98846419
0.98848127
0.98849578
0.98850585
0.98851055
0.9885099
0.98850488
0.98849897
0.98844777
0.9884618
0.98848164
0.98850156
0.98851806
0.98852915
0.98853381
0.98853182
0.98852393
0.98851445
0.98846419
0.98848164
0.98850559
0.98852901
0.98854789
0.98856004
0.98856422
0.98856011
0.98854859
0.98853531
0.98848127
0.98850156
0.98852901
0.98855544
0.98857631
0.98858919
0.9885927
0.98858649
0.98857178
0.98855548
0.98849578
0.98851806
0.98854789
0.98857631
0.98859843
0.98861167
0.98861458
0.98860682
0.98858987
0.98857153
0.98850585
0.98852916
0.98856004
0.98858919
0.98861167
0.9886249
0.98862745
0.98861897
0.98860098
0.98858161
0.98851055
0.98853381
0.98856422
0.9885927
0.98861458
0.98862745
0.98862997
0.98862172
0.98860405
0.98858479
0.98850991
0.98853182
0.98856011
0.98858649
0.98860682
0.98861897
0.98862172
0.98861467
0.98859882
0.98858108
0.98850488
0.98852393
0.98854859
0.98857178
0.98858987
0.98860098
0.98860405
0.98859882
0.98858614
0.98857167
0.98849897
0.98851445
0.98853531
0.98855548
0.98857153
0.98858161
0.98858479
0.98858108
0.98857167
0.98856131
0.98726939
0.98728082
0.98729808
0.98731608
0.98733129
0.98734161
0.987346
0.98734455
0.98733849
0.98733182
0.98728082
0.98729542
0.98731627
0.98733727
0.98735458
0.98736594
0.98737019
0.98736718
0.98735801
0.98734761
0.98729808
0.98731628
0.98734147
0.98736619
0.98738602
0.98739845
0.98740212
0.98739676
0.98738368
0.98736928
0.98731608
0.98733727
0.98736619
0.98739413
0.98741607
0.98742925
0.98743216
0.98742451
0.987408
0.9873904
0.98733129
0.98735458
0.98738602
0.98741607
0.98743934
0.9874529
0.98745515
0.98744583
0.98742694
0.98740719
0.98734161
0.98736594
0.98739845
0.98742925
0.9874529
0.98746646
0.98746834
0.98745827
0.98743832
0.98741752
0.987346
0.98737019
0.98740212
0.98743216
0.98745515
0.98746834
0.98747022
0.98746047
0.98744096
0.98742038
0.98734455
0.98736718
0.98739676
0.98742451
0.98744583
0.98745827
0.98746047
0.9874521
0.98743466
0.98741583
0.98733849
0.98735801
0.98738368
0.987408
0.98742694
0.98743832
0.98744096
0.98743466
0.98742072
0.98740543
0.98733182
0.98734761
0.98736928
0.9873904
0.98740719
0.98741752
0.98742037
0.98741583
0.98740543
0.98739447
0.98607286
0.98608474
0.98610276
0.98612155
0.98613733
0.98614777
0.98615174
0.9861494
0.98614232
0.98613492
0.98608474
0.98609989
0.98612165
0.98614359
0.98616154
0.98617301
0.98617673
0.98617263
0.98616221
0.98615095
0.98610276
0.98612165
0.98614796
0.98617382
0.98619441
0.98620696
0.98620998
0.9862033
0.98618871
0.98617329
0.98612156
0.98614359
0.98617382
0.98620306
0.98622588
0.98623919
0.98624135
0.9862322
0.98621397
0.9861952
0.98613733
0.98616154
0.98619441
0.98622588
0.98625009
0.98626378
0.98626522
0.9862543
0.98623357
0.98621256
0.98614777
0.98617301
0.98620696
0.98623919
0.98626378
0.98627747
0.98627854
0.98626687
0.98624507
0.98622302
0.98615174
0.98617673
0.98620998
0.98624135
0.98626522
0.98627854
0.98627966
0.98626841
0.98624717
0.98622545
0.9861494
0.98617263
0.9862033
0.9862322
0.9862543
0.98626686
0.98626841
0.98625872
0.98623979
0.98622005
0.98614232
0.98616221
0.98618871
0.98621396
0.98623357
0.98624507
0.98624717
0.98623979
0.98622468
0.98620872
0.98613492
0.98615095
0.98617328
0.9861952
0.98621256
0.98622302
0.98622545
0.98622005
0.98620872
0.98619726
0.98484641
0.98485871
0.98487741
0.98489689
0.9849131
0.98492352
0.98492697
0.9849237
0.9849156
0.98490753
0.98485871
0.98487438
0.98489695
0.98491969
0.98493814
0.98494958
0.98495266
0.98494742
0.98493578
0.98492374
0.98487741
0.98489695
0.98492426
0.98495108
0.98497226
0.98498476
0.98498702
0.98497899
0.98496294
0.9849466
0.98489689
0.98491969
0.98495108
0.98498144
0.98500493
0.98501819
0.98501949
0.98500882
0.98498895
0.98496914
0.9849131
0.98493814
0.98497226
0.98500493
0.98502986
0.98504351
0.98504404
0.98503151
0.98500905
0.98498693
0.98492352
0.98494958
0.98498477
0.98501819
0.98504351
0.98505715
0.98505731
0.98504403
0.98502051
0.98499738
0.98492697
0.98495266
0.98498702
0.98501949
0.98504404
0.98505731
0.98505757
0.98504482
0.98502199
0.98499931
0.9849237
0.98494742
0.98497899
0.98500882
0.98503151
0.98504403
0.98504482
0.98503381
0.98501354
0.98499304
0.9849156
0.98493578
0.98496294
0.98498895
0.98500905
0.98502051
0.98502199
0.98501354
0.98499736
0.98498086
0.98490753
0.98492374
0.9849466
0.98496914
0.98498693
0.98499738
0.98499931
0.98499304
0.98498086
0.98496898
0.98358919
0.98360188
0.98362118
0.98364123
0.98365774
0.98366803
0.98367088
0.98366664
0.98365755
0.98364886
0.98360188
0.98361805
0.98364134
0.98366475
0.98368354
0.98369481
0.98369716
0.98369076
0.98367794
0.9836652
0.98362119
0.98364134
0.98366953
0.98369716
0.98371875
0.98373106
0.98373245
0.98372305
0.98370563
0.98368847
0.98364123
0.98366475
0.98369716
0.98372844
0.98375241
0.98376546
0.9837658
0.98375362
0.98373221
0.98371147
0.98365774
0.98368354
0.98371875
0.98375241
0.98377786
0.98379129
0.98379082
0.9837767
0.98375262
0.98372953
0.98366804
0.98369481
0.98373106
0.98376546
0.98379129
0.98380473
0.98380389
0.98378903
0.98376393
0.98373986
0.98367088
0.98369716
0.98373245
0.9837658
0.98379082
0.98380389
0.98380321
0.98378898
0.98376472
0.98374123
0.98366664
0.98369076
0.98372305
0.98375362
0.9837767
0.98378903
0.98378898
0.9837767
0.98375522
0.9837341
0.98365755
0.98367794
0.98370563
0.98373221
0.98375262
0.98376393
0.98376472
0.98375522
0.98373806
0.98372113
0.98364886
0.9836652
0.98368847
0.98371147
0.98372953
0.98373986
0.98374123
0.9837341
0.98372113
0.9837089
0.98230034
0.98231339
0.98233322
0.98235372
0.98237042
0.98238047
0.98238264
0.98237742
0.98236737
0.9823581
0.98231339
0.98233001
0.98235394
0.98237789
0.98239689
0.98240787
0.98240941
0.98240186
0.98238792
0.98237453
0.98233322
0.98235394
0.9823829
0.98241118
0.98243303
0.98244501
0.98244546
0.98243472
0.982416
0.98239809
0.98235372
0.98237789
0.98241118
0.98244321
0.98246748
0.98248018
0.98247949
0.98246582
0.98244298
0.98242142
0.98237042
0.98239689
0.98243303
0.98246748
0.98249326
0.98250633
0.98250478
0.98248911
0.98246355
0.98243961
0.98238047
0.98240787
0.98244501
0.98248018
0.98250633
0.9825194
0.9825175
0.98250112
0.98247457
0.98244971
0.98238264
0.98240941
0.98244546
0.98247949
0.98250478
0.9825175
0.98251582
0.98250019
0.98247462
0.98245047
0.98237742
0.98240186
0.98243472
0.98246582
0.98248911
0.98250112
0.98250019
0.98248668
0.9824641
0.9824425
0.98236737
0.98238792
0.982416
0.98244298
0.98246355
0.98247457
0.98247462
0.9824641
0.98244608
0.98242881
0.9823581
0.98237453
0.98239809
0.98242142
0.98243961
0.9824497
0.98245046
0.9824425
0.98242881
0.98241628
0.98097894
0.98099233
0.98101261
0.98103347
0.98105023
0.98105996
0.9810614
0.98105519
0.98104422
0.98103441
0.98099233
0.98100937
0.98103385
0.98105822
0.9810773
0.9810879
0.98108858
0.98107988
0.98106488
0.98105089
0.98101261
0.98103385
0.98106349
0.98109227
0.98111423
0.98112576
0.98112523
0.98111316
0.98109323
0.98107465
0.98103347
0.98105822
0.98109227
0.98112489
0.9811493
0.98116152
0.98115974
0.98114463
0.98112047
0.98109818
0.98105024
0.9810773
0.98111423
0.9811493
0.98117523
0.9811878
0.98118514
0.98116797
0.98114104
0.98111637
0.98105996
0.9810879
0.98112576
0.98116152
0.9811878
0.98120039
0.98119738
0.98117953
0.98115168
0.98112614
0.9810614
0.98108858
0.98112523
0.98115974
0.98118513
0.98119738
0.98119467
0.98117768
0.98115095
0.98112625
0.9810552
0.98107988
0.98111316
0.98114463
0.98116797
0.98117953
0.98117768
0.981163
0.98113945
0.98111747
0.98104422
0.98106488
0.98109322
0.98112046
0.98114104
0.98115168
0.98115095
0.98113945
0.98112065
0.98110312
0.98103441
0.98105089
0.98107465
0.98109818
0.98111637
0.98112614
0.98112625
0.98111746
0.98110312
0.98109036
0.9796241
0.97963778
0.97965844
0.97967956
0.9796963
0.97970561
0.97970628
0.97969911
0.97968726
0.97967696
0.97963778
0.97965521
0.97968016
0.97970484
0.97972389
0.97973401
0.9797338
0.97972397
0.97970797
0.97969345
0.97965844
0.97968016
0.97971036
0.97973953
0.97976147
0.97977246
0.9797709
0.97975756
0.97973649
0.97971731
0.97967956
0.97970484
0.97973953
0.97977258
0.97979698
0.97980862
0.97980574
0.97978923
0.97976385
0.97974093
0.9796963
0.97972389
0.97976147
0.97979698
0.97982291
0.97983488
0.97983107
0.97981247
0.97978431
0.97975901
0.97970561
0.97973401
0.97977246
0.97980862
0.97983488
0.97984687
0.97984274
0.9798235
0.97979448
0.97976837
0.97970628
0.9797338
0.9797709
0.97980574
0.97983107
0.97984274
0.97983897
0.97982071
0.97979294
0.9797678
0.97969911
0.97972397
0.97975756
0.97978923
0.97981247
0.9798235
0.97982071
0.97980492
0.97978052
0.97975823
0.97968726
0.97970797
0.97973649
0.97976385
0.97978431
0.97979447
0.97979294
0.97978052
0.97976103
0.97974329
0.97967696
0.97969345
0.97971731
0.97974093
0.97975901
0.97976837
0.9797678
0.97975823
0.97974329
0.97973033
0.97823485
0.97824879
0.97826977
0.97829106
0.97830768
0.97831653
0.9783164
0.97830828
0.9782956
0.97828484
0.97824879
0.97826658
0.97829192
0.97831681
0.97833573
0.97834531
0.97834419
0.97833327
0.97831633
0.97830131
0.97826977
0.97829192
0.9783226
0.97835203
0.97837384
0.97838422
0.97838162
0.97836704
0.97834493
0.97832522
0.97829106
0.97831681
0.97835203
0.97838538
0.97840965
0.97842063
0.97841663
0.97839879
0.9783723
0.97834881
0.97830769
0.97833574
0.97837384
0.97840965
0.97843543
0.97844673
0.97844177
0.97842182
0.97839253
0.97836668
0.97831653
0.97834531
0.97838422
0.97842063
0.97844673
0.97845803
0.97845277
0.97843224
0.97840216
0.97837557
0.9783164
0.97834419
0.97838163
0.97841663
0.97844177
0.97845277
0.97844796
0.9784285
0.97839981
0.97837431
0.97830828
0.97833327
0.97836704
0.97839879
0.97842182
0.97843224
0.9784285
0.97841167
0.97838652
0.97836399
0.9782956
0.97831633
0.97834493
0.97837229
0.97839253
0.97840215
0.97839981
0.97838652
0.97836641
0.97834851
0.97828484
0.97830131
0.97832522
0.97834881
0.97836668
0.97837557
0.9783743
0.97836399
0.97834851
0.97833539
0.97681025
0.97682441
0.97684565
0.97686703
0.97688346
0.97689178
0.97689085
0.97688181
0.97686835
0.97685717
0.97682441
0.97684251
0.97686818
0.97689319
0.9769119
0.97692088
0.97691884
0.97690688
0.97688907
0.9768736
0.97684565
0.97686818
0.97689925
0.97692884
0.97695042
0.97696013
0.9769565
0.97694075
0.97691767
0.97689747
0.97686703
0.97689319
0.97692884
0.97696237
0.97698639
0.97699666
0.97699155
0.97697246
0.97694494
0.97692095
0.97688346
0.9769119
0.97695042
0.9769864
0.97701192
0.97702248
0.97701638
0.97699516
0.97696486
0.97693854
0.97689178
0.97692088
0.97696013
0.97699666
0.97702248
0.97703304
0.97702667
0.97700491
0.97697389
0.97694691
0.97689085
0.97691884
0.9769565
0.97699155
0.97701638
0.97702667
0.97702081
0.97700025
0.97697074
0.97694494
0.97688181
0.97690688
0.97694075
0.97697246
0.97699516
0.97700491
0.97700025
0.97698245
0.97695663
0.97693392
0.97686835
0.97688907
0.97691767
0.97694494
0.97696486
0.97697389
0.97697074
0.97695663
0.97693597
0.97691795
0.97685716
0.9768736
0.97689747
0.97692095
0.97693853
0.97694691
0.97694494
0.97693392
0.97691795
0.97690469
0.97534929
0.97536365
0.97538508
0.97540648
0.97542266
0.97543042
0.97542869
0.97541877
0.97540458
0.975393
0.97536365
0.97538202
0.97540794
0.975433
0.97545143
0.97545978
0.97545683
0.97544388
0.97542526
0.97540937
0.97538508
0.97540794
0.97543933
0.97546899
0.97549027
0.97549927
0.97549463
0.97547777
0.97545381
0.97543316
0.97540649
0.975433
0.97546899
0.97550259
0.9755263
0.97553581
0.97552961
0.97550935
0.9754809
0.97545647
0.97542266
0.97545143
0.97549027
0.9755263
0.97555148
0.97556125
0.97555405
0.97553164
0.97550043
0.9754737
0.97543042
0.97545978
0.97549927
0.97553581
0.97556125
0.97557103
0.97556358
0.97554069
0.97550884
0.97548151
0.97542869
0.97545683
0.97549463
0.97552961
0.97555404
0.97556358
0.97555671
0.97553512
0.97550489
0.97547885
0.97541877
0.97544388
0.97547777
0.97550935
0.97553164
0.97554069
0.97553511
0.97551642
0.97549001
0.97546716
0.97540458
0.97542526
0.97545381
0.9754809
0.97550043
0.97550883
0.97550489
0.97549001
0.97546887
0.97545075
0.975393
0.97540937
0.97543316
0.97545647
0.9754737
0.97548151
0.97547885
0.97546716
0.97545075
0.97543736
0.97385099
0.97386551
0.97388707
0.97390844
0.97392432
0.9739315
0.97392898
0.97391822
0.97390335
0.97389141
0.97386551
0.9738841
0.97391022
0.97393526
0.97395336
0.97396106
0.97395723
0.97394334
0.97392397
0.9739077
0.97388707
0.97391022
0.97394186
0.97397151
0.97399243
0.97400071
0.97399508
0.97397719
0.97395241
0.97393137
0.97390845
0.97393526
0.97397151
0.97400511
0.97402843
0.97403716
0.97402991
0.97400855
0.97397926
0.97395443
0.97392432
0.97395337
0.97399243
0.97402843
0.97405319
0.97406216
0.97405388
0.97403039
0.97399836
0.97397126
0.9739315
0.97396106
0.97400071
0.97403716
0.97406216
0.97407114
0.97406264
0.97403871
0.97400611
0.9739785
0.97392898
0.97395723
0.97399508
0.97402991
0.97405388
0.97406264
0.97405479
0.97403225
0.9740014
0.97397516
0.97391822
0.97394334
0.97397719
0.97400855
0.97403039
0.97403871
0.97403225
0.97401273
0.9739858
0.97396283
0.97390335
0.97392397
0.97395241
0.97397926
0.97399835
0.97400611
0.97400139
0.9739858
0.97396422
0.97394602
0.97389141
0.9739077
0.97393136
0.97395443
0.97397126
0.97397849
0.97397516
0.97396283
0.97394602
0.97393253
0.97231432
0.97232896
0.97235062
0.9723719
0.97238744
0.97239403
0.97239075
0.97237919
0.97236369
0.97235142
0.97232896
0.97234775
0.97237401
0.97239898
0.97241671
0.97242375
0.97241906
0.97240429
0.97238423
0.97236762
0.97235062
0.97237401
0.97240583
0.97243542
0.97245593
0.97246348
0.97245691
0.97243805
0.97241252
0.97239112
0.97237191
0.97239898
0.97243542
0.97246894
0.97249182
0.97249977
0.97249152
0.97246915
0.97243909
0.97241391
0.97238745
0.97241671
0.97245593
0.97249182
0.97251613
0.97252429
0.97251499
0.97249048
0.97245771
0.9724303
0.97239403
0.97242375
0.97246348
0.97249977
0.97252429
0.97253246
0.97252296
0.97249807
0.97246481
0.97243695
0.97239075
0.97241906
0.97245691
0.97249152
0.97251498
0.97252296
0.97251418
0.97249077
0.97245935
0.97243295
0.97237919
0.97240429
0.97243805
0.97246915
0.97249048
0.97249807
0.97249077
0.97247049
0.97244309
0.97242003
0.97236369
0.97238423
0.97241252
0.97243909
0.97245771
0.9724648
0.97245935
0.97244309
0.97242112
0.97240285
0.97235142
0.97236762
0.97239112
0.97241391
0.9724303
0.97243694
0.97243295
0.97242003
0.97240285
0.97238926
0.97073824
0.97075298
0.97077469
0.97079585
0.97081102
0.97081702
0.970813
0.9708007
0.97078461
0.97077204
0.97075298
0.97077193
0.97079828
0.97082313
0.97084047
0.97084685
0.97084135
0.97082576
0.97080507
0.97078814
0.97077469
0.97079828
0.97083023
0.9708597
0.97087978
0.97088661
0.97087914
0.97085939
0.97083318
0.97081145
0.97079585
0.97082313
0.9708597
0.97089309
0.97091551
0.97092269
0.97091348
0.97089018
0.97085943
0.97083393
0.97081103
0.97084047
0.97087979
0.97091551
0.97093932
0.97094668
0.97093642
0.97091098
0.97087755
0.97084986
0.97081702
0.97084685
0.97088662
0.97092269
0.97094668
0.97095406
0.97094362
0.97091786
0.970884
0.97085592
0.970813
0.97084135
0.97087914
0.97091348
0.97093642
0.97094362
0.97093396
0.97090975
0.97087783
0.97085129
0.9708007
0.97082576
0.97085939
0.97089018
0.97091098
0.97091786
0.97090975
0.97088877
0.97086096
0.97083782
0.97078461
0.97080507
0.97083318
0.97085943
0.97087755
0.970884
0.97087783
0.97086096
0.97083863
0.9708203
0.97077204
0.97078813
0.97081145
0.97083393
0.97084986
0.97085592
0.97085129
0.97083781
0.9708203
0.97080663
0.9691217
0.96913651
0.96915824
0.96917924
0.96919404
0.96919945
0.96919473
0.96918174
0.96916511
0.96915226
0.96913651
0.96915558
0.96918199
0.96920669
0.96922362
0.96922936
0.96922309
0.96920674
0.96918547
0.96916825
0.96915824
0.969182
0.96921403
0.96924334
0.96926298
0.96926911
0.96926079
0.96924021
0.96921339
0.96919137
0.96917924
0.96920669
0.96924334
0.96927656
0.9692985
0.96930493
0.96929483
0.96927067
0.9692393
0.96921352
0.96919404
0.96922362
0.96926298
0.9692985
0.9693218
0.96932839
0.96931722
0.96929094
0.96925692
0.96922898
0.96919945
0.96922937
0.96926911
0.96930493
0.96932839
0.969335
0.96932368
0.96929712
0.96926273
0.96923446
0.96919473
0.96922309
0.96926079
0.96929483
0.96931722
0.96932368
0.96931319
0.96928826
0.96925589
0.96922922
0.96918174
0.96920674
0.96924021
0.96927067
0.96929094
0.96929711
0.96928826
0.96926663
0.96923845
0.96921523
0.96916511
0.96918547
0.96921339
0.9692393
0.96925692
0.96926272
0.96925589
0.96923845
0.9692158
0.96919741
0.96915226
0.96916825
0.96919136
0.96921352
0.96922898
0.96923446
0.96922922
0.96921523
0.96919741
0.96918365
0.96746364
0.96747849
0.96750021
0.96752103
0.96753544
0.9675403
0.96753491
0.96752128
0.96750416
0.96749105
0.96747849
0.96749766
0.96752409
0.96754861
0.96756513
0.96757026
0.96756326
0.96754621
0.96752441
0.96750693
0.96750021
0.96752409
0.96755617
0.9675853
0.96760449
0.96760995
0.96760084
0.96757951
0.96755213
0.96752983
0.96752103
0.96754861
0.9675853
0.96761832
0.96763978
0.96764549
0.96763456
0.96760962
0.96757769
0.96755165
0.96753545
0.96756513
0.96760449
0.96763978
0.96766257
0.96766843
0.96765641
0.96762936
0.96759481
0.96756665
0.9675403
0.96757026
0.96760995
0.96764549
0.96766843
0.96767429
0.96766216
0.96763487
0.9676
0.96757157
0.96753492
0.96756326
0.96760084
0.96763456
0.96765641
0.96766216
0.9676509
0.96762531
0.96759254
0.96756576
0.96752128
0.96754621
0.96757951
0.96760962
0.96762936