/*--------------------------------*- C++ -*----------------------------------*\
| =========                 |                                                 |
| \\      /  F ield         | OpenFOAM: The Open Source CFD Toolbox           |
|  \\    /   O peration     | Version:  dev                                   |
|   \\  /    A nd           | Web:      www.OpenFOAM.org                      |
|    \\/     M anipulation  |                                                 |
\*---------------------------------------------------------------------------*/
FoamFile
{
    version     2.0;
    format      ascii;
    class       volScalarField;
    location    "5";
    object      A_0;
}
// * * * * * * * * * * * * * * * * * * * * * * * * * * * * * * * * * * * * * //

dimensions      [0 0 0 0 1 0 0];

internalField   nonuniform List<scalar> 
10000
(
0.9995595
0.99956041
0.99956132
0.99956215
0.99956286
0.99956339
0.99956375
0.99956397
0.9995641
0.9995643
0.99956041
0.99956153
0.99956261
0.99956356
0.99956434
0.99956492
0.9995653
0.9995655
0.99956555
0.9995656
0.99956132
0.99956261
0.99956386
0.99956495
0.99956582
0.99956645
0.99956683
0.99956696
0.99956689
0.99956678
0.99956215
0.99956356
0.99956495
0.99956616
0.99956711
0.99956777
0.99956813
0.9995682
0.99956801
0.99956778
0.99956286
0.99956434
0.99956582
0.99956711
0.99956811
0.99956879
0.99956913
0.99956914
0.99956886
0.99956856
0.99956339
0.99956492
0.99956645
0.99956777
0.99956879
0.99956947
0.99956979
0.99956977
0.99956944
0.99956909
0.99956375
0.9995653
0.99956683
0.99956813
0.99956913
0.99956979
0.99957011
0.99957007
0.99956974
0.99956937
0.99956397
0.9995655
0.99956696
0.9995682
0.99956914
0.99956977
0.99957007
0.99957006
0.99956977
0.99956942
0.9995641
0.99956555
0.99956689
0.99956801
0.99956886
0.99956944
0.99956974
0.99956977
0.99956955
0.99956927
0.9995643
0.9995656
0.99956678
0.99956778
0.99956856
0.99956909
0.99956937
0.99956942
0.99956927
0.99956908
0.99866617
0.99866881
0.99867154
0.99867406
0.99867618
0.9986778
0.9986789
0.99867955
0.99867991
0.99868039
0.99866881
0.99867209
0.99867533
0.99867821
0.99868057
0.99868233
0.99868348
0.99868406
0.99868419
0.99868419
0.99867154
0.99867533
0.9986791
0.99868241
0.99868505
0.99868696
0.9986881
0.99868849
0.99868823
0.99868775
0.99867406
0.99867821
0.99868241
0.99868607
0.99868896
0.99869097
0.99869205
0.99869223
0.99869161
0.99869077
0.99867619
0.99868057
0.99868505
0.99868896
0.998692
0.99869405
0.99869508
0.99869508
0.9986942
0.99869312
0.9986778
0.99868233
0.99868696
0.99869097
0.99869405
0.99869611
0.99869708
0.99869698
0.99869595
0.99869473
0.9986789
0.99868348
0.9986881
0.99869205
0.99869508
0.99869708
0.99869802
0.99869791
0.99869686
0.99869558
0.99867955
0.99868406
0.99868849
0.99869223
0.99869508
0.99869698
0.99869791
0.99869786
0.99869693
0.99869572
0.99867991
0.99868419
0.99868823
0.99869161
0.9986942
0.99869595
0.99869686
0.99869693
0.99869623
0.99869524
0.99868039
0.99868419
0.99868775
0.99869077
0.99869312
0.99869473
0.99869558
0.99869572
0.99869524
0.99869454
0.99775032
0.99775446
0.99775899
0.99776322
0.99776678
0.99776949
0.99777132
0.99777238
0.99777287
0.99777338
0.99775446
0.99775968
0.99776507
0.99776991
0.99777389
0.99777684
0.99777876
0.9977797
0.99777978
0.99777946
0.99775899
0.99776507
0.99777137
0.99777694
0.9977814
0.99778461
0.9977865
0.99778713
0.99778654
0.99778539
0.99776322
0.99776991
0.99777694
0.99778312
0.99778799
0.99779137
0.99779317
0.99779342
0.99779222
0.99779045
0.99776678
0.99777389
0.9977814
0.99778799
0.99779312
0.99779658
0.99779827
0.99779823
0.99779658
0.9977944
0.9977695
0.99777684
0.99778461
0.99779137
0.99779658
0.99780003
0.99780164
0.99780143
0.99779953
0.9977971
0.99777132
0.99777876
0.9977865
0.99779317
0.99779827
0.99780164
0.99780321
0.99780297
0.99780103
0.99779851
0.99777238
0.9977797
0.99778713
0.99779342
0.99779823
0.99780143
0.99780297
0.99780285
0.99780111
0.9977987
0.99777287
0.99777978
0.99778654
0.99779222
0.99779658
0.99779953
0.99780103
0.99780111
0.99779981
0.9977978
0.99777338
0.99777946
0.99778539
0.99779045
0.9977944
0.9977971
0.99779851
0.9977987
0.9977978
0.99779634
0.99681167
0.99681707
0.99682334
0.99682927
0.99683428
0.99683809
0.99684062
0.99684201
0.99684249
0.99684275
0.99681707
0.99682396
0.99683145
0.99683826
0.99684386
0.99684802
0.99685067
0.99685191
0.99685176
0.99685083
0.99682334
0.99683145
0.99684023
0.99684809
0.9968544
0.99685891
0.99686154
0.9968623
0.99686118
0.99685904
0.99682927
0.99683826
0.99684809
0.99685682
0.99686371
0.99686846
0.99687096
0.99687119
0.99686919
0.99686616
0.99683428
0.99684386
0.9968544
0.99686371
0.99687097
0.99687584
0.99687818
0.99687798
0.99687534
0.99687171
0.99683809
0.99684802
0.99685891
0.99686846
0.99687584
0.99688071
0.99688293
0.99688248
0.99687949
0.9968755
0.99684062
0.99685067
0.99686154
0.99687096
0.99687818
0.99688293
0.99688508
0.9968846
0.99688156
0.99687745
0.99684201
0.99685191
0.9968623
0.99687119
0.99687798
0.99688248
0.9968846
0.99688431
0.99688157
0.99687764
0.99684249
0.99685176
0.99686118
0.99686919
0.99687534
0.99687948
0.99688156
0.99688157
0.99687947
0.99687615
0.99684275
0.99685083
0.99685904
0.99686616
0.99687171
0.9968755
0.99687745
0.99687764
0.99687615
0.99687372
0.9958498
0.99585626
0.99586417
0.99587178
0.99587822
0.9958831
0.99588628
0.99588792
0.99588821
0.99588798
0.99585626
0.99586455
0.99587404
0.9958828
0.99589003
0.99589537
0.99589871
0.99590012
0.99589953
0.99589774
0.99586417
0.99587404
0.99588522
0.99589536
0.99590351
0.99590932
0.99591262
0.99591339
0.99591152
0.99590814
0.99587178
0.9958828
0.99589536
0.99590664
0.99591556
0.99592168
0.9959248
0.99592487
0.99592183
0.99591727
0.99587822
0.99589003
0.99590351
0.99591556
0.99592496
0.99593124
0.99593415
0.99593366
0.99592977
0.99592442
0.9958831
0.99589537
0.99590932
0.99592168
0.99593124
0.99593751
0.99594027
0.99593945
0.9959351
0.99592928
0.99588628
0.99589871
0.99591262
0.9959248
0.99593415
0.99594027
0.99594294
0.99594209
0.99593769
0.99593172
0.99588792
0.99590012
0.99591339
0.99592487
0.99593365
0.99593945
0.99594209
0.9959415
0.99593752
0.99593181
0.99588821
0.99589953
0.99591152
0.99592183
0.99592977
0.9959351
0.99593769
0.99593752
0.99593442
0.99592958
0.99588798
0.99589774
0.99590814
0.99591727
0.99592442
0.99592928
0.99593172
0.99593181
0.99592958
0.99592606
0.99486423
0.99487157
0.99488101
0.99489024
0.99489809
0.994904
0.99490776
0.99490951
0.99490942
0.99490854
0.99487157
0.99488103
0.9948924
0.99490307
0.99491189
0.99491838
0.99492232
0.99492374
0.99492252
0.9949197
0.99488101
0.9948924
0.99490586
0.99491824
0.99492822
0.99493528
0.99493916
0.99493977
0.99493692
0.99493213
0.99489025
0.99490307
0.99491824
0.99493204
0.99494298
0.99495043
0.99495407
0.9949538
0.99494948
0.99494322
0.99489809
0.99491189
0.99492822
0.99494298
0.99495451
0.99496215
0.99496554
0.99496455
0.99495918
0.99495193
0.994904
0.99491838
0.99493528
0.99495043
0.99496215
0.99496978
0.99497297
0.9949716
0.99496565
0.99495781
0.99490776
0.99492232
0.99493916
0.99495407
0.99496553
0.99497297
0.99497607
0.99497467
0.99496868
0.99496067
0.99490951
0.99492375
0.99493977
0.9949538
0.99496455
0.9949716
0.99497467
0.99497361
0.99496818
0.99496054
0.99490942
0.99492252
0.99493692
0.99494948
0.99495918
0.99496565
0.99496868
0.99496818
0.9949639
0.99495745
0.99490854
0.9949197
0.99493213
0.99494322
0.99495193
0.99495781
0.99496067
0.99496054
0.99495745
0.99495277
0.99385438
0.99386249
0.99387335
0.99388414
0.99389334
0.99390021
0.99390445
0.99390616
0.99390553
0.99390387
0.99386249
0.99387295
0.99388605
0.99389855
0.99390893
0.99391648
0.99392092
0.99392218
0.99392013
0.99391618
0.99387335
0.99388605
0.99390165
0.99391619
0.99392796
0.99393619
0.99394052
0.99394079
0.99393676
0.99393047
0.99388414
0.99389855
0.99391619
0.99393245
0.99394535
0.99395405
0.99395809
0.99395728
0.99395148
0.99394342
0.99389334
0.99390893
0.99392796
0.99394535
0.99395897
0.9939679
0.99397162
0.99396996
0.99396289
0.99395364
0.99390021
0.99391649
0.99393619
0.99395405
0.9939679
0.99397682
0.99398032
0.99397818
0.99397043
0.99396048
0.99390445
0.99392092
0.99394052
0.99395809
0.99397162
0.99398032
0.99398371
0.99398157
0.99397379
0.99396368
0.99390616
0.99392219
0.99394079
0.99395728
0.99396996
0.99397818
0.99398157
0.99397987
0.99397282
0.99396321
0.99390553
0.99392013
0.99393676
0.99395148
0.99396289
0.99397043
0.99397379
0.99397282
0.99396722
0.99395913
0.99390387
0.99391618
0.99393047
0.99394342
0.99395364
0.99396048
0.99396368
0.99396321
0.99395913
0.9939533
0.99281966
0.99282844
0.99284062
0.99285288
0.99286336
0.9928711
0.9928757
0.99287723
0.9928759
0.9928734
0.99282844
0.99283977
0.99285448
0.99286872
0.99288056
0.99288909
0.99289388
0.99289481
0.99289176
0.99288664
0.99284062
0.99285448
0.99287206
0.99288867
0.99290212
0.99291144
0.99291608
0.99291581
0.99291043
0.99290262
0.99285288
0.99286872
0.99288867
0.99290727
0.99292206
0.99293191
0.99293619
0.99293463
0.99292719
0.99291732
0.99286336
0.99288056
0.99290212
0.99292206
0.99293768
0.99294778
0.9929517
0.99294914
0.99294021
0.99292895
0.9928711
0.99288909
0.99291144
0.99293191
0.99294778
0.99295788
0.99296154
0.99295844
0.99294873
0.99293668
0.9928757
0.99289388
0.99291608
0.99293619
0.9929517
0.99296154
0.99296508
0.99296201
0.99295231
0.9929401
0.99287723
0.99289481
0.99291581
0.99293463
0.99294914
0.99295844
0.992962
0.99295949
0.9929507
0.99293917
0.9928759
0.99289176
0.99291043
0.99292719
0.99294021
0.99294873
0.9929523
0.9929507
0.99294369
0.99293404
0.9928734
0.99288664
0.99290262
0.99291732
0.99292895
0.99293668
0.9929401
0.99293917
0.99293404
0.99292711
0.99175944
0.99176883
0.99178221
0.99179585
0.99180751
0.99181603
0.99182086
0.99182205
0.9918199
0.99181652
0.99176883
0.99178092
0.9917971
0.99181296
0.99182617
0.99183557
0.99184056
0.99184098
0.99183682
0.99183053
0.99178222
0.99179711
0.99181651
0.99183506
0.9918501
0.99186037
0.99186515
0.99186415
0.99185731
0.99184801
0.99179585
0.99181297
0.99183506
0.99185588
0.99187244
0.9918833
0.99188765
0.99188516
0.99187595
0.99186432
0.99180752
0.99182618
0.9918501
0.99187244
0.99188994
0.99190109
0.99190502
0.99190138
0.99189048
0.99187726
0.99181603
0.99183557
0.99186037
0.9918833
0.99190109
0.99191223
0.99191587
0.99191163
0.99189986
0.99188577
0.99182087
0.99184056
0.99186515
0.99188765
0.99190502
0.99191587
0.99191941
0.99191522
0.99190351
0.9918893
0.99182205
0.99184098
0.99186415
0.99188516
0.99190138
0.99191163
0.99191522
0.99191174
0.99190114
0.9918878
0.99181991
0.99183682
0.99185731
0.99187595
0.99189048
0.99189986
0.99190351
0.99190114
0.99189268
0.99188159
0.99181652
0.99183053
0.991848
0.99186431
0.99187726
0.99188577
0.9918893
0.9918878
0.99188159
0.99187364
0.99067304
0.99068299
0.99069749
0.99071239
0.99072514
0.99073431
0.99073924
0.99073993
0.99073689
0.99073263
0.99068299
0.99069578
0.99071331
0.99073067
0.99074513
0.99075525
0.99076028
0.99076004
0.99075467
0.99074725
0.99069749
0.99071331
0.99073439
0.99075474
0.99077123
0.99078229
0.99078705
0.99078515
0.99077677
0.99076604
0.9907124
0.99073067
0.99075474
0.99077762
0.9907958
0.99080752
0.99081177
0.99080817
0.99079713
0.99078381
0.99072514
0.99074513
0.99077123
0.9907958
0.99081504
0.99082707
0.99083084
0.99082595
0.99081302
0.99079795
0.99073431
0.99075525
0.99078229
0.99080752
0.99082707
0.9908391
0.99084254
0.990837
0.99082313
0.99080711
0.99073924
0.99076028
0.99078705
0.99081177
0.99083084
0.99084254
0.9908459
0.99084046
0.99082672
0.99081064
0.99073994
0.99076004
0.99078515
0.99080817
0.99082595
0.990837
0.99084046
0.99083588
0.99082347
0.99080848
0.99073689
0.99075467
0.99077677
0.99079713
0.99081302
0.99082313
0.99082672
0.99082347
0.99081356
0.99080116
0.99073263
0.99074725
0.99076604
0.99078381
0.99079794
0.99080711
0.99081064
0.99080848
0.99080116
0.9907923
0.98955977
0.98957025
0.98958576
0.98960183
0.98961553
0.98962522
0.98963011
0.98963019
0.98962617
0.98962107
0.98957025
0.98958369
0.98960244
0.98962117
0.98963673
0.98964743
0.98965235
0.98965129
0.98964467
0.98963618
0.98958577
0.98960245
0.98962505
0.98964703
0.98966482
0.98967652
0.98968108
0.98967813
0.98966817
0.9896561
0.98960183
0.98962117
0.98964703
0.9896718
0.98969144
0.98970384
0.98970781
0.98970296
0.98969006
0.98967517
0.98961553
0.98963673
0.98966482
0.98969144
0.98971223
0.98972497
0.9897284
0.98972212
0.98970715
0.98969036
0.98962523
0.98964743
0.98967652
0.98970384
0.98972497
0.98973771
0.98974079
0.98973382
0.98971784
0.98970005
0.98963011
0.98965235
0.98968108
0.98970781
0.9897284
0.98974079
0.98974381
0.989737
0.98972124
0.98970347
0.98963019
0.98965129
0.98967813
0.98970296
0.98972212
0.98973382
0.989737
0.98973121
0.98971703
0.98970056
0.98962617
0.98964467
0.98966817
0.98969006
0.98970715
0.98971784
0.98972124
0.98971703
0.98970569
0.98969216
0.98962107
0.98963618
0.9896561
0.98967517
0.98969036
0.98970005
0.98970346
0.98970056
0.98969216
0.98968249
0.9884189
0.98842987
0.98844632
0.98846342
0.98847796
0.98848804
0.98849275
0.9884921
0.98848707
0.98848115
0.98842987
0.98844392
0.98846379
0.98848374
0.98850027
0.98851138
0.98851605
0.98851405
0.98850616
0.98849666
0.98844632
0.98846379
0.98848778
0.98851124
0.98853015
0.98854231
0.98854651
0.98854239
0.98853085
0.98851755
0.98846342
0.98848374
0.98851124
0.98853771
0.98855862
0.98857151
0.98857503
0.98856881
0.98855407
0.98853775
0.98847796
0.98850027
0.98853015
0.98855862
0.98858077
0.98859403
0.98859694
0.98858917
0.9885722
0.98855383
0.98848804
0.98851138
0.98854232
0.98857151
0.98859403
0.98860728
0.98860984
0.98860134
0.98858332
0.98856392
0.98849275
0.98851605
0.98854651
0.98857503
0.98859694
0.98860984
0.98861236
0.9886041
0.9885864
0.98856711
0.9884921
0.98851406
0.98854239
0.98856881
0.98858917
0.98860134
0.9886041
0.98859703
0.98858115
0.98856339
0.98848707
0.98850616
0.98853085
0.98855407
0.98857219
0.98858332
0.9885864
0.98858115
0.98856846
0.98855396
0.98848115
0.98849666
0.98851755
0.98853775
0.98855383
0.98856392
0.9885671
0.98856339
0.98855396
0.98854359
0.98724966
0.98726111
0.9872784
0.98729642
0.98731166
0.98732199
0.98732639
0.98732493
0.98731887
0.98731219
0.98726111
0.98727574
0.98729662
0.98731765
0.98733498
0.98734636
0.98735062
0.9873476
0.98733842
0.987328
0.9872784
0.98729662
0.98732185
0.98734661
0.98736647
0.98737893
0.9873826
0.98737723
0.98736413
0.98734971
0.98729642
0.98731765
0.98734661
0.98737459
0.98739657
0.98740978
0.98741269
0.98740502
0.98738849
0.98737086
0.98731166
0.98733498
0.98736648
0.98739657
0.98741988
0.98743346
0.98743571
0.98742637
0.98740746
0.98738768
0.98732199
0.98734636
0.98737893
0.98740978
0.98743346
0.98744704
0.98744892
0.98743884
0.98741885
0.98739803
0.9873264
0.98735062
0.9873826
0.98741269
0.98743571
0.98744892
0.9874508
0.98744104
0.9874215
0.98740088
0.98732494
0.9873476
0.98737723
0.98740502
0.98742637
0.98743883
0.98744104
0.98743266
0.98741519
0.98739633
0.98731887
0.98733842
0.98736413
0.98738849
0.98740746
0.98741885
0.9874215
0.98741519
0.98740122
0.98738591
0.98731219
0.987328
0.9873497
0.98737086
0.98738768
0.98739802
0.98740088
0.98739633
0.98738591
0.98737494
0.98605127
0.98606317
0.98608122
0.98610004
0.98611585
0.98612629
0.98613028
0.98612793
0.98612084
0.98611343
0.98606317
0.98607834
0.98610014
0.98612211
0.98614009
0.98615158
0.98615531
0.9861512
0.98614076
0.98612949
0.98608122
0.98610014
0.98612649
0.98615239
0.98617301
0.98618558
0.98618861
0.98618192
0.9861673
0.98615185
0.98610004
0.98612211
0.98615239
0.98618167
0.98620453
0.98621786
0.98622002
0.98621086
0.9861926
0.9861738
0.98611585
0.98614009
0.98617301
0.98620453
0.98622878
0.98624249
0.98624394
0.986233
0.98621224
0.9861912
0.9861263
0.98615158
0.98618558
0.98621786
0.98624249
0.9862562
0.98625728
0.98624558
0.98622375
0.98620167
0.98613028
0.98615531
0.98618861
0.98622002
0.98624394
0.98625728
0.9862584
0.98624712
0.98622586
0.9862041
0.98612793
0.9861512
0.98618192
0.98621086
0.986233
0.98624558
0.98624712
0.98623742
0.98621847
0.98619869
0.98612084
0.98614076
0.9861673
0.9861926
0.98621224
0.98622375
0.98622586
0.98621847
0.98620333
0.98618735
0.98611343
0.98612949
0.98615185
0.9861738
0.98619119
0.98620167
0.9862041
0.98619869
0.98618735
0.98617587
0.98482291
0.98483523
0.98485396
0.98487347
0.9848897
0.98490014
0.9849036
0.98490032
0.98489221
0.98488413
0.98483523
0.98485093
0.98487354
0.98489631
0.98491479
0.98492624
0.98492933
0.98492408
0.98491242
0.98490037
0.98485396
0.98487354
0.98490089
0.98492775
0.98494897
0.98496149
0.98496374
0.9849557
0.98493963
0.98492326
0.98487347
0.98489631
0.98492775
0.98495815
0.98498168
0.98499496
0.98499626
0.98498558
0.98496568
0.98494584
0.98488971
0.98491479
0.98494897
0.98498168
0.98500666
0.98502032
0.98502085
0.9850083
0.98498581
0.98496365
0.98490014
0.98492624
0.98496149
0.98499496
0.98502032
0.98503399
0.98503415
0.98502085
0.98499729
0.98497412
0.98490361
0.98492933
0.98496374
0.98499626
0.98502085
0.98503415
0.98503441
0.98502163
0.98499878
0.98497606
0.98490032
0.98492408
0.9849557
0.98498558
0.9850083
0.98502085
0.98502163
0.98501061
0.98499031
0.98496978
0.98489221
0.98491242
0.98493963
0.98496568
0.98498581
0.98499729
0.98499877
0.98499031
0.9849741
0.98495758
0.98488413
0.98490037
0.98492326
0.98494584
0.98496365
0.98497412
0.98497606
0.98496978
0.98495758
0.98494567
0.98356374
0.98357645
0.98359578
0.98361586
0.9836324
0.98364271
0.98364556
0.98364131
0.98363221
0.9836235
0.98357645
0.98359264
0.98361597
0.98363941
0.98365823
0.98366952
0.98367187
0.98366547
0.98365263
0.98363987
0.98359578
0.98361597
0.98364421
0.98367187
0.9836935
0.98370583
0.98370722
0.98369781
0.98368036
0.98366317
0.98361586
0.98363942
0.98367188
0.98370321
0.98372721
0.98374028
0.98374062
0.98372842
0.98370699
0.98368622
0.9836324
0.98365824
0.9836935
0.98372721
0.98375271
0.98376616
0.98376568
0.98375154
0.98372743
0.9837043
0.98364271
0.98366953
0.98370583
0.98374029
0.98376616
0.98377961
0.98377877
0.98376389
0.98373875
0.98371464
0.98364556
0.98367187
0.98370722
0.98374062
0.98376568
0.98377877
0.98377809
0.98376385
0.98373954
0.98371602
0.98364131
0.98366547
0.98369781
0.98372842
0.98375154
0.98376389
0.98376385
0.98375155
0.98373003
0.98370888
0.98363221
0.98365263
0.98368036
0.98370699
0.98372743
0.98373875
0.98373954
0.98373003
0.98371285
0.98369589
0.9836235
0.98363987
0.98366317
0.98368621
0.9837043
0.98371464
0.98371602
0.98370888
0.98369589
0.98368364
0.98227288
0.98228595
0.98230581
0.98232635
0.98234307
0.98235314
0.98235531
0.98235008
0.98234002
0.98233073
0.98228595
0.9823026
0.98232657
0.98235055
0.98236958
0.98238058
0.98238212
0.98237456
0.9823606
0.98234718
0.98230581
0.98232657
0.98235557
0.9823839
0.98240578
0.98241778
0.98241823
0.98240747
0.98238872
0.98237078
0.98232635
0.98235055
0.9823839
0.98241598
0.98244029
0.982453
0.98245231
0.98243862
0.98241575
0.98239416
0.98234307
0.98236958
0.98240578
0.98244029
0.98246611
0.9824792
0.98247764
0.98246195
0.98243635
0.98241237
0.98235314
0.98238058
0.98241778
0.98245301
0.9824792
0.98249229
0.98249038
0.98247398
0.98244739
0.98242248
0.98235531
0.98238213
0.98241823
0.98245231
0.98247764
0.98249038
0.98248871
0.98247304
0.98244744
0.98242324
0.98235008
0.98237456
0.98240747
0.98243862
0.98246195
0.98247397
0.98247304
0.98245951
0.9824369
0.98241526
0.98234002
0.9823606
0.98238872
0.98241575
0.98243634
0.98244739
0.98244743
0.9824369
0.98241885
0.98240155
0.98233073
0.98234718
0.98237078
0.98239415
0.98241237
0.98242248
0.98242324
0.98241526
0.98240155
0.98238901
0.98094943
0.98096283
0.98098314
0.98100404
0.98102083
0.98103057
0.98103201
0.9810258
0.98101481
0.98100498
0.98096283
0.9809799
0.98100442
0.98102883
0.98104794
0.98105855
0.98105924
0.98105052
0.98103549
0.98102149
0.98098314
0.98100442
0.9810341
0.98106293
0.98108493
0.98109648
0.98109594
0.98108385
0.98106389
0.98104528
0.98100404
0.98102883
0.98106293
0.9810956
0.98112005
0.98113229
0.98113051
0.98111537
0.98109117
0.98106885
0.98102083
0.98104794
0.98108493
0.98112005
0.98114602
0.98115861
0.98115594
0.98113875
0.98111178
0.98108707
0.98103057
0.98105855
0.98109648
0.98113229
0.98115861
0.98117122
0.98116821
0.98115033
0.98112244
0.98109686
0.98103201
0.98105924
0.98109594
0.98113051
0.98115594
0.9811682
0.98116549
0.98114848
0.9811217
0.98109696
0.9810258
0.98105052
0.98108385
0.98111537
0.98113875
0.98115033
0.98114848
0.98113377
0.98111019
0.98108817
0.98101481
0.98103549
0.98106389
0.98109117
0.98111178
0.98112243
0.9811217
0.98111019
0.98109136
0.9810738
0.98100498
0.98102149
0.98104528
0.98106885
0.98108707
0.98109686
0.98109696
0.98108817
0.9810738
0.98106102
0.97959247
0.97960617
0.97962686
0.97964802
0.97966478
0.97967411
0.97967478
0.9796676
0.97965573
0.97964541
0.97960617
0.97962363
0.97964862
0.97967334
0.97969242
0.97970255
0.97970234
0.9796925
0.97967647
0.97966193
0.97962686
0.97964862
0.97967887
0.97970808
0.97973006
0.97974107
0.9797395
0.97972614
0.97970504
0.97968583
0.97964802
0.97967334
0.97970808
0.97974118
0.97976562
0.97977728
0.9797744
0.97975786
0.97973244
0.97970948
0.97966478
0.97969242
0.97973006
0.97976562
0.97979159
0.97980359
0.97979977
0.97978114
0.97975293
0.97972759
0.97967411
0.97970256
0.97974107
0.97977728
0.97980359
0.97981559
0.97981145
0.97979219
0.97976312
0.97973697
0.97967478
0.97970234
0.97973951
0.9797744
0.97979977
0.97981145
0.97980768
0.9797894
0.97976158
0.9797364
0.9796676
0.9796925
0.97972614
0.97975786
0.97978114
0.97979219
0.97978939
0.97977358
0.97974914
0.97972681
0.97965573
0.97967647
0.97970504
0.97973244
0.97975293
0.97976311
0.97976158
0.97974914
0.97972962
0.97971185
0.97964541
0.97966192
0.97968583
0.97970948
0.97972759
0.97973697
0.97973639
0.97972681
0.97971185
0.97969887
0.97820105
0.97821502
0.97823603
0.97825735
0.978274
0.97828286
0.97828273
0.9782746
0.9782619
0.97825112
0.97821502
0.97823283
0.97825821
0.97828314
0.9783021
0.97831169
0.97831056
0.97829963
0.97828266
0.97826762
0.97823603
0.97825822
0.97828894
0.97831842
0.97834026
0.97835066
0.97834806
0.97833346
0.97831131
0.97829156
0.97825736
0.97828315
0.97831842
0.97835182
0.97837613
0.97838712
0.97838312
0.97836526
0.97833872
0.97831519
0.978274
0.9783021
0.97834026
0.97837613
0.97840195
0.97841326
0.97840829
0.97838831
0.97835898
0.97833309
0.97828286
0.97831169
0.97835066
0.97838713
0.97841326
0.97842459
0.97841932
0.97839875
0.97836862
0.978342
0.97828274
0.97831056
0.97834806
0.97838312
0.97840829
0.97841932
0.97841449
0.97839501
0.97836628
0.97834073
0.9782746
0.97829963
0.97833346
0.97836525
0.97838831
0.97839875
0.97839501
0.97837816
0.97835296
0.9783304
0.9782619
0.97828266
0.97831131
0.97833871
0.97835898
0.97836862
0.97836628
0.97835296
0.97833282
0.9783149
0.97825112
0.97826762
0.97829156
0.97831519
0.97833309
0.978342
0.97834073
0.9783304
0.9783149
0.97830175
0.97677422
0.97678841
0.97680968
0.97683109
0.97684755
0.97685588
0.97685495
0.9768459
0.97683242
0.97682122
0.97678841
0.97680654
0.97683224
0.9768573
0.97687604
0.97688503
0.97688299
0.97687101
0.97685317
0.97683768
0.97680968
0.97683224
0.97686337
0.976893
0.97691462
0.97692434
0.97692071
0.97690494
0.97688182
0.97686159
0.9768311
0.9768573
0.976893
0.97692658
0.97695065
0.97696093
0.97695581
0.97693669
0.97690913
0.97688511
0.97684755
0.97687604
0.97691462
0.97695065
0.97697622
0.97698679
0.97698068
0.97695943
0.97692908
0.97690272
0.97685588
0.97688503
0.97692434
0.97696093
0.97698679
0.97699737
0.97699099
0.9769692
0.97693813
0.9769111
0.97685496
0.97688299
0.97692071
0.97695581
0.97698068
0.97699099
0.97698512
0.97696453
0.97693498
0.97690914
0.9768459
0.97687101
0.97690494
0.97693669
0.97695943
0.9769692
0.97696452
0.9769467
0.97692084
0.97689809
0.97683242
0.97685317
0.97688182
0.97690913
0.97692908
0.97693813
0.97693498
0.97692084
0.97690015
0.9768821
0.97682122
0.97683767
0.97686158
0.9768851
0.97690272
0.9769111
0.97690913
0.97689809
0.9768821
0.97686882
0.97531099
0.97532537
0.97534683
0.97536827
0.97538447
0.97539224
0.97539051
0.97538057
0.97536636
0.97535477
0.97532537
0.97534376
0.97536973
0.97539482
0.97541329
0.97542165
0.9754187
0.97540572
0.97538708
0.97537116
0.97534683
0.97536973
0.97540117
0.97543087
0.97545218
0.9754612
0.97545655
0.97543967
0.97541567
0.97539499
0.97536827
0.97539483
0.97543087
0.97546453
0.97548827
0.97549779
0.97549159
0.97547129
0.9754428
0.97541833
0.97538447
0.97541329
0.97545218
0.97548827
0.97551349
0.97552328
0.97551606
0.97549363
0.97546237
0.97543559
0.97539224
0.97542165
0.9754612
0.97549779
0.97552328
0.97553308
0.97552561
0.97550269
0.97547078
0.97544342
0.97539051
0.9754187
0.97545655
0.97549159
0.97551606
0.97552561
0.97551873
0.9754971
0.97546684
0.97544076
0.97538057
0.97540572
0.97543967
0.97547129
0.97549363
0.97550269
0.9754971
0.97547838
0.97545193
0.97542904
0.97536636
0.97538708
0.97541567
0.9754428
0.97546237
0.97547078
0.97546683
0.97545193
0.97543075
0.97541261
0.97535477
0.97537116
0.97539499
0.97541833
0.97543559
0.97544341
0.97544075
0.97542904
0.97541261
0.9753992
0.97381034
0.97382488
0.97384648
0.97386788
0.97388379
0.97389097
0.97388845
0.97387767
0.97386278
0.97385083
0.97382488
0.97384351
0.97386967
0.97389474
0.97391287
0.97392058
0.97391674
0.97390283
0.97388344
0.97386714
0.97384648
0.97386967
0.97390135
0.97393105
0.973952
0.9739603
0.97395466
0.97393674
0.97391192
0.97389084
0.97386789
0.97389475
0.97393105
0.9739647
0.97398806
0.9739968
0.97398954
0.97396815
0.97393882
0.97391395
0.97388379
0.97391288
0.973952
0.97398806
0.97401286
0.97402185
0.97401355
0.97399002
0.97395794
0.9739308
0.97389098
0.97392059
0.9739603
0.9739968
0.97402185
0.97403084
0.97402233
0.97399836
0.97396571
0.97393805
0.97388846
0.97391675
0.97395466
0.97398954
0.97401355
0.97402233
0.97401446
0.97399189
0.97396099
0.97393471
0.97387768
0.97390283
0.97393674
0.97396815
0.97399002
0.97399836
0.97399189
0.97397234
0.97394536
0.97392236
0.97386278
0.97388344
0.97391192
0.97393882
0.97395794
0.9739657
0.97396098
0.97394536
0.97392375
0.97390552
0.97385083
0.97386714
0.97389084
0.97391395
0.9739308
0.97393805
0.9739347
0.97392236
0.97390552
0.97389201
0.97227126
0.97228593
0.97230762
0.97232894
0.9723445
0.9723511
0.97234781
0.97233624
0.97232071
0.97230842
0.97228593
0.97230475
0.97233105
0.97235605
0.97237381
0.97238086
0.97237617
0.97236138
0.97234129
0.97232465
0.97230762
0.97233105
0.97236292
0.97239255
0.9724131
0.97242066
0.97241408
0.97239519
0.97236963
0.97234819
0.97232894
0.97235606
0.97239255
0.97242613
0.97244905
0.97245701
0.97244874
0.97242634
0.97239624
0.97237102
0.97234451
0.97237382
0.9724131
0.97244905
0.97247339
0.97248156
0.97247225
0.9724477
0.97241488
0.97238743
0.9723511
0.97238087
0.97242066
0.97245701
0.97248156
0.97248975
0.97248024
0.97245531
0.97242199
0.97239409
0.97234781
0.97237617
0.97241408
0.97244874
0.97247225
0.97248024
0.97247144
0.972448
0.97241653
0.97239008
0.97233624
0.97236138
0.97239519
0.97242633
0.9724477
0.97245531
0.97244799
0.97242768
0.97240024
0.97237714
0.97232071
0.97234129
0.97236962
0.97239623
0.97241488
0.97242199
0.97241652
0.97240024
0.97237823
0.97235993
0.97230842
0.97232465
0.97234819
0.97237101
0.97238743
0.97239408
0.97239008
0.97237714
0.97235993
0.97234633
0.97069271
0.97070747
0.97072922
0.97075041
0.97076561
0.97077162
0.97076759
0.97075527
0.97073916
0.97072657
0.97070747
0.97072645
0.97075285
0.97077774
0.9707951
0.9708015
0.97079598
0.97078037
0.97075965
0.97074269
0.97072922
0.97075285
0.97078485
0.97081437
0.97083448
0.97084132
0.97083384
0.97081406
0.97078781
0.97076605
0.97075041
0.97077774
0.97081437
0.97084781
0.97087026
0.97087745
0.97086823
0.97084489
0.9708141
0.97078856
0.97076562
0.97079511
0.97083448
0.97087026
0.97089411
0.97090149
0.97089121
0.97086573
0.97083225
0.97080452
0.97077162
0.9708015
0.97084132
0.97087745
0.97090149
0.97090888
0.97089842
0.97087262
0.97083871
0.97081059
0.9707676
0.97079599
0.97083384
0.97086823
0.9708912
0.97089842
0.97088874
0.9708645
0.97083253
0.97080595
0.97075528
0.97078037
0.97081406
0.97084489
0.97086573
0.97087262
0.9708645
0.97084349
0.97081563
0.97079245
0.97073916
0.97075965
0.97078781
0.9708141
0.97083225
0.9708387
0.97083253
0.97081563
0.97079327
0.97077491
0.97072657
0.97074269
0.97076605
0.97078856
0.97080451
0.97081058
0.97080594
0.97079245
0.97077491
0.97076121
0.96907364
0.96908847
0.96911023
0.96913127
0.96914609
0.96915151
0.96914679
0.96913377
0.96911712
0.96910425
0.96908847
0.96910758
0.96913403
0.96915876
0.96917572
0.96918147
0.96917519
0.96915882
0.96913751
0.96912026
0.96911023
0.96913403
0.96916611
0.96919547
0.96921514
0.96922128
0.96921295
0.96919234
0.96916548
0.96914342
0.96913127
0.96915876
0.96919547
0.96922874
0.96925072
0.96925716
0.96924704
0.96922285
0.96919143
0.96916561
0.96914609
0.96917572
0.96921514
0.96925072
0.96927405
0.96928066
0.96926947
0.96924315
0.96920908
0.96918109
0.96915152
0.96918148
0.96922128
0.96925716
0.96928066
0.96928727
0.96927594
0.96924934
0.96921489
0.96918658
0.96914679
0.96917519
0.96921295
0.96924704
0.96926947
0.96927594
0.96926543
0.96924047
0.96920804
0.96918133
0.96913378
0.96915882
0.96919234
0.96922285
0.96924315
0.96924933
0.96924046
0.96921881
0.96919058
0.96916733
0.96911712
0.96913751
0.96916548
0.96919143
0.96920907
0.96921489
0.96920804
0.96919058
0.96916789
0.96914947
0.96910425
0.96912026
0.96914342
0.9691656
0.96918109
0.96918658
0.96918133
0.96916732
0.96914947
0.96913569
0.96741297
0.96742785
0.9674496
0.96747045
0.96748489
0.96748975
0.96748436
0.96747071
0.96745356
0.96744043
0.96742785
0.96744705
0.96747352
0.96749808
0.96751462
0.96751976
0.96751275
0.96749568
0.96747385
0.96745633
0.9674496
0.96747352
0.96750565
0.96753483
0.96755405
0.96755952
0.96755039
0.96752903
0.96750161
0.96747928
0.96747046
0.96749808
0.96753483
0.9675679
0.96758939
0.96759512
0.96758417
0.96755919
0.96752721
0.96750113
0.9674849
0.96751463
0.96755405
0.96758939
0.96761222
0.96761809
0.96760606
0.96757896
0.96754436
0.96751615
0.96748976
0.96751977
0.96755952
0.96759512
0.96761809
0.96762396
0.96761181
0.96758448
0.96754956
0.96752108
0.96748437
0.96751275
0.9675504
0.96758417
0.96760606
0.96761181
0.96760053
0.96757491
0.96754208
0.96751526
0.96747071
0.96749568
0.96752903
0.96755919
0.96757896