/*--------------------------------*- C++ -*----------------------------------*\
| =========                 |                                                 |
| \\      /  F ield         | OpenFOAM: The Open Source CFD Toolbox           |
|  \\    /   O peration     | Version:  dev                                   |
|   \\  /    A nd           | Web:      www.OpenFOAM.org                      |
|    \\/     M anipulation  |                                                 |
\*---------------------------------------------------------------------------*/
FoamFile
{
    version     2.0;
    format      ascii;
    class       surfaceScalarField;
    location    "5";
    object      phi;
}
// * * * * * * * * * * * * * * * * * * * * * * * * * * * * * * * * * * * * * //

dimensions      [0 3 -1 0 0 0 0];

internalField   nonuniform List<scalar> 
27900
(
1.8615678e-06
1.8615677e-06
6.2768645e-06
2.0702593e-06
2.0578105e-06
7.733498e-06
2.1043842e-06
2.0902024e-06
7.8756726e-06
2.1014645e-06
2.101076e-06
7.9018438e-06
2.0823331e-06
2.1074216e-06
7.9117097e-06
2.0498945e-06
2.1115714e-06
7.9208673e-06
1.9871677e-06
2.1157347e-06
7.9469921e-06
1.8703558e-06
2.1142226e-06
8.0025893e-06
1.4947728e-06
2.1043398e-06
8.2712432e-06
1.9317552e-06
9.5630176e-06
2.0578105e-06
2.0702593e-06
7.733498e-06
2.3005079e-06
2.3005079e-06
9.5146052e-06
2.3414694e-06
2.3410787e-06
9.7081623e-06
2.3329629e-06
2.3563189e-06
9.7532636e-06
2.3018489e-06
2.3644491e-06
9.7740865e-06
2.2512922e-06
2.3688888e-06
9.7932393e-06
2.1616716e-06
2.3708153e-06
9.8345399e-06
1.9989108e-06
2.3643888e-06
9.9125945e-06
1.5560094e-06
2.3348188e-06
1.0212422e-05
2.1041059e-06
1.1383659e-05
2.0902025e-06
2.1043842e-06
7.8756726e-06
2.3410787e-06
2.3414694e-06
9.7081623e-06
2.3825855e-06
2.3825855e-06
9.9169864e-06
2.3706489e-06
2.3978056e-06
9.9704499e-06
2.3335347e-06
2.4052934e-06
9.9962698e-06
2.2751604e-06
2.4085929e-06
1.001867e-05
2.1753956e-06
2.4080949e-06
1.0062485e-05
2.0018748e-06
2.3985371e-06
1.0139373e-05
1.5477927e-06
2.362028e-06
1.0426873e-05
2.1216038e-06
1.1530295e-05
2.1010761e-06
2.1014644e-06
7.9018437e-06
2.356319e-06
2.3329628e-06
9.7532636e-06
2.3978057e-06
2.3706489e-06
9.9704499e-06
2.3834953e-06
2.3834952e-06
1.0028621e-05
2.3427033e-06
2.3890298e-06
1.0057056e-05
2.2799783e-06
2.3906968e-06
1.0080621e-05
2.1752659e-06
2.3885838e-06
1.0124224e-05
1.997605e-06
2.3783739e-06
1.0197824e-05
1.5414986e-06
2.3422704e-06
1.0475864e-05
2.1090301e-06
1.1554072e-05
2.1074217e-06
2.0823331e-06
7.9117097e-06
2.3644491e-06
2.3018489e-06
9.7740864e-06
2.4052935e-06
2.3335347e-06
9.9962698e-06
2.3890299e-06
2.3427033e-06
1.0057056e-05
2.3456763e-06
2.3456763e-06
1.0086707e-05
2.280145e-06
2.3456762e-06
1.0110552e-05
2.1725242e-06
2.3427159e-06
1.0153489e-05
1.9928284e-06
2.3335799e-06
1.022449e-05
1.5364122e-06
2.3018521e-06
1.0496835e-05
2.0830652e-06
1.1562377e-05
2.1115714e-06
2.0498945e-06
7.9208672e-06
2.3688889e-06
2.2512922e-06
9.7932393e-06
2.408593e-06
2.2751605e-06
1.001867e-05
2.3906968e-06
2.2799784e-06
1.0080621e-05
2.3456762e-06
2.2801451e-06
1.0110552e-05
2.2784785e-06
2.2784785e-06
1.0134396e-05
2.1692261e-06
2.2749151e-06
1.0177053e-05
1.9883949e-06
2.2675208e-06
1.024689e-05
1.5322675e-06
2.2419812e-06
1.0515998e-05
2.043777e-06
1.1571556e-05
2.1157347e-06
1.9871678e-06
7.946992e-06
2.3708153e-06
2.1616717e-06
9.8345399e-06
2.408095e-06
2.1753957e-06
1.0062485e-05
2.3885838e-06
2.1752659e-06
1.0124224e-05
2.3427159e-06
2.1725243e-06
1.0153489e-05
2.2749151e-06
2.1692262e-06
1.0177053e-05
2.1650005e-06
2.1650006e-06
1.0219829e-05
1.9831402e-06
2.1595104e-06
1.0289871e-05
1.526858e-06
2.1410711e-06
1.0557192e-05
1.9713265e-06
1.1599308e-05
2.1142226e-06
1.8703559e-06
8.0025893e-06
2.3643888e-06
1.9989109e-06
9.9125945e-06
2.3985372e-06
2.0018748e-06
1.0139373e-05
2.3783739e-06
1.9976051e-06
1.0197824e-05
2.3335799e-06
1.9928285e-06
1.022449e-05
2.2675208e-06
1.988395e-06
1.024689e-05
2.1595104e-06
1.9831402e-06
1.0289871e-05
1.9786218e-06
1.9786218e-06
1.0361777e-05
1.5237815e-06
1.9645324e-06
1.0631379e-05
1.8377632e-06
1.1657345e-05
2.1043399e-06
1.4947729e-06
8.2712432e-06
2.3348188e-06
1.5560095e-06
1.0212422e-05
2.3620281e-06
1.5477928e-06
1.0426873e-05
2.3422704e-06
1.5414986e-06
1.0475864e-05
2.3018521e-06
1.5364122e-06
1.0496835e-05
2.2419811e-06
1.5322675e-06
1.0515998e-05
2.141071e-06
1.526858e-06
1.0557192e-05
1.9645324e-06
1.5237815e-06
1.0631379e-05
1.509325e-06
1.509325e-06
1.0910415e-05
1.4253869e-06
1.1921701e-05
1.9317553e-06
9.5630176e-06
2.104106e-06
1.1383659e-05
2.1216038e-06
1.1530295e-05
2.1090301e-06
1.1554072e-05
2.0830652e-06
1.1562377e-05
2.0437769e-06
1.1571556e-05
1.9713264e-06
1.1599309e-05
1.8377631e-06
1.1657345e-05
1.4253868e-06
1.1921701e-05
1.2850774e-05
1.1152752e-06
1.1152752e-06
4.0463141e-06
1.4455658e-06
1.4501131e-06
5.9530944e-06
1.5184092e-06
1.5233193e-06
6.27951e-06
1.5093567e-06
1.548654e-06
6.3622422e-06
1.4612181e-06
1.5629797e-06
6.3968687e-06
1.3766273e-06
1.5718092e-06
6.4336488e-06
1.2300757e-06
1.5796719e-06
6.5138717e-06
9.5742601e-07
1.5729434e-06
6.7022956e-06
4.5958485e-07
1.5444375e-06
7.2246469e-06
1.241294e-06
8.7813085e-06
1.4501131e-06
1.4455657e-06
5.9530943e-06
1.8892794e-06
1.8892794e-06
8.6362726e-06
1.987968e-06
1.9938176e-06
9.1389754e-06
1.965215e-06
2.0335578e-06
9.2911129e-06
1.8824597e-06
2.0542668e-06
9.3655546e-06
1.7435997e-06
2.0652418e-06
9.4386667e-06
1.5201187e-06
2.0690752e-06
9.5686177e-06
1.1247102e-06
2.0507185e-06
9.830228e-06
4.92659e-07
1.9715256e-06
1.0417386e-05
1.5206626e-06
1.1596949e-05
1.5233193e-06
1.5184091e-06
6.27951e-06
1.9938176e-06
1.987968e-06
9.1389753e-06
2.097898e-06
2.097898e-06
9.7088256e-06
2.0668221e-06
2.1391433e-06
9.8959403e-06
1.967255e-06
2.1589995e-06
9.9911042e-06
1.8055249e-06
2.1674903e-06
1.0078152e-05
1.5540505e-06
2.1654669e-06
1.0217568e-05
1.1292304e-06
2.1386632e-06
1.0476248e-05
4.7538528e-07
2.0400736e-06
1.101217e-05
1.5591556e-06
1.1967187e-05
1.548654e-06
1.5093567e-06
6.3622421e-06
2.0335578e-06
1.965215e-06
9.2911129e-06
2.1391434e-06
2.0668221e-06
9.8959403e-06
2.1023088e-06
2.1023088e-06
1.010229e-05
1.9928137e-06
2.1173812e-06
1.0208169e-05
1.8189799e-06
2.1218135e-06
1.0300132e-05
1.5545236e-06
2.1157716e-06
1.0438375e-05
1.1192736e-06
2.0873011e-06
1.0684436e-05
4.6280274e-07
1.9898953e-06
1.1182513e-05
1.527816e-06
1.2048215e-05
1.5629797e-06
1.4612181e-06
6.3968686e-06
2.0542668e-06
1.8824597e-06
9.3655545e-06
2.1589995e-06
1.967255e-06
9.9911042e-06
2.1173812e-06
1.9928137e-06
1.0208169e-05
2.0011186e-06
2.0011186e-06
1.0319232e-05
1.8197489e-06
2.0011418e-06
1.0412593e-05
1.5479287e-06
1.9929197e-06
1.0548161e-05
1.1078417e-06
1.9675169e-06
1.0784361e-05
4.5218739e-07
1.8829386e-06
1.1259446e-05
1.4627524e-06
1.2079628e-05
1.5718092e-06
1.3766273e-06
6.4336487e-06
2.0652418e-06
1.7435997e-06
9.4386667e-06
2.1674903e-06
1.8055249e-06
1.0078152e-05
2.1218135e-06
1.81898e-06
1.0300132e-05
2.0011418e-06
1.819749e-06
1.0412593e-05
1.8153622e-06
1.8153623e-06
1.0505955e-05
1.5394804e-06
1.8057232e-06
1.0640132e-05
1.0969082e-06
1.7855476e-06
1.0871432e-05
4.4339503e-07
1.7198419e-06
1.1332608e-05
1.3611907e-06
1.2116513e-05
1.579672e-06
1.2300758e-06
6.5138716e-06
2.0690752e-06
1.5201187e-06
9.5686177e-06
2.165467e-06
1.5540505e-06
1.0217568e-05
2.1157716e-06
1.5545237e-06
1.0438375e-05
1.9929197e-06
1.5479287e-06
1.0548161e-05
1.8057232e-06
1.5394804e-06
1.0640132e-05
1.5283861e-06
1.5283862e-06
1.0774503e-05
1.0839201e-06
1.5137177e-06
1.1006167e-05
4.3191775e-07
1.4688162e-06
1.146022e-05
1.1921877e-06
1.2200229e-05
1.5729434e-06
9.5742604e-07
6.7022956e-06
2.0507186e-06
1.1247102e-06
9.830228e-06
2.1386632e-06
1.1292304e-06
1.0476248e-05
2.0873011e-06
1.1192736e-06
1.0684436e-05
1.9675169e-06
1.1078417e-06
1.0784361e-05
1.7855476e-06
1.0969082e-06
1.0871432e-05
1.5137177e-06
1.0839201e-06
1.1006167e-05
1.0726683e-06
1.0726683e-06
1.1243876e-05
4.2598406e-07
1.0430866e-06
1.1703793e-05
8.8477367e-07
1.2390743e-05
1.5444375e-06
4.5958487e-07
7.2246469e-06
1.9715256e-06
4.9265901e-07
1.0417386e-05
2.0400736e-06
4.7538529e-07
1.101217e-05
1.9898953e-06
4.6280275e-07
1.1182513e-05
1.8829386e-06
4.5218741e-07
1.1259446e-05
1.7198419e-06
4.4339504e-07
1.1332608e-05
1.4688162e-06
4.3191776e-07
1.146022e-05
1.0430866e-06
4.2598407e-07
1.1703793e-05
3.9873666e-07
3.9873668e-07
1.2199115e-05
3.3523951e-07
1.2869972e-05
1.241294e-06
8.7813085e-06
1.5206626e-06
1.1596949e-05
1.5591556e-06
1.1967187e-05
1.5278161e-06
1.2048215e-05
1.4627524e-06
1.2079628e-05
1.3611907e-06
1.2116513e-05
1.1921876e-06
1.2200229e-05
8.8477365e-07
1.2390743e-05
3.3523949e-07
1.2869972e-05
1.3521253e-05
6.8610798e-07
6.8610798e-07
2.6740981e-06
1.0047284e-06
1.0316783e-06
4.6027956e-06
1.0907625e-06
1.1249301e-06
5.0685458e-06
1.0749332e-06
1.1592353e-06
5.2188362e-06
1.0041375e-06
1.1784655e-06
5.289199e-06
8.8056141e-07
1.1898632e-06
5.3673617e-06
6.806166e-07
1.1990856e-06
5.5147308e-06
3.4072531e-07
1.1876171e-06
5.8545698e-06
-8.128054e-08
1.1450715e-06
6.5015813e-06
8.059249e-07
7.8941031e-06
1.0316783e-06
1.0047284e-06
4.6027956e-06
1.5148684e-06
1.5148684e-06
7.6698924e-06
1.6454264e-06
1.6608951e-06
8.4724523e-06
1.6099664e-06
1.718646e-06
8.7671622e-06
1.4841183e-06
1.7485583e-06
8.9213099e-06
1.2737403e-06
1.7640361e-06
9.0748717e-06
9.5584767e-07
1.7684102e-06
9.3171858e-06
4.4558687e-07
1.7400206e-06
9.7880853e-06
-1.1218005e-07
1.6265109e-06
1.0493713e-05
1.0975595e-06
1.1193134e-05
1.12493e-06
1.0907626e-06
5.0685458e-06
1.6608951e-06
1.6454264e-06
8.4724523e-06
1.8035836e-06
1.8035836e-06
9.4234486e-06
1.756422e-06
1.8653598e-06
9.796388e-06
1.6041409e-06
1.8949998e-06
9.9969438e-06
1.3572319e-06
1.9074419e-06
1.0181655e-05
9.9637552e-07
1.9037607e-06
1.0443074e-05
4.4357895e-07
1.8628669e-06
1.0906198e-05
-1.3794228e-07
1.7201946e-06
1.1500008e-05
1.1458019e-06
1.1781003e-05
1.1592353e-06
1.0749332e-06
5.2188361e-06
1.718646e-06
1.6099664e-06
8.7671622e-06
1.8653598e-06
1.756422e-06
9.796388e-06
1.8101244e-06
1.8101244e-06
1.0212761e-05
1.6426486e-06
1.8330117e-06
1.0437633e-05
1.3769624e-06
1.8396674e-06
1.0633592e-05
9.9675555e-07
1.8302692e-06
1.0892074e-05
4.2942323e-07
1.7870486e-06
1.1327587e-05
-1.5396318e-07
1.6465792e-06
1.1839515e-05
1.1006797e-06
1.1939374e-05
1.1784655e-06
1.0041375e-06
5.2891989e-06
1.7485582e-06
1.4841183e-06
8.9213099e-06
1.8949998e-06
1.6041409e-06
9.9969437e-06
1.8330117e-06
1.6426486e-06
1.0437633e-05
1.6553692e-06
1.6553692e-06
1.0674517e-05
1.378275e-06
1.6554331e-06
1.0873922e-05
9.8736613e-07
1.6428961e-06
1.1126443e-05
4.1357827e-07
1.6046967e-06
1.1540501e-05
-1.6755524e-07
1.4851234e-06
1.2002035e-05
1.0059122e-06
1.200684e-05
1.1898632e-06
8.8056141e-07
5.3673616e-06
1.7640361e-06
1.2737403e-06
9.0748717e-06
1.9074419e-06
1.3572319e-06
1.0181655e-05
1.8396674e-06
1.3769624e-06
1.0633592e-05
1.6554331e-06
1.378275e-06
1.0873922e-05
1.3717429e-06
1.3717429e-06
1.1073335e-05
9.7503405e-07
1.3572949e-06
1.1322442e-05
3.9818657e-07
1.3276711e-06
1.1725305e-05
-1.7894642e-07
1.2390689e-06
1.2155796e-05
8.5829193e-07
1.2085186e-05
1.1990856e-06
6.806166e-07
5.5147308e-06
1.7684102e-06
9.5584765e-07
9.3171858e-06
1.9037607e-06
9.9637551e-07
1.0443074e-05
1.8302692e-06
9.9675554e-07
1.0892074e-05
1.6428961e-06
9.8736612e-07
1.1126443e-05
1.3572949e-06
9.7503404e-07
1.1322442e-05
9.5877638e-07
9.5877637e-07
1.157154e-05
3.7997717e-07
9.380171e-07
1.197462e-05
-1.9379206e-07
8.8279961e-07
1.2390259e-05
6.2880753e-07
1.2235922e-05
1.1876171e-06
3.4072531e-07
5.8545698e-06
1.7400205e-06
4.4558685e-07
9.7880853e-06
1.8628669e-06
4.4357893e-07
1.0906198e-05
1.7870486e-06
4.2942322e-07
1.1327587e-05
1.6046967e-06
4.1357825e-07
1.1540501e-05
1.3276711e-06
3.9818656e-07
1.1725305e-05
9.3801712e-07
3.7997716e-07
1.197462e-05
3.6511949e-07
3.6511948e-07
1.2389671e-05
-2.0055462e-07
3.3520419e-07
1.2817062e-05
2.5043733e-07
1.2568558e-05
1.1450715e-06
-8.1280541e-08
6.5015813e-06
1.6265109e-06
-1.1218006e-07
1.0493713e-05
1.7201946e-06
-1.3794229e-07
1.1500008e-05
1.6465792e-06
-1.5396319e-07
1.1839515e-05
1.4851234e-06
-1.6755525e-07
1.2002035e-05
1.239069e-06
-1.7894644e-07
1.2155796e-05
8.8279963e-07
-1.9379207e-07
1.2390259e-05
3.3520421e-07
-2.0055463e-07
1.2817062e-05
-2.2538961e-07
-2.2538962e-07
1.3320302e-05
-2.0012485e-07
1.3095145e-05
8.059249e-07
7.8941031e-06
1.0975595e-06
1.1193134e-05
1.1458019e-06
1.1781003e-05
1.1006797e-06
1.1939374e-05
1.0059122e-06
1.200684e-05
8.5829194e-07
1.2085186e-05
6.2880754e-07
1.2235922e-05
2.5043733e-07
1.2568558e-05
-2.0012485e-07
1.3095145e-05
1.3121003e-05
4.2699658e-07
4.2699658e-07
1.8201049e-06
6.9641983e-07
7.3322189e-07
3.6001505e-06
7.7672604e-07
8.3198067e-07
4.1562589e-06
7.5302251e-07
8.7096699e-07
4.3715727e-06
6.6495913e-07
8.9292425e-07
4.4843381e-06
5.1547963e-07
9.0561836e-07
4.6112228e-06
2.8779988e-07
9.1518897e-07
4.8272216e-06
-5.2080306e-08
9.0075763e-07
5.2936924e-06
-3.673357e-07
8.5132509e-07
5.9655116e-06
5.2669242e-07
7.0000749e-06
7.3322188e-07
6.9641983e-07
3.6001505e-06
1.1909592e-06
1.1909592e-06
6.7544178e-06
1.3272868e-06
1.3569969e-06
7.8111084e-06
1.2787532e-06
1.4261434e-06
8.2605194e-06
1.1182093e-06
1.4621429e-06
8.5126351e-06
8.5569478e-07
1.4804523e-06
8.7625523e-06
4.8146786e-07
1.4846876e-06
9.1219141e-06
-4.6527896e-08
1.4492701e-06
9.7675686e-06
-4.6572298e-07
1.3179028e-06
1.044633e-05
7.9295481e-07
1.0461149e-05
8.3198066e-07
7.7672605e-07
4.1562589e-06
1.3569969e-06
1.3272868e-06
7.8111084e-06
1.5116111e-06
1.5116111e-06
9.1142203e-06
1.4488923e-06
1.5874726e-06
9.6977776e-06
1.2536564e-06
1.6241744e-06
1.0030148e-05
9.4312916e-07
1.6394413e-06
1.0333193e-05
5.1459112e-07
1.6343989e-06
1.07219e-05
-6.262188e-08
1.5837456e-06
1.1348936e-05
-5.0098286e-07
1.4168129e-06
1.1839458e-05
8.3896535e-07
1.1234009e-05
8.7096698e-07
7.5302251e-07
4.3715727e-06
1.4261434e-06
1.2787532e-06
8.2605194e-06
1.5874726e-06
1.4488923e-06
9.6977776e-06
1.515127e-06
1.515127e-06
1.0357452e-05
1.3003893e-06
1.5437868e-06
1.0732758e-05
9.6565015e-07
1.552131e-06
1.1055642e-05
5.1306556e-07
1.5403019e-06
1.1438755e-05
-8.060794e-08
1.4870838e-06
1.2017922e-05
-5.1912472e-07
1.3238693e-06
1.2370976e-05
7.8310336e-07
1.1476111e-05
8.9292424e-07
6.6495913e-07
4.4843381e-06
1.4621429e-06
1.1182093e-06
8.5126351e-06
1.6241744e-06
1.2536564e-06
1.0030148e-05
1.5437868e-06
1.3003893e-06
1.0732758e-05
1.3162405e-06
1.3162405e-06
1.112961e-05
9.6708259e-07
1.3163539e-06
1.1458857e-05
5.0145682e-07
1.3007976e-06
1.1831573e-05
-9.9253899e-08
1.2545123e-06
1.2373783e-05
-5.3408566e-07
1.1196046e-06
1.2641131e-05
6.6662716e-07
1.1589231e-05
9.0561835e-07
5.1547963e-07
4.6112228e-06
1.4804523e-06
8.5569476e-07
8.7625523e-06
1.6394413e-06
9.4312916e-07
1.0333193e-05
1.552131e-06
9.6565015e-07
1.1055642e-05
1.3163539e-06
9.6708259e-07
1.1458857e-05
9.5895526e-07
9.5895525e-07
1.1788132e-05
4.8637749e-07
9.4125638e-07
1.215456e-05
-1.17394e-07
9.0657214e-07
1.2677016e-05
-5.4670961e-07
8.1326044e-07
1.2891456e-05
4.8863835e-07
1.1716466e-05
9.1518896e-07
2.8779987e-07
4.8272216e-06
1.4846876e-06
4.8146783e-07
9.1219141e-06
1.6343989e-06
5.1459111e-07
1.07219e-05
1.5403019e-06
5.1306555e-07
1.1438755e-05
1.3007976e-06
5.0145682e-07
1.1831573e-05
9.4125638e-07
4.8637748e-07
1.215456e-05
4.6681358e-07
4.6681357e-07
1.2520426e-05
-1.3856288e-07
4.43857e-07
1.3042711e-05
-5.6311394e-07
3.9428272e-07
1.3233788e-05
2.2849093e-07
1.1932955e-05
9.0075763e-07
-5.2080312e-08
5.2936924e-06
1.4492701e-06
-4.6527916e-08
9.7675686e-06
1.5837456e-06
-6.2621893e-08
1.1348936e-05
1.4870838e-06
-8.060795e-08
1.2017922e-05
1.2545123e-06
-9.9253909e-08
1.2373783e-05
9.0657215e-07
-1.1739401e-07
1.2677016e-05
4.4385701e-07
-1.3856289e-07
1.3042711e-05
-1.537353e-07
-1.5373532e-07
1.3584856e-05
-5.6931968e-07
-1.7154074e-07
1.379847e-05
-1.4628203e-07
1.2374012e-05
8.5132508e-07
-3.673357e-07
5.9655116e-06
1.3179028e-06
-4.65723e-07
1.044633e-05
1.4168129e-06
-5.0098287e-07
1.1839458e-05
1.3238692e-06
-5.1912473e-07
1.2370975e-05
1.1196046e-06
-5.3408568e-07
1.2641131e-05
8.1326046e-07
-5.4670962e-07
1.2891456e-05
3.9428274e-07
-5.6311396e-07
1.3233788e-05
-1.7154072e-07
-5.6931969e-07
1.379847e-05
-5.8309056e-07
-5.8309057e-07
1.4143402e-05
-4.6613971e-07
1.2831912e-05
5.2669242e-07
7.0000749e-06
7.9295481e-07
1.0461149e-05
8.3896534e-07
1.1234009e-05
7.8310336e-07
1.1476111e-05
6.6662716e-07
1.1589231e-05
4.8863836e-07
1.1716466e-05
2.2849094e-07
1.1932955e-05
-1.4628202e-07
1.2374012e-05
-4.6613971e-07
1.2831912e-05
1.2188724e-05
2.6631814e-07
2.6631813e-07
1.2874687e-06
4.7868682e-07
5.178408e-07
2.869941e-06
5.441622e-07
6.1244229e-07
3.4783412e-06
5.1189804e-07
6.5259919e-07
3.7512377e-06
4.1148375e-07
6.7556524e-07
3.9091872e-06
2.475109e-07
6.8865816e-07
4.0865375e-06
1.2804497e-08
6.9809217e-07
4.3638359e-06
-2.9127585e-07
6.8249184e-07
4.9152809e-06
-4.9896947e-07
6.3285851e-07
5.5403467e-06
3.4745087e-07
6.1536546e-06
5.1784079e-07
4.7868682e-07
2.869941e-06
9.1623208e-07
9.1623209e-07
5.9576352e-06
1.040395e-06
1.084824e-06
7.2145638e-06
9.7779905e-07
1.1592207e-06
7.8164939e-06
7.9090487e-07
1.1985244e-06
8.1765701e-06
4.95101e-07
1.2183585e-06
8.5286559e-06
9.8356891e-08
1.2223475e-06
8.9944029e-06
-3.879556e-07
1.1834873e-06
9.7528856e-06
-6.5256009e-07
1.0488591e-06
1.0294934e-05
5.7223241e-07
9.5838074e-06
6.1244229e-07
5.441622e-07
3.4783412e-06
1.084824e-06
1.040395e-06
7.2145638e-06
1.2312049e-06
1.2312049e-06
8.8214586e-06
1.1522433e-06
1.314494e-06
9.6214659e-06
9.2386533e-07
1.3555265e-06
1.0101524e-05
5.7119313e-07
1.3726347e-06
1.0531589e-05
1.1288703e-07
1.3668874e-06
1.1035667e-05
-4.2349693e-07
1.311363e-06
1.1757444e-05
-6.9763649e-07
1.1382883e-06
1.2024169e-05
6.0890987e-07
1.0499695e-05
6.5259918e-07
5.1189804e-07
3.7512377e-06
1.1592207e-06
9.7779906e-07
7.8164939e-06
1.314494e-06
1.1522433e-06
9.6214659e-06
1.2248118e-06
1.2248118e-06
1.0536816e-05
9.7353996e-07
1.2570153e-06
1.1082541e-05
5.9252453e-07
1.2665522e-06
1.154274e-05
1.071749e-07
1.2534995e-06
1.2037493e-05
-4.4581495e-07
1.1956267e-06
1.2686648e-05
-7.1740879e-07
1.0283802e-06
1.2752477e-05
5.4415282e-07
1.0823459e-05
6.7556523e-07
4.1148375e-07
3.9091871e-06
1.1985244e-06
7.9090487e-07
8.1765701e-06
1.3555265e-06
9.2386533e-07
1.0101524e-05
1.2570153e-06
9.7353996e-07
1.1082541e-05
9.9098224e-07
9.9098224e-07
1.1661676e-05
5.93359e-07
9.911444e-07
1.2131888e-05
9.3543163e-08
9.7409711e-07
1.2610791e-05
-4.6637172e-07
9.2496242e-07
1.3204362e-05
-7.3286731e-07
7.9249387e-07
1.3143513e-05
4.1288436e-07
1.0987632e-05
6.8865815e-07
2.4751089e-07
4.0865375e-06
1.2183585e-06
4.9510098e-07
8.5286559e-06
1.3726347e-06
5.7119313e-07
1.0531589e-05
1.2665522e-06
5.9252453e-07
1.154274e-05
9.911444e-07
5.93359e-07
1.2131888e-05
5.841295e-07
5.841295e-07
1.2602162e-05
7.6694695e-08
5.6489398e-07
1.3071198e-05
-4.8602537e-07
5.2988969e-07
1.3634809e-05
-7.4587771e-07
4.4755013e-07
1.3496252e-05
2.1794237e-07
1.116553e-05
6.9809216e-07
1.2804494e-08
4.3638359e-06
1.2223475e-06
9.8356874e-08
8.9944029e-06
1.3668874e-06
1.1288703e-07
1.1035666e-05
1.2534995e-06
1.071749e-07
1.2037493e-05
9.7409711e-07
9.3543162e-08
1.2610791e-05
5.6489399e-07
7.6694694e-08
1.3071198e-05
5.5676444e-08
5.5676442e-08
1.3538861e-05
-5.0832979e-07
3.4487156e-08
1.410212e-05
-7.6264023e-07
3.1135888e-09
1.3932535e-05
-4.9660139e-08
1.1437917e-05
6.8249184e-07
-2.9127586e-07
4.9152809e-06
1.1834873e-06
-3.8795562e-07
9.7528856e-06
1.311363e-06
-4.2349694e-07
1.1757444e-05
1.1956267e-06
-4.4581496e-07
1.2686648e-05
9.2496242e-07
-4.6637172e-07
1.3204362e-05
5.2988969e-07
-4.8602537e-07
1.3634809e-05
3.4487161e-08
-5.0832979e-07
1.410212e-05
-5.2100507e-07
-5.2100508e-07
1.469584e-05
-7.6720686e-07
-5.1888469e-07
1.456667e-05
-3.8330535e-07
1.194045e-05
6.328585e-07
-4.9896947e-07
5.5403467e-06
1.0488591e-06
-6.525601e-07
1.0294934e-05
1.1382883e-06
-6.976365e-07
1.2024169e-05
1.0283802e-06
-7.1740881e-07
1.2752477e-05
7.9249387e-07
-7.3286732e-07
1.3143513e-05
4.4755014e-07
-7.4587772e-07
1.3496252e-05
3.1136045e-09
-7.6264024e-07
1.3932535e-05
-5.1888467e-07
-7.6720687e-07
1.456667e-05
-7.6692066e-07
-7.6692067e-07
1.4639474e-05
-5.7964579e-07
1.2261332e-05
3.4745087e-07
6.1536546e-06
5.722324e-07
9.5838074e-06
6.0890987e-07
1.0499695e-05
5.4415282e-07
1.0823459e-05
4.1288436e-07
1.0987632e-05
2.1794237e-07
1.116553e-05
-4.9660135e-08
1.1437917e-05
-3.8330535e-07
1.194045e-05
-5.7964579e-07
1.2261332e-05
1.1029432e-05
1.6483554e-07
1.6483553e-07
9.5779762e-07
3.2319579e-07
3.6111172e-07
2.350469e-06
3.7024261e-07
4.4578382e-07
2.9855106e-06
3.2947199e-07
4.8445099e-07
3.3075573e-06
2.2116557e-07
5.0710948e-07
3.5103841e-06
5.2244613e-08
5.1998835e-07
3.7354701e-06
-1.7442102e-07
5.291317e-07
4.0613698e-06
-4.2650041e-07
5.1399328e-07
4.653367e-06
-5.3862144e-07
4.692088e-07
5.1832589e-06
2.3192319e-07
5.38311e-06
3.6111171e-07
3.2319579e-07
2.350469e-06
6.8651929e-07
6.865193e-07
5.3068201e-06
7.8721141e-07
8.4489148e-07
6.714764e-06
7.0998353e-07
9.1924014e-07
7.4589326e-06
5.0475127e-07
9.5944273e-07
7.9294691e-06
1.9280874e-07
9.7980496e-07
8.3807818e-06
-1.9926564e-07
9.8380351e-07
8.9318054e-06
-6.1176209e-07
9.4506912e-07
9.7343062e-06
-7.3021292e-07
8.1856166e-07
1.0064032e-05
4.1105547e-07
8.6744622e-06
4.4578381e-07
3.7024261e-07
2.9855106e-06
8.4489148e-07
7.8721143e-07
6.714764e-06
9.6884144e-07
9.6884144e-07
8.5735587e-06
8.7297687e-07
1.053314e-06
9.5832567e-06
6.2096629e-07
1.0960771e-06
1.02169e-05
2.4614252e-07
1.1141982e-06
1.077202e-05
-2.105955e-07
1.1086319e-06
1.1367576e-05
-6.6881827e-07
1.0530894e-06
1.2107646e-05
-7.8412067e-07
8.8861321e-07
1.206942e-05
4.3466783e-07
9.6919622e-06
4.8445099e-07
3.2947199e-07
3.3075573e-06
9.1924014e-07
7.0998354e-07
7.4589326e-06
1.053314e-06
8.7297687e-07
9.5832566e-06
9.4583824e-07
9.4583824e-07
1.0751768e-05
6.683928e-07
9.7932473e-07
1.1476739e-05
2.6241454e-07
9.8961048e-07
1.2073306e-05
-2.2270207e-07
9.7669449e-07
1.2654547e-05
-6.9593925e-07
9.1947338e-07
1.3293502e-05
-8.0521951e-07
7.6352261e-07
1.2986848e-05
3.6241871e-07
1.0090489e-05
5.0710947e-07
2.2116557e-07
3.5103841e-06
9.5944273e-07
5.0475127e-07
7.9294691e-06
1.0960771e-06
6.2096629e-07
1.02169e-05
9.7932473e-07
6.683928e-07
1.1476739e-05
6.8577498e-07
6.8577498e-07
1.2248776e-05
2.6176714e-07
6.8597628e-07
1.285953e-05
-2.3842127e-07
6.6906019e-07
1.3418614e-05
-7.1779768e-07
6.2220384e-07
1.3981008e-05
-8.2062102e-07
5.0635241e-07
1.3503507e-05
2.2224724e-07
1.0307182e-05
5.1998834e-07
5.2244613e-08
3.7354701e-06
9.7980496e-07
1.9280873e-07
8.3807818e-06
1.1141982e-06
2.4614252e-07
1.077202e-05
9.8961048e-07
2.6241454e-07
1.2073306e-05
6.8597628e-07
2.6176715e-07
1.285953e-05
2.5185851e-07
2.5185851e-07
1.3470398e-05
-2.562382e-07
2.3281036e-07
1.4015545e-05
-7.3796071e-07
2.0196656e-07
1.4536769e-05
-8.3341698e-07
1.4228294e-07
1.3955777e-05
2.1330203e-08
1.053303e-05
5.291317e-07
-1.7442102e-07
4.0613698e-06
9.8380352e-07
-1.9926565e-07
8.9318054e-06
1.1086319e-06
-2.105955e-07
1.1367576e-05
9.7669449e-07
-2.2270207e-07
1.2654547e-05
6.6906019e-07
-2.3842126e-07
1.3418614e-05
2.3281036e-07
-2.562382e-07
1.4015545e-05
-2.770076e-07
-2.770076e-07
1.4558497e-05
-7.5985137e-07
-2.9297414e-07
1.5079905e-05
-8.4964246e-07
-2.9822391e-07
1.4462833e-05
-2.371882e-07
1.0846793e-05
5.1399327e-07
-4.2650041e-07
4.653367e-06
9.4506912e-07
-6.1176211e-07
9.7343062e-06
1.0530894e-06
-6.6881827e-07
1.2107646e-05
9.1947338e-07
-6.9593925e-07
1.3293502e-05
6.2220384e-07
-7.1779768e-07
1.3981008e-05
2.0196656e-07
-7.3796071e-07
1.4536769e-05
-2.9297413e-07
-7.5985137e-07
1.5079905e-05
-7.6783717e-07
-7.6783717e-07
1.5645566e-05
-8.5190515e-07
-7.4233168e-07
1.5094846e-05
-5.1345379e-07
1.136481e-05
4.692088e-07
-5.3862144e-07
5.1832589e-06
8.1856164e-07
-7.3021293e-07
1.0064032e-05
8.8861319e-07
-7.8412068e-07
1.206942e-05
7.635226e-07
-8.0521952e-07
1.2986848e-05
5.0635241e-07
-8.2062103e-07
1.3503507e-05
1.4228295e-07
-8.3341699e-07
1.3955777e-05
-2.982239e-07
-8.4964246e-07
1.4462833e-05
-7.4233167e-07
-8.5190516e-07
1.5094846e-05
-8.3784402e-07
-8.3784403e-07
1.4830499e-05
-6.0560722e-07
1.1515641e-05
2.3192319e-07
5.38311e-06
4.1105547e-07
8.6744622e-06
4.3466783e-07
9.6919622e-06
3.6241871e-07
1.0090489e-05
2.2224724e-07
1.0307182e-05
2.1330205e-08
1.053303e-05
-2.371882e-07
1.0846793e-05
-5.1345379e-07
1.136481e-05
-6.0560723e-07
1.1515641e-05
9.8182175e-06
9.9468524e-08
9.9468515e-08
7.5886058e-07
2.109078e-07
2.4610221e-07
1.9929276e-06
2.3894379e-07
3.1795084e-07
2.6395238e-06
1.9037305e-07
3.5328271e-07
3.0028453e-06
7.8158385e-08
3.7467772e-07
3.247921e-06
-8.8074848e-08
3.8695258e-07
3.5147508e-06
-2.9630196e-07
3.9583996e-07
3.873757e-06
-4.9149152e-07
3.8252763e-07
4.4660289e-06
-5.2565171e-07
3.4576861e-07
4.8716505e-06
1.5678948e-07
4.7006688e-06
2.461022e-07
2.109078e-07
1.9929276e-06
4.9666762e-07
4.9666763e-07
4.8056892e-06
5.67673e-07
6.3644626e-07
6.3252632e-06
4.7603263e-07
7.065171e-07
7.1973386e-06
2.5992134e-07
7.4563381e-07
7.7746243e-06
-5.3462325e-08
7.6579422e-07
8.3153239e-06
-4.2060699e-07
7.7025004e-07
8.92454e-06
-7.4488456e-07
7.3478496e-07
9.7063264e-06
-7.3852018e-07
6.2429719e-07
9.7791392e-06
2.9245257e-07
7.8002789e-06
3.1795083e-07
2.3894378e-07
2.6395238e-06
6.3644626e-07
5.6767302e-07
6.3252632e-06
7.2887222e-07
7.2887222e-07
8.3887068e-06
6.1604379e-07
8.0914984e-07
9.5934523e-06
3.4932733e-07
8.5130512e-07
1.0377945e-05
-3.0121975e-08
8.6976772e-07
1.1047496e-05
-4.6119902e-07
8.6535765e-07
1.1703546e-05
-8.2296408e-07
8.1415037e-07
1.2390046e-05
-7.9948793e-07
6.6909328e-07
1.2001147e-05
3.0151586e-07
8.8834109e-06
3.5328271e-07
1.9037305e-07
3.0028453e-06
7.065171e-07
4.7603264e-07
7.1973386e-06
8.0914984e-07
6.1604379e-07
9.5934523e-06
6.838361e-07
6.838361e-07
1.1002395e-05
3.8991642e-07
7.1646709e-07
1.1905497e-05
-2.2223026e-08
7.2711966e-07
1.2628093e-05
-4.8146391e-07
7.1571516e-07
1.326343e-05
-8.5527925e-07
6.6392012e-07
1.3817547e-05
-8.217182e-07
5.3057846e-07
1.3091802e-05
2.2306517e-07
9.3472212e-06
3.7467771e-07
7.8158386e-08
3.247921e-06
7.4563381e-07
2.5992134e-07
7.7746243e-06
8.5130512e-07
3.4932733e-07
1.0377945e-05
7.164671e-07
3.8991642e-07
1.1905497e-05
4.056241e-07
4.056241e-07
1.2870462e-05
-2.5267775e-08
4.0584792e-07
1.3611693e-05
-4.994635e-07
3.9063657e-07
1.4217888e-05
-8.7814281e-07
3.5058887e-07
1.4673019e-05
-8.3676372e-07
2.6139113e-07
1.3731315e-05
7.8928028e-08
9.6145559e-06
3.8695258e-07
-8.8074848e-08
3.5147507e-06
7.6579422e-07
-5.3462334e-08
8.3153238e-06
8.6976772e-07
-3.0121974e-08
1.1047496e-05
7.2711967e-07
-2.2223022e-08
1.2628093e-05
4.0584792e-07
-2.526777e-08
1.3611693e-05
-3.5502916e-08
-3.5502911e-08
1.4353099e-05
-5.1760403e-07
-5.2760431e-08
1.4941043e-05
-8.9810914e-07
-7.5657903e-08
1.5343521e-05
-8.4896549e-07
-1.0528369e-07
1.4273309e-05
-1.1935265e-07
9.8823451e-06
3.9583996e-07
-2.9630196e-07
3.8737569e-06
7.7025004e-07
-4.2060701e-07
8.92454e-06
8.6535765e-07
-4.6119902e-07
1.1703546e-05
7.1571516e-07
-4.8146391e-07
1.326343e-05
3.9063657e-07
-4.9946349e-07
1.4217888e-05
-5.2760434e-08
-5.1760403e-07
1.4941043e-05
-5.366319e-07
-5.366319e-07
1.552624e-05
-9.1839812e-07
-5.4467006e-07
1.5930683e-05
-8.6405866e-07
-5.1993095e-07
1.482314e-05
-3.5783265e-07
1.0221215e-05
3.8252763e-07
-4.9149152e-07
4.4660289e-06
7.3478496e-07
-7.4488458e-07
9.7063264e-06
8.1415037e-07
-8.2296408e-07
1.2390046e-05
6.6392012e-07
-8.5527925e-07
1.3817547e-05
3.5058887e-07
-8.7814281e-07
1.4673019e-05
-7.5657903e-08
-8.9810913e-07
1.5343521e-05
-5.4467006e-07
-9.1839812e-07
1.5930683e-05
-9.2028428e-07
-9.2028428e-07
1.6396795e-05
-8.6375223e-07
-8.7141038e-07
1.5389793e-05
-5.7263812e-07
1.0715864e-05
3.457686e-07
-5.2565171e-07
4.8716505e-06
6.2429718e-07
-7.3852019e-07
9.7791393e-06
6.6909327e-07
-7.9948793e-07
1.2001147e-05
5.3057845e-07
-8.2171821e-07
1.3091802e-05
2.6139113e-07
-8.3676373e-07
1.3731315e-05
-1.0528368e-07
-8.489655e-07
1.4273309e-05
-5.1993093e-07
-8.6405867e-07
1.482314e-05
-8.7141037e-07
-8.6375223e-07
1.5389793e-05
-8.3794687e-07
-8.3794687e-07
1.4763572e-05
-5.8311554e-07
1.0688172e-05
1.5678949e-07
4.7006688e-06
2.9245258e-07
7.8002789e-06
3.0151586e-07
8.8834109e-06
2.2306517e-07
9.3472212e-06
7.8928029e-08
9.6145559e-06
-1.1935265e-07
9.8823451e-06
-3.5783265e-07
1.0221215e-05
-5.7263812e-07
1.0715864e-05
-5.8311555e-07
1.0688172e-05
8.6519864e-06
5.635553e-08
5.6355518e-08
6.4614953e-07
1.2891912e-07
1.6100779e-07
1.7593562e-06
1.3906626e-07
2.1912892e-07
2.4102477e-06
8.3877491e-08
2.4998739e-07
2.8080467e-06
-2.8775094e-08
2.6947523e-07
3.0910984e-06
-1.8653926e-07
2.8092374e-07
3.3915912e-06
-3.6998231e-07
2.8967734e-07
3.7675227e-06
-5.1014831e-07
2.7919319e-07
4.3270017e-06
-4.8485455e-07
2.520225e-07
4.5943342e-06
1.0729502e-07
4.1085192e-06
1.6100779e-07
1.2891911e-07
1.7593562e-06
3.4133932e-07
3.4133934e-07
4.4450261e-06
3.802981e-07
4.5784757e-07
6.0475858e-06
2.7530793e-07
5.2054849e-07
7.0317677e-06
5.5038657e-08
5.5703636e-07
7.7073325e-06
-2.4789229e-07
5.7648914e-07
8.3226894e-06
-5.763683e-07
5.8190622e-07
8.9607872e-06
-8.1023718e-07
5.5219656e-07
9.6671919e-06
-7.0515119e-07
4.6245304e-07
9.4636227e-06
2.0454409e-07
6.9978787e-06
2.1912892e-07
1.3906626e-07
2.4102477e-06
4.5784757e-07
3.8029812e-07
6.0475857e-06
5.1394419e-07
5.1394419e-07
8.2765136e-06
3.8491407e-07
5.8577763e-07
9.6572533e-06
1.1160426e-07
6.2535055e-07
1.0582941e-05
-2.5793409e-07
6.4363426e-07
1.1349889e-05
-6.4638055e-07
6.4131921e-07
1.2032579e-05
-9.0695503e-07
5.9799522e-07
1.2604822e-05
-7.7104438e-07
4.7938557e-07
1.1848304e-05
1.9910487e-07
8.1178058e-06
2.4998739e-07
8.3877491e-08
2.8080467e-06
5.205485e-07
2.7530794e-07
7.0317676e-06
5.8577763e-07
3.8491408e-07
9.6572533e-06
4.4329331e-07
4.432933e-07
1.1287364e-05
1.4169866e-07
4.7318606e-07
1.2359256e-05
-2.6087453e-07
4.8388979e-07
1.3190411e-05
-6.7592845e-07
4.7526019e-07
1.3844543e-05
-9.4456703e-07
4.3279733e-07
1.4251384e-05
-7.9422665e-07
3.2942716e-07
1.309142e-05
1.1576571e-07
8.6363337e-06
2.6947523e-07
-2.8775093e-08
3.0910984e-06