/*--------------------------------*- C++ -*----------------------------------*\
| =========                 |                                                 |
| \\      /  F ield         | OpenFOAM: The Open Source CFD Toolbox           |
|  \\    /   O peration     | Version:  dev                                   |
|   \\  /    A nd           | Web:      www.OpenFOAM.org                      |
|    \\/     M anipulation  |                                                 |
\*---------------------------------------------------------------------------*/
FoamFile
{
    version     2.0;
    format      ascii;
    class       volVectorField;
    location    "5";
    object      U_0;
}
// * * * * * * * * * * * * * * * * * * * * * * * * * * * * * * * * * * * * * //

dimensions      [0 1 -1 0 0 0 0];

internalField   nonuniform List<vector> 
10000
(
(0.069651429 0.069651431 0.078660549)
(0.078823278 0.076121251 0.087571713)
(0.082505721 0.076882811 0.088116653)
(0.082682492 0.077076362 0.088136134)
(0.082198738 0.077201254 0.088149848)
(0.08126593 0.077282075 0.088150364)
(0.079375697 0.077392583 0.088225204)
(0.076872413 0.077320069 0.088237901)
(0.065137964 0.077376358 0.089630394)
(0.062474085 0.072578513 0.094585592)
(0.076121248 0.078823284 0.087571714)
(0.087488715 0.087488721 0.098446591)
(0.091900318 0.089058964 0.099169898)
(0.091957786 0.08964049 0.099235968)
(0.091105848 0.089963025 0.09928186)
(0.089608526 0.090162927 0.099307335)
(0.086819669 0.090310714 0.099428504)
(0.083135722 0.090187304 0.099481844)
(0.068685469 0.089278914 0.10102773)
(0.064271472 0.080696876 0.10533104)
(0.076882809 0.082505728 0.088116655)
(0.089058958 0.091900326 0.099169899)
(0.093562667 0.093562674 0.099898463)
(0.093536795 0.094188465 0.09997368)
(0.092487512 0.094510012 0.10002542)
(0.090721748 0.094667895 0.10005276)
(0.087561349 0.094689678 0.10017749)
(0.08348957 0.094347586 0.10022061)
(0.068472929 0.092967434 0.10175388)
(0.064034525 0.083456371 0.10586937)
(0.07707636 0.082682497 0.088136137)
(0.089640484 0.091957792 0.099235969)
(0.094188458 0.0935368 0.099973681)
(0.094105603 0.094105608 0.10005591)
(0.09292817 0.094370697 0.10011143)
(0.091003279 0.094471075 0.10014017)
(0.087649106 0.09441337 0.10026575)
(0.083396807 0.094006756 0.10030315)
(0.068203086 0.092532519 0.10182535)
(0.063904279 0.083143195 0.10588039)
(0.077201252 0.082198739 0.08814985)
(0.089963019 0.09110585 0.099281862)
(0.094510004 0.092487514 0.10002542)
(0.094370692 0.092928171 0.10011143)
(0.093098599 0.093098601 0.10016827)
(0.091067025 0.093131179 0.10019689)
(0.087593765 0.09302706 0.10032166)
(0.083240531 0.092636599 0.10035387)
(0.067972651 0.091280393 0.10186927)
(0.063792677 0.082351991 0.10588944)
(0.077282073 0.081265927 0.088150366)
(0.090162921 0.089608523 0.099307338)
(0.094667888 0.090721745 0.10005276)
(0.09447107 0.091003276 0.10014017)
(0.093131178 0.091067022 0.10019689)
(0.09103446 0.091034457 0.1002255)
(0.087493413 0.090905423 0.10035039)
(0.083082821 0.09057626 0.1003812)
(0.067773023 0.089434265 0.10189472)
(0.063711932 0.081170109 0.10589002)
(0.07739258 0.079375691 0.088225206)
(0.090310708 0.086819663 0.099428505)
(0.094689671 0.087561343 0.10017749)
(0.094413365 0.087649101 0.10026575)
(0.093027058 0.08759376 0.10032165)
(0.090905426 0.087493408 0.10035039)
(0.087342303 0.087342297 0.10047559)
(0.082896786 0.087094395 0.10050695)
(0.067533985 0.086244135 0.10201789)
(0.063588296 0.078970697 0.10596979)
(0.077320067 0.076872406 0.088237903)
(0.090187298 0.083135715 0.099481844)
(0.09434758 0.083489563 0.10022061)
(0.094006751 0.0833968 0.10030315)
(0.092636597 0.083240524 0.10035387)
(0.090576263 0.083082815 0.10038119)
(0.087094401 0.082896779 0.10050695)
(0.082707345 0.082707338 0.10054269)
(0.067345997 0.082066696 0.10206574)
(0.063597079 0.075974819 0.10599086)
(0.077376356 0.065137958 0.089630395)
(0.089278908 0.068685463 0.10102773)
(0.092967428 0.068472923 0.10175388)
(0.092532513 0.06820308 0.10182535)
(0.091280391 0.067972645 0.10186927)
(0.089434267 0.067773017 0.10189472)
(0.08624414 0.067533979 0.10201789)
(0.082066703 0.067345991 0.10206574)
(0.066891241 0.066891235 0.10360852)
(0.06300969 0.063306439 0.10738965)
(0.072578511 0.062474082 0.094585591)
(0.080696871 0.06427147 0.10533104)
(0.083456364 0.064034523 0.10586937)
(0.08314319 0.063904277 0.10588039)
(0.082351989 0.063792675 0.10588944)
(0.081170112 0.063711929 0.10589002)
(0.078970703 0.063588293 0.10596978)
(0.075974826 0.063597076 0.10599086)
(0.063306444 0.063009688 0.10738965)
(0.059576053 0.05957605 0.11051889)
(0.035786846 0.03578685 0.049578929)
(0.051822044 0.045814667 0.067359908)
(0.058020117 0.047464711 0.069791845)
(0.058426343 0.047901247 0.070318739)
(0.057215202 0.048170232 0.070517094)
(0.054861834 0.048334938 0.070720004)
(0.050314912 0.048562096 0.071221407)
(0.044468554 0.048373727 0.072432211)
(0.023680501 0.048503209 0.076608547)
(0.022960448 0.041181736 0.091284042)
(0.045814663 0.051822054 0.06735991)
(0.067577604 0.067577613 0.09091989)
(0.076099825 0.071342984 0.094426338)
(0.076408485 0.072764868 0.095345115)
(0.074200933 0.073536798 0.095766095)
(0.070204933 0.073997452 0.096173931)
(0.063079732 0.074292743 0.096975323)
(0.05397364 0.073875867 0.098643546)
(0.026729319 0.07147289 0.10336884)
(0.022965208 0.055541933 0.11561884)
(0.047464707 0.058020128 0.069791849)
(0.071342975 0.076099836 0.09442634)
(0.080386885 0.080386896 0.09828478)
(0.080565688 0.082022324 0.099385729)
(0.077837444 0.082844053 0.099914838)
(0.073082543 0.083235646 0.10039526)
(0.064924838 0.083254819 0.1012504)
(0.054767411 0.082311352 0.10290445)
(0.02617367 0.078666683 0.10735665)
(0.022393188 0.060117594 0.11823291)
(0.047901243 0.058426352 0.070318745)
(0.072764859 0.076408493 0.09534512)
(0.082022313 0.080565697 0.099385731)
(0.082091062 0.08209107 0.10058633)
(0.079034355 0.082789169 0.10117075)
(0.073849605 0.083046152 0.1016762)
(0.065177517 0.08287431 0.10252571)
(0.054562421 0.081761359 0.10411176)
(0.025580583 0.077861915 0.10835957)
(0.022124824 0.059507503 0.11872216)
(0.048170228 0.057215205 0.070517101)
(0.073536789 0.074200936 0.0957661)
(0.082844042 0.077837446 0.099914842)
(0.082789161 0.079034357 0.10117075)
(0.079493315 0.079493317 0.10178135)
(0.074028857 0.079578896 0.10229333)
(0.065050906 0.079292786 0.10312868)
(0.054190309 0.078228383 0.10466148)
(0.025061266 0.074664516 0.10878657)
(0.021895727 0.057576211 0.1188928)
(0.048334935 0.05486183 0.070720011)
(0.073997443 0.070204929 0.096173936)
(0.083235635 0.073082539 0.10039526)
(0.083046143 0.073849601 0.1016762)
(0.079578893 0.074028853 0.10229333)
(0.073945086 0.073945082 0.1028053)
(0.064795623 0.073599367 0.10363413)
(0.053800417 0.072711758 0.10514197)
(0.024602035 0.069778122 0.10919461)
(0.021731456 0.054618443 0.11909627)
(0.048562093 0.050314902 0.071221413)
(0.074292734 0.063079723 0.096975327)
(0.083254808 0.064924829 0.1012504)
(0.082874302 0.065177508 0.10252571)
(0.079292784 0.065050897 0.10312867)
(0.073599371 0.064795614 0.10363413)
(0.064401886 0.064401877 0.10446523)
(0.053337019 0.063747354 0.10597685)
(0.024057981 0.061659933 0.10999068)
(0.021465426 0.049347332 0.11962692)
(0.048373724 0.044468542 0.072432214)
(0.073875858 0.053973629 0.098643548)
(0.082311341 0.0547674 0.10290445)
(0.081761351 0.054562411 0.10411175)
(0.07822838 0.054190299 0.10466148)
(0.072711762 0.053800407 0.10514197)
(0.063747362 0.053337008 0.10597685)
(0.052858679 0.052858668 0.10752499)
(0.023650606 0.051435673 0.11157535)
(0.021486488 0.042477589 0.12087703)
(0.048503205 0.023680492 0.076608548)
(0.071472881 0.02672931 0.10336884)
(0.078666673 0.026173661 0.10735664)
(0.077861907 0.025580575 0.10835956)
(0.074664513 0.025061258 0.10878657)
(0.069778126 0.024602026 0.1091946)
(0.061659941 0.024057972 0.10999067)
(0.051435683 0.023650597 0.11157535)
(0.022852481 0.022852472 0.11581984)
(0.02027948 0.020039334 0.12487406)
(0.041181732 0.022960444 0.091284042)
(0.055541924 0.022965205 0.11561884)
(0.060117584 0.022393185 0.11823291)
(0.059507495 0.02212482 0.11872215)
(0.057576208 0.021895724 0.1188928)
(0.054618447 0.021731453 0.11909626)
(0.049347341 0.021465422 0.11962691)
(0.0424776 0.021486485 0.12087703)
(0.020039343 0.020279476 0.12487405)
(0.017607538 0.017607535 0.1330212)
(0.018421372 0.018421376 0.031567553)
(0.03410204 0.027443235 0.051688007)
(0.040642052 0.029355847 0.055766003)
(0.041095377 0.0299123 0.0569291)
(0.039326977 0.03025129 0.057435408)
(0.035929432 0.030451614 0.05798911)
(0.029631292 0.030728011 0.059112119)
(0.021935216 0.030475352 0.061781338)
(-0.00042260147 0.030534162 0.067864058)
(0.0029526892 0.022775402 0.083742771)
(0.027443231 0.03410205 0.051688009)
(0.051304981 0.05130499 0.081524259)
(0.06142208 0.056275989 0.088127989)
(0.061896983 0.058235318 0.090316497)
(0.058613451 0.059294059 0.091408643)
(0.052627747 0.059908372 0.092495609)
(0.042356163 0.060258161 0.094325005)
(0.02988258 0.059581906 0.098022998)
(-0.00065548295 0.056244049 0.10481604)
(0.0010717932 0.038395072 0.1154468)
(0.029355843 0.040642063 0.055766008)
(0.05627598 0.061422091 0.088127992)
(0.067402115 0.067402126 0.095760005)
(0.067773217 0.069773879 0.098480976)
(0.063709456 0.070959868 0.099887761)
(0.056536124 0.071513932 0.10118728)
(0.044677463 0.071507725 0.10315585)
(0.030645112 0.07009688 0.10681191)
(-0.0016635211 0.064947725 0.11283357)
(0.0002946659 0.043318307 0.12030543)
(0.029912296 0.041095386 0.056929107)
(0.058235309 0.061896991 0.090316503)
(0.069773868 0.067773225 0.098480979)
(0.070025394 0.070025402 0.10149405)
(0.065480907 0.071055832 0.10306363)
(0.057654199 0.071429674 0.10443831)
(0.045026229 0.071160262 0.10638819)
(0.030340492 0.069502713 0.10985584)
(-0.0024501266 0.063978083 0.11531022)
(-3.7517047e-05 0.042558395 0.12148093)
(0.030251287 0.039326979 0.057435418)
(0.05929405 0.058613453 0.09140865)
(0.070959858 0.063709459 0.099887766)
(0.071055823 0.065480909 0.10306364)
(0.066166046 0.066166049 0.10471268)
(0.05792371 0.066293123 0.10610949)
(0.044849107 0.065863347 0.108019)
(0.029823308 0.064288456 0.11133977)
(-0.0031335577 0.059296745 0.1164481)
(-0.00031585658 0.039815837 0.12195103)
(0.030451611 0.035929428 0.057989119)
(0.059908363 0.052627742 0.092495616)
(0.071513921 0.05653612 0.10118729)
(0.071429666 0.057654195 0.10443831)
(0.06629312 0.057923706 0.10610949)
(0.05780145 0.057801446 0.10750632)
(0.044479713 0.057290375 0.10939386)
(0.02927315 0.055998849 0.11263977)
(-0.0037450212 0.05201981 0.1175362)
(-0.00051534583 0.035573524 0.12250604)
(0.030728008 0.029631282 0.059112126)
(0.060258152 0.042356154 0.09432501)
(0.071507714 0.044677454 0.10315586)
(0.071160254 0.04502622 0.10638819)
(0.065863344 0.044849098 0.108019)
(0.057290378 0.044479704 0.10939385)
(0.043908534 0.043908525 0.11128314)
(0.028621402 0.042986003 0.11453264)
(-0.0044628884 0.040344928 0.11932297)
(-0.00085051923 0.02829534 0.12366872)
(0.030475348 0.021935204 0.061781342)
(0.059581898 0.029882569 0.098023)
(0.07009687 0.030645101 0.10681191)
(0.069502705 0.030340482 0.10985584)
(0.064288453 0.029823298 0.11133977)
(0.055998853 0.029273139 0.11263977)
(0.042986012 0.028621391 0.11453264)
(0.027982174 0.027982164 0.11786775)
(-0.0049497278 0.026416494 0.12273655)
(-0.00081983562 0.019374594 0.12633136)
(0.030534159 -0.00042261116 0.06786406)
(0.056244041 -0.00065549189 0.10481604)
(0.064947715 -0.0016635296 0.11283357)
(0.063978075 -0.0024501346 0.11531022)
(0.059296742 -0.0031335655 0.11644809)
(0.052019813 -0.0037450291 0.11753619)
(0.040344936 -0.0044628965 0.11932296)
(0.026416505 -0.0049497362 0.12273655)
(-0.0055564394 -0.0055564481 0.12812348)
(-0.0020102188 -0.0046391152 0.13164539)
(0.022775398 0.0029526855 0.083742771)
(0.038395063 0.0010717897 0.1154468)
(0.043318297 0.0002946628 0.12030543)
(0.042558387 -3.7519778e-05 0.12148092)
(0.039815834 -0.00031585912 0.12195102)
(0.035573528 -0.00051534841 0.12250603)
(0.028295349 -0.00085052205 0.12366871)
(0.019374605 -0.00081983879 0.12633136)
(-0.004639106 -0.0020102223 0.13164539)
(-0.0013717508 -0.0013717544 0.13597827)
(0.0095121338 0.009512138 0.021145109)
(0.022392569 0.016376542 0.040130791)
(0.028275973 0.018188956 0.045351298)
(0.028600965 0.018776935 0.047191457)
(0.026404073 0.019138057 0.048097808)
(0.022298911 0.019346656 0.049113933)
(0.015024168 0.019636659 0.050939678)
(0.0066835764 0.019369077 0.055040748)
(-0.013633918 0.019353191 0.061848145)
(-0.0064943075 0.012229887 0.074574621)
(0.016376538 0.022392579 0.040130793)
(0.038288906 0.038288915 0.07188909)
(0.048379398 0.0436643 0.081313307)
(0.048807739 0.045899506 0.08502501)
(0.044676567 0.047114443 0.087025443)
(0.0372262 0.047805281 0.089019249)
(0.024965888 0.048161739 0.092037639)
(0.010990947 0.0473144 0.097728129)
(-0.017605245 0.043600875 0.10496158)
(-0.0097059684 0.026646592 0.10912866)
(0.018188953 0.028275985 0.045351302)
(0.043664291 0.048379409 0.08131331)
(0.055155229 0.05515524 0.092688457)
(0.055525862 0.05798198 0.097438792)
(0.050409989 0.059404602 0.10005641)
(0.041419799 0.060061551 0.10246284)
(0.027147445 0.060028021 0.10572447)
(0.011287166 0.058317998 0.11129855)
(-0.019175499 0.05243629 0.11706286)
(-0.010617865 0.031154548 0.11603319)
(0.018776932 0.028600974 0.047191464)
(0.045899497 0.048807748 0.085025016)
(0.057981969 0.05552587 0.097438795)
(0.058246072 0.05824608 0.10276971)
(0.052537471 0.05950477 0.10571306)
(0.04271793 0.059959853 0.10827037)
(0.027487075 0.059622836 0.11149172)
(0.010854413 0.057618221 0.11669976)
(-0.020092663 0.051294617 0.12138954)
(-0.01097582 0.030265447 0.11803282)
(0.019138054 0.026404076 0.048097816)
(0.047114434 0.044676569 0.087025449)
(0.059404592 0.050409991 0.10005642)
(0.059504762 0.052537474 0.10571306)
(0.053377061 0.053377064 0.10881837)
(0.043040432 0.053534678 0.11142286)
(0.027263834 0.053010386 0.11456495)
(0.01023856 0.051125073 0.11948906)
(-0.020858241 0.045510543 0.12351395)
(-0.01126466 0.026960848 0.1189205)
(0.019346653 0.022298907 0.049113941)
(0.047805272 0.037226195 0.089019256)
(0.06006154 0.041419795 0.10246284)
(0.059959845 0.042717926 0.10827038)
(0.053534675 0.043040428 0.11142286)
(0.042891147 0.042891143 0.11402752)
(0.02681633 0.04227498 0.11712289)
(0.009587821 0.040767474 0.12189674)
(-0.021545008 0.036494447 0.12551062)
(-0.011472245 0.021864245 0.11993919)
(0.019636656 0.015024158 0.050939685)
(0.048161731 0.024965879 0.092037644)
(0.06002801 0.027147436 0.10572447)
(0.059622828 0.027487066 0.11149172)
(0.053010383 0.027263825 0.11456495)
(0.042274984 0.026816322 0.11712289)
(0.02613762 0.026137611 0.12021606)
(0.0088306024 0.025112007 0.12499004)
(-0.022341043 0.022573058 0.12841231)
(-0.011832405 0.013474502 0.12179001)
(0.019369073 0.0066835641 0.055040752)
(0.047314391 0.010990935 0.097728131)
(0.058317988 0.011287155 0.11129855)
(0.057618213 0.010854402 0.11669976)
(0.05112507 0.01023855 0.11948905)
(0.040767477 0.0095878107 0.12189674)
(0.025112016 0.0088305919 0.12499004)
(0.0081702584 0.0081702477 0.12991742)
(-0.02279901 0.0070115103 0.13349653)
(-0.011792218 0.0039048444 0.12574271)
(0.019353188 -0.013633928 0.061848147)
(0.043600867 -0.017605254 0.10496158)
(0.052436279 -0.019175507 0.11706285)
(0.051294609 -0.020092671 0.12138954)
(0.045510541 -0.020858249 0.12351394)
(0.036494451 -0.021545015 0.12551061)
(0.022573066 -0.022341051 0.1284123)
(0.007011521 -0.022799018 0.13349653)
(-0.022872137 -0.022872145 0.13807268)
(-0.012674027 -0.017831736 0.1308894)
(0.012229883 -0.0064943114 0.074574621)
(0.026646583 -0.0097059719 0.10912866)
(0.031154538 -0.010617868 0.11603318)
(0.030265439 -0.010975823 0.11803281)
(0.026960845 -0.011264663 0.11892049)
(0.021864249 -0.011472247 0.11993918)
(0.013474512 -0.011832408 0.12179001)
(0.0039048557 -0.011792221 0.1257427)
(-0.017831727 -0.012674031 0.13088939)
(-0.0091982142 -0.009198218 0.128084)
(0.0048744605 0.0048744651 0.014785138)
(0.014596314 0.0097077963 0.031688607)
(0.019430797 0.011256665 0.037592882)
(0.019506905 0.011815654 0.040055282)
(0.016990561 0.012167911 0.041408565)
(0.012470186 0.012368536 0.042933219)
(0.0048452264 0.012652586 0.04542701)
(-0.0032787294 0.012397209 0.050613964)
(-0.020064738 0.012360774 0.057244656)
(-0.010291929 0.0063420888 0.065630463)
(0.0097077921 0.014596325 0.031688608)
(0.028039272 0.028039282 0.063195478)
(0.037132872 0.03325115 0.074899338)
(0.037295508 0.035550735 0.080178164)
(0.032513761 0.036819253 0.08322966)
(0.02410267 0.037532572 0.086240915)
(0.010886473 0.037876628 0.090410852)
(-0.0031120055 0.036963107 0.097586208)
(-0.027190163 0.033320281 0.10391409)
(-0.01424207 0.018554699 0.10050088)
(0.011256661 0.01943081 0.037592886)
(0.03325114 0.037132884 0.07489934)
(0.043969931 0.043969943 0.089587365)
(0.044102934 0.046989226 0.096516546)
(0.038177994 0.04853312 0.10055976)
(0.027959712 0.049244911 0.10422298)
(0.012447273 0.049197038 0.10873683)
(-0.003578273 0.047363717 0.11565321)
(-0.02935123 0.041404975 0.11967951)
(-0.015231441 0.022290744 0.10905341)
(0.011815652 0.019506914 0.040055287)
(0.035550725 0.037295517 0.080178168)
(0.046989214 0.044102943 0.096516548)
(0.047033315 0.047033325 0.10439183)
(0.040436149 0.048418164 0.10897054)
(0.029259102 0.048923689 0.1128808)
(0.012663289 0.048558014 0.11732284)
(-0.0041824948 0.046412273 0.12364583)
(-0.030370176 0.040005446 0.12599191)
(-0.015591198 0.021247297 0.11189744)
(0.012167908 0.016990564 0.041408571)
(0.036819244 0.032513764 0.083229666)
(0.048533109 0.038177997 0.10055977)
(0.048418155 0.040436151 0.10897055)
(0.04135445 0.041354453 0.11381955)
(0.029590136 0.041532556 0.11781031)
(0.012386685 0.040968971 0.12212318)
(-0.0048692975 0.03898133 0.12798934)
(-0.031166623 0.033437128 0.12928244)
(-0.015868918 0.017573845 0.11327888)
(0.012368533 0.012470181 0.042933225)
(0.037532562 0.024102665 0.08624092)
(0.0492449 0.027959708 0.10422298)
(0.04892368 0.029259098 0.1128808)
(0.041532553 0.029590132 0.11781031)
(0.029423666 0.029423662 0.12180151)
(0.011891531 0.028766224 0.12603488)
(-0.0055729922 0.027234969 0.13165524)
(-0.031875167 0.023293107 0.13229885)
(-0.016068571 0.011987087 0.11480795)
(0.012652583 0.0048452154 0.045427015)
(0.037876618 0.010886463 0.090410856)
(0.049197026 0.012447263 0.10873683)
(0.048558005 0.012663279 0.11732284)
(0.040968968 0.012386675 0.12212318)
(0.028766229 0.011891521 0.12603488)
(0.01117432 0.01117431 0.1302588)
(-0.006362455 0.010208078 0.13587529)
(-0.032680395 0.0082792449 0.136242)
(-0.016425344 0.0031966618 0.11728425)
(0.012397206 -0.0032787427 0.050613968)
(0.036963097 -0.0031120177 0.09758621)
(0.047363705 -0.0035782847 0.11565321)
(0.046412265 -0.0041825061 0.12364583)
(0.038981327 -0.0048693087 0.12798933)
(0.027234973 -0.0055730034 0.13165523)
(0.010208088 -0.0063624665 0.13587529)
(-0.0069177796 -0.0069177912 0.14173634)
(-0.033034563 -0.0073032117 0.14239949)
(-0.016367239 -0.0060635778 0.1221064)
(0.01236077 -0.020064749 0.057244657)
(0.033320271 -0.027190173 0.10391409)
(0.041404963 -0.02935124 0.11967951)
(0.040005438 -0.030370184 0.1259919)
(0.033437126 -0.031166631 0.12928244)
(0.023293111 -0.031875175 0.13229884)
(0.0082792544 -0.032680404 0.136242)
(-0.0073032001 -0.033034572 0.14239948)
(-0.032430085 -0.032430095 0.14469487)
(-0.016890169 -0.023990148 0.12612038)
(0.0063420846 -0.010291934 0.065630463)
(0.018554689 -0.014242074 0.10050088)
(0.022290733 -0.015231444 0.10905341)
(0.021247288 -0.0155912 0.11189743)
(0.017573842 -0.01586892 0.11327887)
(0.011987092 -0.016068574 0.11480794)
(0.0031966718 -0.016425346 0.11728425)
(-0.0060635654 -0.016367242 0.12210639)
(-0.023990137 -0.016890173 0.12612038)
(-0.011757538 -0.011757542 0.11656845)
(0.0024424913 0.0024424964 0.01078049)
(0.0093703116 0.0056847416 0.02560739)
(0.013062221 0.0069251654 0.031875297)
(0.012826675 0.0074207691 0.034873015)
(0.010089933 0.0077455131 0.036683404)
(0.0054002417 0.0079294393 0.038708622)
(-0.0020993155 0.0081980552 0.041761741)
(-0.0094503497 0.0079725456 0.047577996)
(-0.022344431 0.0079664234 0.053438219)
(-0.011111915 0.0031324094 0.057468146)
(0.005684737 0.0093703239 0.02560739)
(0.020069259 0.02006927 0.055921468)
(0.027647572 0.02476116 0.069361342)
(0.027374119 0.026965927 0.076130488)
(0.022119846 0.028210312 0.080291765)
(0.013204693 0.028909659 0.084329915)
(-0.00011338161 0.029239088 0.089478407)
(-0.013079954 0.028357006 0.097444464)
(-0.031687492 0.025092005 0.10193612)
(-0.015310723 0.012952917 0.091282198)
(0.0069251615 0.013062235 0.031875299)
(0.024761149 0.027647585 0.069361344)
(0.034011601 0.034011614 0.086824617)
(0.033697827 0.036999052 0.095911916)
(0.027179945 0.03856465 0.10148571)
(0.016276981 0.03929397 0.10643406)
(0.0005181567 0.039253387 0.11200574)
(-0.014448048 0.037458967 0.11949327)
(-0.03438596 0.031915788 0.12077196)
(-0.016326837 0.015789099 0.10104777)
(0.0074207659 0.012826686 0.034873018)
(0.026965917 0.027374129 0.076130491)
(0.036999039 0.033697837 0.095911918)
(0.036605588 0.036605598 0.10636496)
(0.029361379 0.038021997 0.11271958)
(0.017414414 0.038552293 0.11802488)
(0.00050823624 0.038200662 0.12348148)
(-0.015262838 0.036105266 0.13010682)
(-0.035491633 0.030166033 0.12904134)
(-0.016674091 0.014561552 0.104684)
(0.0077455104 0.010089936 0.036683408)
(0.028210302 0.022119849 0.080291769)
(0.038564637 0.027179948 0.10148571)
(0.038021987 0.029361382 0.11271958)
(0.030284524 0.030284527 0.11947371)
(0.017707801 0.030474224 0.12489927)
(0.00016475993 0.02992727 0.1301674)
(-0.016005655 0.028029809 0.1361355)
(-0.036288701 0.023082727 0.13358511)
(-0.016929634 0.010672661 0.10659234)
(0.0079294364 0.0054002364 0.038708626)
(0.028909648 0.013204688 0.084329919)
(0.039293957 0.016276977 0.10643406)
(0.038552283 0.017414409 0.11802489)
(0.03047422 0.017707797 0.12489927)
(0.017532205 0.0175322 0.13032567)
(-0.00035324036 0.016895256 0.13547546)
(-0.016725851 0.01551372 0.14108879)
(-0.036983247 0.012353838 0.13763121)
(-0.017112766 0.0048931705 0.1086241)
(0.008198052 -0.0020993273 0.041761745)
(0.029239078 -0.00011339245 0.08947841)
(0.039253375 0.00051814604 0.11200574)
(0.038200652 0.00050822573 0.12348148)
(0.029927267 0.00016474954 0.1301674)
(0.01689526 -0.00035325077 0.13547546)
(-0.0010459403 -0.0010459508 0.140607)
(-0.017486855 -0.0018136071 0.14621694)
(-0.03774955 -0.0028067227 0.14241533)
(-0.017449267 -0.0037674667 0.11159452)
(0.0079725418 -0.009450364 0.047577998)
(0.028356996 -0.013079967 0.097444466)
(0.037458954 -0.014448061 0.11949327)
(0.036105256 -0.01526285 0.13010682)
(0.028029806 -0.016005667 0.1361355)
(0.015513725 -0.016725863 0.14108879)
(-0.0018135967 -0.017486868 0.14621694)
(-0.017839746 -0.017839758 0.15219243)
(-0.037956037 -0.01727514 0.14890519)
(-0.017371471 -0.012127388 0.11679483)
(0.007966419 -0.022344443 0.05343822)
(0.025091995 -0.031687503 0.10193612)
(0.031915775 -0.03438597 0.12077196)
(0.030166024 -0.035491642 0.12904134)
(0.023082724 -0.03628871 0.13358511)
(0.012353843 -0.036983256 0.13763121)
(-0.0028067125 -0.03774956 0.14241533)
(-0.017275127 -0.037956047 0.14890519)
(-0.036679623 -0.036679633 0.14803407)
(-0.017591708 -0.025913684 0.1191918)
(0.0031324048 -0.01111192 0.057468147)
(0.012952905 -0.015310727 0.091282197)
(0.015789086 -0.01632684 0.10104776)
(0.014561543 -0.016674094 0.10468399)
(0.010672658 -0.016929636 0.10659234)
(0.004893175 -0.017112769 0.1086241)
(-0.0037674558 -0.017449269 0.11159452)
(-0.012127375 -0.017371474 0.11679483)
(-0.025913672 -0.017591712 0.1191918)
(-0.011806645 -0.01180665 0.10425393)
(0.0011631839 0.0011631892 0.0082983364)
(0.0058385585 0.0032514028 0.021343781)
(0.0084454926 0.0041986265 0.027778903)
(0.0078832909 0.0046161886 0.031226423)
(0.0050174936 0.0049037598 0.033477102)
(0.0003579573 0.0050673363 0.035955889)
(-0.0066785396 0.0053169116 0.039420664)
(-0.012947082 0.0051333276 0.045426657)
(-0.022179785 0.0051855683 0.050145724)
(-0.010455398 0.0014311737 0.050192565)
(0.0032513979 0.0058385716 0.021343781)
(0.013933658 0.013933669 0.050178303)
(0.019789688 0.017917848 0.064903112)
(0.018977006 0.019918467 0.073029091)
(0.013413983 0.021083207 0.078289787)
(0.0043880094 0.021745556 0.083285112)
(-0.0083739679 0.022066709 0.089159437)
(-0.019643927 0.021294484 0.0972223)
(-0.032800123 0.018586034 0.099295527)
(-0.014555465 0.0090507985 0.082234083)
(0.0041986223 0.0084455075 0.027778904)
(0.017917837 0.019789702 0.064903113)
(0.025337991 0.025338005 0.084629875)
(0.024429368 0.028117929 0.095755376)
(0.017514216 0.02962407 0.10287054)
(0.0064028861 0.030343274 0.10903453)
(-0.0088163587 0.030334612 0.1153766)
(-0.02191941 0.028713541 0.12266559)
(-0.035927882 0.023913109 0.12058353)
(-0.01555605 0.010992085 0.092818045)
(0.0046161852 0.007883302 0.031226424)
(0.019918456 0.018977016 0.073029092)
(0.028117915 0.024429378 0.095755377)
(0.027122799 0.027122809 0.10869657)
(0.019446576 0.028488555 0.11686065)
(0.0072464266 0.029023088 0.12349801)
(-0.0091291026 0.02872686 0.12966822)
(-0.022968834 0.026842818 0.13579358)
(-0.037108307 0.021748413 0.13068003)
(-0.015883247 0.0095641521 0.097158575)
(0.0049037568 0.0050174969 0.033477105)
(0.021083196 0.013413986 0.078289789)
(0.029624057 0.017514219 0.10287054)
(0.028488544 0.019446579 0.11686065)
(0.020307962 0.020307966 0.12556826)
(0.0074593654 0.020501694 0.13236964)
(-0.0095544277 0.020022934 0.13828442)
(-0.023760292 0.018376231 0.14353321)
(-0.037889591 0.014378447 0.13648284)
(-0.016112192 0.0055832 0.099589793)
(0.0050673332 0.00035795178 0.035955892)
(0.021745546 0.0043880044 0.083285114)
(0.030343261 0.0064028812 0.10903453)
(0.029023077 0.0072464218 0.12349801)
(0.02050169 0.0074593607 0.13236964)
(0.007280946 0.0072809412 0.13917243)
(-0.010075955 0.0067193246 0.1449263)
(-0.024470391 0.0056271217 0.14970504)
(-0.038547759 0.0035240292 0.14148938)
(-0.01627523 -0.00015511682 0.10207724)
(0.0053169082 -0.0066785521 0.039420666)
(0.022066699 -0.0083739793 0.089159439)
(0.030334599 -0.0088163699 0.1153766)
(0.02872685 -0.0091291137 0.12966822)
(0.02002293 -0.0095544387 0.13828442)
(0.0067193293 -0.010075966 0.1449263)
(-0.010691175 -0.010691186 0.15065434)
(-0.025156195 -0.011156482 0.15544015)
(-0.039243787 -0.011059913 0.14684654)
(-0.016582762 -0.0083156608 0.10538091)
(0.0051333236 -0.012947097 0.045426659)
(0.021294473 -0.019643941 0.097222301)
(0.028713528 -0.021919424 0.12266559)
(0.026842808 -0.022968847 0.13579358)
(0.018376228 -0.023760304 0.14353321)
(0.0056271264 -0.024470404 0.14970504)
(-0.011156471 -0.025156208 0.15544015)
(-0.02524441 -0.025244423 0.16074731)
(-0.039285046 -0.023709106 0.15297034)
(-0.016490129 -0.015465651 0.11052111)
(0.0051855637 -0.022179798 0.050145725)
(0.018586023 -0.032800135 0.099295528)
(0.023913097 -0.035927893 0.12058353)
(0.021748403 -0.037108317 0.13068003)
(0.014378444 -0.037889601 0.13648284)
(0.0035240337 -0.038547769 0.14148938)
(-0.011059902 -0.039243797 0.14684654)
(-0.023709092 -0.039285056 0.15297034)
(-0.037434664 -0.037434675 0.14851492)
(-0.01649236 -0.025392961 0.11112501)
(0.0014311688 -0.010455403 0.050192566)
(0.0090507865 -0.01455547 0.082234083)
(0.010992071 -0.015556054 0.092818044)
(0.0095641417 -0.01588325 0.097158573)
(0.0055831965 -0.016112195 0.09958979)
(-0.00015511208 -0.016275232 0.10207723)
(-0.0083156493 -0.016582765 0.10538091)
(-0.015465637 -0.016490133 0.1105211)
(-0.025392949 -0.016492365 0.11112501)
(-0.010731294 -0.010731299 0.092184232)
(0.0004852914 0.00048529697 0.0068365457)
(0.0034288895 0.0017716682 0.01847976)
(0.0050796953 0.0024666146 0.024978087)
(0.0042106408 0.0028042482 0.02880115)
(0.0012986939 0.0030511602 0.03145591)
(-0.0031759312 0.0031938765 0.034315072)
(-0.0095301482 0.0034237801 0.038028721)
(-0.014592587 0.0032883568 0.043852307)
(-0.020670126 0.0034069434 0.047227362)
(-0.0091649081 0.00056650587 0.043826354)
(0.0017716631 0.0034289032 0.01847976)
(0.0092498785 0.0092498911 0.04590883)
(0.013382584 0.012461195 0.061580176)
(0.011994109 0.014192115 0.070906772)
(0.0062725222 0.015240951 0.077202009)
(-0.002542663 0.0158533 0.083026355)
(-0.01428107 0.016175564 0.089336063)
(-0.023516171 0.015567673 0.096888055)
(-0.031775598 0.013491839 0.096240969)
(-0.012954442 0.0063120786 0.073786171)
(0.0024666102 0.0050797109 0.024978087)
(0.012461183 0.013382599 0.061580176)
(0.017933677 0.017933691 0.083134353)
(0.016353122 0.020382063 0.096121516)
(0.0092183584 0.021767159 0.10471114)
(-0.0017046866 0.022456978 0.11194631)
(-0.01580828 0.022503345 0.1187249)
(-0.02660848 0.021155178 0.12514068)
(-0.03519941 0.017279474 0.11940537)
(-0.013907624 0.0074378771 0.084863191)
(0.0028042445 0.0042106524 0.02880115)
(0.014192104 0.01199412 0.070906772)
(0.020382049 0.016353133 0.096121516)
(0.01868945 0.018689461 0.11138199)
(0.010773462 0.019938136 0.12129805)
(-0.0012476723 0.020461265 0.12912207)
(-0.016469342 0.020256278 0.13565752)
(-0.027897512 0.018705267 0.14058556)
(-0.036441024 0.014675484 0.13113773)
(-0.014211297 0.0058121227 0.089804364)
(0.0030511569 0.0012986974 0.03145591)
(0.01524094 0.0062725256 0.07720201)
(0.021767145 0.0092183619 0.10471114)
(0.019938125 0.010773466 0.12129805)
(0.011517925 0.011517929 0.13190962)
(-0.0011505654 0.011709542 0.13994285)
(-0.016989103 0.011342168 0.14615005)
(-0.028733671 0.010065858 0.1499723)
(-0.037198649 0.007211597 0.13813733)
(-0.01441315 0.001838425 0.092724572)
(0.0031938732 -0.0031759369 0.034315073)
(0.015853289 -0.0025426682 0.083026356)
(0.022456965 -0.0017046916 0.11194631)
(0.020461254 -0.0012476772 0.12912207)
(0.011709538 -0.0011505702 0.13994285)
(-0.0013271142 -0.001327119 0.14797819)
(-0.017499836 -0.0017691131 0.15398074)
(-0.029415425 -0.0024737416 0.1572187)
(-0.03780793 -0.0033989901 0.14397636)
(-0.014555616 -0.0036828514 0.095594287)
(0.0034237764 -0.0095301612 0.038028722)
(0.016175553 -0.014281082 0.089336064)
(0.022503331 -0.015808292 0.1187249)
(0.020256267 -0.016469354 0.13565752)
(0.011342164 -0.016989115 0.14615005)
(-0.0017691083 -0.017499847 0.15398074)
(-0.017997195 -0.017997206 0.15995399)
(-0.029993597 -0.018096108 0.16322443)
(-0.038415622 -0.016895309 0.14961356)