/*--------------------------------*- C++ -*----------------------------------*\
| =========                 |                                                 |
| \\      /  F ield         | OpenFOAM: The Open Source CFD Toolbox           |
|  \\    /   O peration     | Version:  dev                                   |
|   \\  /    A nd           | Web:      www.OpenFOAM.org                      |
|    \\/     M anipulation  |                                                 |
\*---------------------------------------------------------------------------*/
FoamFile
{
    version     2.0;
    format      ascii;
    class       volScalarField;
    location    "72.995";
    object      A_0;
}
// * * * * * * * * * * * * * * * * * * * * * * * * * * * * * * * * * * * * * //

dimensions      [0 0 0 0 1 0 0];

internalField   nonuniform List<scalar> 
10000
(
6.2498931e-26
6.2419428e-26
6.2377985e-26
6.2356144e-26
6.2345392e-26
6.2340886e-26
6.2340181e-26
6.2342709e-26
6.234977e-26
6.2364376e-26
6.2419428e-26
6.234026e-26
6.2298934e-26
6.2277145e-26
6.2266425e-26
6.2261956e-26
6.2261325e-26
6.2264032e-26
6.2271568e-26
6.2287549e-26
6.2377985e-26
6.2298934e-26
6.2257676e-26
6.2235928e-26
6.222524e-26
6.2220815e-26
6.2220269e-26
6.2223149e-26
6.2231008e-26
6.2247457e-26
6.2356144e-26
6.2277145e-26
6.2235928e-26
6.2214209e-26
6.2203548e-26
6.219916e-26
6.219868e-26
6.2201673e-26
6.2209704e-26
6.2226327e-26
6.2345392e-26
6.2266425e-26
6.222524e-26
6.2203548e-26
6.2192911e-26
6.2188551e-26
6.2188112e-26
6.219117e-26
6.2199282e-26
6.2215973e-26
6.2340886e-26
6.2261956e-26
6.2220815e-26
6.219916e-26
6.2188551e-26
6.2184214e-26
6.2183801e-26
6.2186892e-26
6.2195041e-26
6.221176e-26
6.2340181e-26
6.2261325e-26
6.2220269e-26
6.219868e-26
6.2188112e-26
6.2183801e-26
6.2183408e-26
6.2186516e-26
6.2194683e-26
6.2211414e-26
6.2342709e-26
6.2264032e-26
6.2223149e-26
6.2201673e-26
6.219117e-26
6.2186892e-26
6.2186516e-26
6.2189637e-26
6.2197815e-26
6.2214555e-26
6.234977e-26
6.2271568e-26
6.2231008e-26
6.2209704e-26
6.2199282e-26
6.2195041e-26
6.2194683e-26
6.2197815e-26
6.2206005e-26
6.2222761e-26
6.2364376e-26
6.2287549e-26
6.2247457e-26
6.2226327e-26
6.2215973e-26
6.221176e-26
6.2211414e-26
6.2214555e-26
6.2222761e-26
6.2239563e-26
2.1121501e-25
2.1095649e-25
2.1081801e-25
2.1074487e-25
2.1070883e-25
2.1069372e-25
2.1069134e-25
2.1069978e-25
2.1072339e-25
2.1077403e-25
2.1095649e-25
2.1069904e-25
2.1056094e-25
2.1048797e-25
2.1045204e-25
2.1043705e-25
2.1043492e-25
2.1044396e-25
2.1046917e-25
2.1052448e-25
2.1081801e-25
2.1056094e-25
2.1042307e-25
2.1035023e-25
2.1031441e-25
2.1029957e-25
2.1029773e-25
2.1030735e-25
2.1033365e-25
2.1039054e-25
2.1074487e-25
2.1048797e-25
2.1035023e-25
2.1027749e-25
2.1024176e-25
2.1022704e-25
2.1022542e-25
2.1023543e-25
2.1026231e-25
2.1031978e-25
2.1070883e-25
2.1045204e-25
2.1031441e-25
2.1024176e-25
2.1020611e-25
2.1019149e-25
2.1019001e-25
2.1020022e-25
2.1022738e-25
2.1028508e-25
2.1069372e-25
2.1043705e-25
2.1029957e-25
2.1022704e-25
2.1019149e-25
2.1017695e-25
2.1017555e-25
2.1018588e-25
2.1021316e-25
2.1027096e-25
2.1069134e-25
2.1043492e-25
2.1029773e-25
2.1022542e-25
2.1019001e-25
2.1017555e-25
2.1017422e-25
2.1018461e-25
2.1021196e-25
2.1026979e-25
2.1069978e-25
2.1044396e-25
2.1030735e-25
2.1023543e-25
2.1020022e-25
2.1018588e-25
2.1018461e-25
2.1019505e-25
2.1022242e-25
2.1028029e-25
2.1072339e-25
2.1046917e-25
2.1033365e-25
2.1026231e-25
2.1022738e-25
2.1021316e-25
2.1021196e-25
2.1022242e-25
2.1024984e-25
2.1030776e-25
2.1077403e-25
2.1052448e-25
2.1039054e-25
2.1031978e-25
2.1028508e-25
2.1027096e-25
2.1026979e-25
2.1028029e-25
2.1030776e-25
2.1036584e-25
4.4215601e-25
4.4163247e-25
4.4134817e-25
4.4119757e-25
4.4112329e-25
4.410921e-25
4.4108715e-25
4.4110438e-25
4.4115274e-25
4.4125967e-25
4.4163247e-25
4.4111105e-25
4.4082752e-25
4.4067727e-25
4.406032e-25
4.4057227e-25
4.4056783e-25
4.4058633e-25
4.4063803e-25
4.4075471e-25
4.4134817e-25
4.4082752e-25
4.4054446e-25
4.4039449e-25
4.4032064e-25
4.4029002e-25
4.4028618e-25
4.4030588e-25
4.4035985e-25
4.4047983e-25
4.4119757e-25
4.4067727e-25
4.4039449e-25
4.4024472e-25
4.4017106e-25
4.401407e-25
4.4013731e-25
4.4015782e-25
4.4021299e-25
4.4033419e-25
4.4112329e-25
4.406032e-25
4.4032064e-25
4.4017106e-25
4.4009756e-25
4.400674e-25
4.4006431e-25
4.4008526e-25
4.40141e-25
4.4026268e-25
4.410921e-25
4.4057227e-25
4.4029002e-25
4.401407e-25
4.400674e-25
4.4003739e-25
4.4003449e-25
4.4005567e-25
4.4011167e-25
4.4023355e-25
4.4108715e-25
4.4056783e-25
4.4028618e-25
4.4013731e-25
4.4006431e-25
4.4003449e-25
4.4003171e-25
4.4005302e-25
4.4010915e-25
4.4023111e-25
4.4110438e-25
4.4058633e-25
4.4030588e-25
4.4015782e-25
4.4008526e-25
4.4005567e-25
4.4005302e-25
4.4007442e-25
4.4013062e-25
4.4025264e-25
4.4115274e-25
4.4063803e-25
4.4035985e-25
4.4021299e-25
4.40141e-25
4.4011167e-25
4.4010915e-25
4.4013062e-25
4.401869e-25
4.4030903e-25
4.4125967e-25
4.4075471e-25
4.4047983e-25
4.4033419e-25
4.4026268e-25
4.4023355e-25
4.4023111e-25
4.4025264e-25
4.4030903e-25
4.4043153e-25
8.4995788e-25
8.4898396e-25
8.4845072e-25
8.4816743e-25
8.4802747e-25
8.4796863e-25
8.4795916e-25
8.4799126e-25
8.4808131e-25
8.4828222e-25
8.4898396e-25
8.4801395e-25
8.4748214e-25
8.4719949e-25
8.4705994e-25
8.4700158e-25
8.469931e-25
8.470276e-25
8.4712405e-25
8.4734363e-25
8.4845072e-25
8.4748214e-25
8.469512e-25
8.4666907e-25
8.4652993e-25
8.4647216e-25
8.4646481e-25
8.4650163e-25
8.4660242e-25
8.468283e-25
8.4816743e-25
8.4719949e-25
8.4666907e-25
8.4638732e-25
8.4624853e-25
8.4619126e-25
8.4618479e-25
8.4622313e-25
8.4632621e-25
8.4655443e-25
8.4802747e-25
8.4705994e-25
8.4652993e-25
8.4624853e-25
8.4611006e-25
8.4605316e-25
8.4604725e-25
8.4608644e-25
8.4619062e-25
8.4641975e-25
8.4796863e-25
8.4700158e-25
8.4647216e-25
8.4619126e-25
8.4605316e-25
8.4599657e-25
8.4599101e-25
8.4603064e-25
8.4613532e-25
8.4636482e-25
8.4795916e-25
8.469931e-25
8.4646481e-25
8.4618479e-25
8.4604725e-25
8.4599101e-25
8.4598569e-25
8.4602557e-25
8.4613048e-25
8.4636014e-25
8.4799126e-25
8.470276e-25
8.4650163e-25
8.4622313e-25
8.4608644e-25
8.4603064e-25
8.4602557e-25
8.4606561e-25
8.4617067e-25
8.4640044e-25
8.4808131e-25
8.4712405e-25
8.4660242e-25
8.4632621e-25
8.4619062e-25
8.4613532e-25
8.4613048e-25
8.4617067e-25
8.4627586e-25
8.4650585e-25
8.4828222e-25
8.4734363e-25
8.468283e-25
8.4655443e-25
8.4641975e-25
8.4636482e-25
8.4636014e-25
8.4640044e-25
8.4650585e-25
8.4673654e-25
1.6093312e-24
1.6075472e-24
1.6065648e-24
1.6060414e-24
1.6057823e-24
1.6056733e-24
1.6056555e-24
1.6057141e-24
1.6058783e-24
1.606244e-24
1.6075472e-24
1.6057703e-24
1.6047905e-24
1.6042683e-24
1.60401e-24
1.6039018e-24
1.6038858e-24
1.603949e-24
1.6041252e-24
1.6045261e-24
1.6065648e-24
1.6047905e-24
1.6038123e-24
1.603291e-24
1.6030334e-24
1.6029264e-24
1.6029126e-24
1.60298e-24
1.6031644e-24
1.6035772e-24
1.6060414e-24
1.6042683e-24
1.603291e-24
1.6027704e-24
1.6025135e-24
1.6024074e-24
1.6023952e-24
1.6024655e-24
1.6026542e-24
1.6030714e-24
1.6057823e-24
1.60401e-24
1.6030334e-24
1.6025135e-24
1.6022572e-24
1.6021518e-24
1.6021406e-24
1.6022126e-24
1.6024034e-24
1.6028222e-24
1.6056733e-24
1.6039018e-24
1.6029264e-24
1.6024074e-24
1.6021518e-24
1.6020469e-24
1.6020364e-24
1.6021092e-24
1.6023009e-24
1.6027205e-24
1.6056555e-24
1.6038858e-24
1.6029126e-24
1.6023952e-24
1.6021406e-24
1.6020364e-24
1.6020264e-24
1.6020997e-24
1.6022918e-24
1.6027117e-24
1.6057141e-24
1.603949e-24
1.60298e-24
1.6024655e-24
1.6022126e-24
1.6021092e-24
1.6020997e-24
1.6021732e-24
1.6023656e-24
1.6027857e-24
1.6058783e-24
1.6041252e-24
1.6031644e-24
1.6026542e-24
1.6024034e-24
1.6023009e-24
1.6022918e-24
1.6023656e-24
1.6025583e-24
1.6029788e-24
1.606244e-24
1.6045261e-24
1.6035772e-24
1.6030714e-24
1.6028222e-24
1.6027205e-24
1.6027117e-24
1.6027857e-24
1.6029788e-24
1.6034005e-24
3.0576826e-24
3.0544049e-24
3.0525912e-24
3.0516222e-24
3.0511418e-24
3.0509393e-24
3.0509057e-24
3.0510129e-24
3.0513125e-24
3.0519754e-24
3.0544049e-24
3.05114e-24
3.0493311e-24
3.0483642e-24
3.0478852e-24
3.0476843e-24
3.0476543e-24
3.04777e-24
3.0480923e-24
3.0488218e-24
3.0525912e-24
3.0493311e-24
3.047525e-24
3.0465599e-24
3.0460823e-24
3.0458835e-24
3.0458575e-24
3.0459814e-24
3.046319e-24
3.0470709e-24
3.0516222e-24
3.0483642e-24
3.0465599e-24
3.0455961e-24
3.0451198e-24
3.0449227e-24
3.0448997e-24
3.0450291e-24
3.0453748e-24
3.046135e-24
3.0511418e-24
3.0478852e-24
3.0460823e-24
3.0451198e-24
3.0446445e-24
3.0444487e-24
3.0444278e-24
3.0445601e-24
3.0449097e-24
3.0456731e-24
3.0509393e-24
3.0476843e-24
3.0458835e-24
3.0449227e-24
3.0444487e-24
3.0442541e-24
3.0442343e-24
3.0443682e-24
3.0447196e-24
3.0454843e-24
3.0509057e-24
3.0476543e-24
3.0458575e-24
3.0448997e-24
3.0444278e-24
3.0442343e-24
3.0442155e-24
3.0443502e-24
3.0447024e-24
3.0454677e-24
3.0510129e-24
3.04777e-24
3.0459814e-24
3.0450291e-24
3.0445601e-24
3.0443682e-24
3.0443502e-24
3.0444855e-24
3.0448382e-24
3.0456039e-24
3.0513125e-24
3.0480923e-24
3.046319e-24
3.0453748e-24
3.0449097e-24
3.0447196e-24
3.0447024e-24
3.0448382e-24
3.0451914e-24
3.0459578e-24
3.0519754e-24
3.0488218e-24
3.0470709e-24
3.046135e-24
3.0456731e-24
3.0454843e-24
3.0454677e-24
3.0456039e-24
3.0459578e-24
3.0467265e-24
5.8607427e-24
5.8546699e-24
5.8512949e-24
5.8494868e-24
5.8485889e-24
5.8482097e-24
5.8481461e-24
5.8483437e-24
5.848894e-24
5.8501027e-24
5.8546699e-24
5.8486207e-24
5.8452544e-24
5.8434502e-24
5.8425549e-24
5.8421789e-24
5.8421219e-24
5.8423356e-24
5.8429292e-24
5.8442647e-24
5.8512949e-24
5.8452544e-24
5.8418934e-24
5.8400925e-24
5.8391998e-24
5.8388277e-24
5.8387783e-24
5.8390076e-24
5.8396304e-24
5.8410086e-24
5.8494868e-24
5.8434502e-24
5.8400925e-24
5.838294e-24
5.8374037e-24
5.8370348e-24
5.8369913e-24
5.8372309e-24
5.8378691e-24
5.839263e-24
5.8485889e-24
5.8425549e-24
5.8391998e-24
5.8374037e-24
5.8365154e-24
5.836149e-24
5.8361092e-24
5.8363545e-24
5.8370001e-24
5.8384002e-24
5.8482097e-24
5.8421789e-24
5.8388277e-24
5.8370348e-24
5.836149e-24
5.8357848e-24
5.8357473e-24
5.8359955e-24
5.8366445e-24
5.8380471e-24
5.8481461e-24
5.8421219e-24
5.8387783e-24
5.8369913e-24
5.8361092e-24
5.8357473e-24
5.8357115e-24
5.8359614e-24
5.8366119e-24
5.8380155e-24
5.8483437e-24
5.8423356e-24
5.8390076e-24
5.8372309e-24
5.8363545e-24
5.8359955e-24
5.8359614e-24
5.8362123e-24
5.8368637e-24
5.8382682e-24
5.848894e-24
5.8429292e-24
5.8396304e-24
5.8378691e-24
5.8370001e-24
5.8366445e-24
5.8366119e-24
5.8368637e-24
5.8375161e-24
5.8389218e-24
5.8501027e-24
5.8442647e-24
5.8410086e-24
5.839263e-24
5.8384002e-24
5.8380471e-24
5.8380155e-24
5.8382682e-24
5.8389218e-24
5.8403316e-24
1.1350235e-23
1.1338871e-23
1.1332529e-23
1.1329122e-23
1.1327428e-23
1.1326711e-23
1.1326589e-23
1.1326957e-23
1.1327978e-23
1.1330201e-23
1.1338871e-23
1.1327551e-23
1.1321225e-23
1.1317826e-23
1.1316136e-23
1.1315425e-23
1.1315316e-23
1.1315715e-23
1.1316819e-23
1.1319287e-23
1.1332529e-23
1.1321225e-23
1.1314909e-23
1.1311516e-23
1.1309831e-23
1.1309128e-23
1.1309033e-23
1.1309462e-23
1.1310622e-23
1.1313172e-23
1.1329122e-23
1.1317826e-23
1.1311516e-23
1.1308127e-23
1.1306447e-23
1.130575e-23
1.1305667e-23
1.1306115e-23
1.1307305e-23
1.1309885e-23
1.1327428e-23
1.1316136e-23
1.1309831e-23
1.1306447e-23
1.130477e-23
1.1304078e-23
1.1304002e-23
1.1304461e-23
1.1305665e-23
1.1308257e-23
1.1326711e-23
1.1315425e-23
1.1309128e-23
1.130575e-23
1.1304078e-23
1.130339e-23
1.1303318e-23
1.1303783e-23
1.1304994e-23
1.130759e-23
1.1326589e-23
1.1315316e-23
1.1309033e-23
1.1305667e-23
1.1304002e-23
1.1303318e-23
1.130325e-23
1.1303718e-23
1.1304931e-23
1.130753e-23
1.1326957e-23
1.1315715e-23
1.1309462e-23
1.1306115e-23
1.1304461e-23
1.1303783e-23
1.1303718e-23
1.1304188e-23
1.1305403e-23
1.1308003e-23
1.1327978e-23
1.1316819e-23
1.1310622e-23
1.1307305e-23
1.1305665e-23
1.1304994e-23
1.1304931e-23
1.1305403e-23
1.130662e-23
1.1309222e-23
1.1330201e-23
1.1319287e-23
1.1313172e-23
1.1309885e-23
1.1308257e-23
1.130759e-23
1.130753e-23
1.1308003e-23
1.1309222e-23
1.1311832e-23
2.2220742e-23
2.2199256e-23
2.2187216e-23
2.2180731e-23
2.2177499e-23
2.2176131e-23
2.2175896e-23
2.2176587e-23
2.2178501e-23
2.2182634e-23
2.2199256e-23
2.2177852e-23
2.2165842e-23
2.2159371e-23
2.2156148e-23
2.2154791e-23
2.215458e-23
2.2155333e-23
2.2157408e-23
2.2162015e-23
2.2187216e-23
2.2165842e-23
2.215385e-23
2.214739e-23
2.2144178e-23
2.2142835e-23
2.2142652e-23
2.2143462e-23
2.2145646e-23
2.2150413e-23
2.2180731e-23
2.2159371e-23
2.214739e-23
2.2140939e-23
2.2137735e-23
2.2136405e-23
2.2136244e-23
2.2137092e-23
2.2139333e-23
2.2144158e-23
2.2177499e-23
2.2156148e-23
2.2144178e-23
2.2137735e-23
2.2134539e-23
2.2133217e-23
2.213307e-23
2.213394e-23
2.2136208e-23
2.2141057e-23
2.2176131e-23
2.2154791e-23
2.2142835e-23
2.2136405e-23
2.2133217e-23
2.2131904e-23
2.2131765e-23
2.2132646e-23
2.2134927e-23
2.2139784e-23
2.2175896e-23
2.215458e-23
2.2142652e-23
2.2136244e-23
2.213307e-23
2.2131765e-23
2.2131633e-23
2.2132519e-23
2.2134806e-23
2.2139668e-23
2.2176587e-23
2.2155333e-23
2.2143462e-23
2.2137092e-23
2.213394e-23
2.2132646e-23
2.2132519e-23
2.213341e-23
2.21357e-23
2.2140564e-23
2.2178501e-23
2.2157408e-23
2.2145646e-23
2.2139333e-23
2.2136208e-23
2.2134927e-23
2.2134806e-23
2.21357e-23
2.2137993e-23
2.2142862e-23
2.2182634e-23
2.2162015e-23
2.2150413e-23
2.2144158e-23
2.2141057e-23
2.2139784e-23
2.2139668e-23
2.2140564e-23
2.2142862e-23
2.2147744e-23
4.398353e-23
4.3942473e-23
4.3919371e-23
4.3906897e-23
4.3900671e-23
4.3898031e-23
4.3897571e-23
4.3898886e-23
4.3902512e-23
4.3910274e-23
4.3942473e-23
4.3901572e-23
4.3878527e-23
4.3866079e-23
4.385987e-23
4.3857252e-23
4.3856841e-23
4.3858274e-23
4.3862217e-23
4.3870911e-23
4.3919371e-23
4.3878527e-23
4.3855518e-23
4.3843092e-23
4.3836902e-23
4.3834312e-23
4.3833956e-23
4.3835503e-23
4.3839659e-23
4.3848665e-23
4.3906897e-23
4.3866079e-23
4.3843092e-23
4.3830683e-23
4.3824509e-23
4.3821943e-23
4.3821629e-23
4.3823251e-23
4.3827519e-23
4.3836641e-23
4.3900671e-23
4.385987e-23
4.3836902e-23
4.3824509e-23
4.381835e-23
4.3815802e-23
4.3815515e-23
4.3817178e-23
4.38215e-23
4.3830668e-23
4.3898031e-23
4.3857252e-23
4.3834312e-23
4.3821943e-23
4.3815802e-23
4.3813269e-23
4.3812999e-23
4.3814683e-23
4.3819029e-23
4.3828215e-23
4.3897571e-23
4.3856841e-23
4.3833956e-23
4.3821629e-23
4.3815515e-23
4.3812999e-23
4.3812742e-23
4.3814438e-23
4.3818795e-23
4.3827989e-23
4.3898886e-23
4.3858274e-23
4.3835503e-23
4.3823251e-23
4.3817178e-23
4.3814683e-23
4.3814438e-23
4.3816141e-23
4.3820506e-23
4.3829704e-23
4.3902512e-23
4.3862217e-23
4.3839659e-23
4.3827519e-23
4.38215e-23
4.3819029e-23
4.3818795e-23
4.3820506e-23
4.3824876e-23
4.3834083e-23
4.3910274e-23
4.3870911e-23
4.3848665e-23
4.3836641e-23
4.3830668e-23
4.3828215e-23
4.3827989e-23
4.3829704e-23
4.3834083e-23
4.3843316e-23
8.8031288e-23
8.7951995e-23
8.79072e-23
8.7882951e-23
8.7870827e-23
8.7865679e-23
8.7864774e-23
8.7867301e-23
8.7874245e-23
8.7888982e-23
8.7951995e-23
8.7873001e-23
8.7828314e-23
8.7804115e-23
8.7792025e-23
8.7786921e-23
8.778611e-23
8.7788873e-23
8.7796445e-23
8.7813032e-23
8.79072e-23
8.7828314e-23
8.7783697e-23
8.775954e-23
8.7747486e-23
8.7742437e-23
8.7741737e-23
8.7744723e-23
8.7752719e-23
8.7769926e-23
8.7882951e-23
8.7804115e-23
8.775954e-23
8.7735415e-23
8.7723394e-23
8.7718392e-23
8.7717775e-23
8.772091e-23
8.7729127e-23
8.7746564e-23
8.7870827e-23
8.7792025e-23
8.7747486e-23
8.7723394e-23
8.7711402e-23
8.7706436e-23
8.7705872e-23
8.7709089e-23
8.7717413e-23
8.7734939e-23
8.7865679e-23
8.7786921e-23
8.7742437e-23
8.7718392e-23
8.7706436e-23
8.7701499e-23
8.7700969e-23
8.7704228e-23
8.77126e-23
8.7730162e-23
8.7864774e-23
8.778611e-23
8.7741737e-23
8.7717775e-23
8.7705872e-23
8.7700969e-23
8.7700463e-23
8.7703745e-23
8.771214e-23
8.7729717e-23
8.7867301e-23
8.7788873e-23
8.7744723e-23
8.772091e-23
8.7709089e-23
8.7704228e-23
8.7703745e-23
8.7707043e-23
8.771545e-23
8.7733037e-23
8.7874245e-23
8.7796445e-23
8.7752719e-23
8.7729127e-23
8.7717413e-23
8.77126e-23
8.771214e-23
8.771545e-23
8.772387e-23
8.7741472e-23
8.7888982e-23
8.7813032e-23
8.7769926e-23
8.7746564e-23
8.7734939e-23
8.7730162e-23
8.7729717e-23
8.7733037e-23
8.7741472e-23
8.7759124e-23
1.7816588e-22
1.780111e-22
1.7792331e-22
1.7787567e-22
1.7785181e-22
1.7784166e-22
1.7783986e-22
1.7784478e-22
1.7785822e-22
1.778865e-22
1.780111e-22
1.7785689e-22
1.7776931e-22
1.7772177e-22
1.7769798e-22
1.7768792e-22
1.7768631e-22
1.7769169e-22
1.777064e-22
1.7773839e-22
1.7792331e-22
1.7776931e-22
1.7768187e-22
1.7763441e-22
1.7761069e-22
1.7760074e-22
1.7759935e-22
1.7760518e-22
1.7762073e-22
1.7765397e-22
1.7787567e-22
1.7772177e-22
1.7763441e-22
1.7758701e-22
1.7756335e-22
1.775535e-22
1.7755228e-22
1.775584e-22
1.775744e-22
1.776081e-22
1.7785181e-22
1.7769798e-22
1.7761069e-22
1.7756335e-22
1.7753976e-22
1.7752997e-22
1.7752886e-22
1.7753515e-22
1.7755136e-22
1.7758524e-22
1.7784166e-22
1.7768792e-22
1.7760074e-22
1.775535e-22
1.7752997e-22
1.7752025e-22
1.775192e-22
1.7752558e-22
1.7754188e-22
1.7757583e-22
1.7783986e-22
1.7768631e-22
1.7759935e-22
1.7755228e-22
1.7752886e-22
1.775192e-22
1.775182e-22
1.7752462e-22
1.7754097e-22
1.7757495e-22
1.7784478e-22
1.7769169e-22
1.7760518e-22
1.775584e-22
1.7753515e-22
1.7752558e-22
1.7752462e-22
1.7753107e-22
1.7754745e-22
1.7758145e-22
1.7785822e-22
1.777064e-22
1.7762073e-22
1.775744e-22
1.7755136e-22
1.7754188e-22
1.7754097e-22
1.7754745e-22
1.7756385e-22
1.7759788e-22
1.778865e-22
1.7773839e-22
1.7765397e-22
1.776081e-22
1.7758524e-22
1.7757583e-22
1.7757495e-22
1.7758145e-22
1.7759788e-22
1.77632e-22
3.6464622e-22
3.6434083e-22
3.6416694e-22
3.6407234e-22
3.6402489e-22
3.6400469e-22
3.6400107e-22
3.6401072e-22
3.6403705e-22
3.6409191e-22
3.6434083e-22
3.6403656e-22
3.6386309e-22
3.6376867e-22
3.6372135e-22
3.6370133e-22
3.636981e-22
3.637087e-22
3.6373758e-22
3.6379997e-22
3.6416694e-22
3.6386309e-22
3.6368988e-22
3.6359563e-22
3.6354845e-22
3.6352865e-22
3.6352586e-22
3.6353737e-22
3.6356796e-22
3.6363288e-22
3.6407234e-22
3.6376867e-22
3.6359563e-22
3.635015e-22
3.6345446e-22
3.6343484e-22
3.6343239e-22
3.634445e-22
3.6347599e-22
3.6354184e-22
3.6402489e-22
3.6372135e-22
3.6354845e-22
3.6345446e-22
3.6340753e-22
3.6338806e-22
3.6338582e-22
3.6339826e-22
3.6343019e-22
3.634964e-22
3.6400469e-22
3.6370133e-22
3.6352865e-22
3.6343484e-22
3.6338806e-22
3.6336871e-22
3.633666e-22
3.6337922e-22
3.6341134e-22
3.6347769e-22
3.6400107e-22
3.636981e-22
3.6352586e-22
3.6343239e-22
3.6338582e-22
3.633666e-22
3.633646e-22
3.6337731e-22
3.6340951e-22
3.6347593e-22
3.6401072e-22
3.637087e-22
3.6353737e-22
3.634445e-22
3.6339826e-22
3.6337922e-22
3.6337731e-22
3.6339008e-22
3.6342234e-22
3.6348879e-22
3.6403705e-22
3.6373758e-22
3.6356796e-22
3.6347599e-22
3.6343019e-22
3.6341134e-22
3.6340951e-22
3.6342234e-22
3.6345464e-22
3.6352116e-22
3.6409191e-22
3.6379997e-22
3.6363288e-22
3.6354184e-22
3.634964e-22
3.6347769e-22
3.6347593e-22
3.6348879e-22
3.6352116e-22
3.6358785e-22
7.5473335e-22
7.5412429e-22
7.5377617e-22
7.5358631e-22
7.5349093e-22
7.5345028e-22
7.5344294e-22
7.5346212e-22
7.5351422e-22
7.5362184e-22
7.5412429e-22
7.5351747e-22
7.5317016e-22
7.5298067e-22
7.5288555e-22
7.5284526e-22
7.528387e-22
7.5285983e-22
7.5291717e-22
7.5304021e-22
7.5377617e-22
7.5317016e-22
7.5282337e-22
7.5263421e-22
7.5253939e-22
7.5249955e-22
7.5249389e-22
7.5251688e-22
7.5257772e-22
7.5270594e-22
7.5358631e-22
7.5298067e-22
7.5263421e-22
7.524453e-22
7.5235074e-22
7.5231129e-22
7.5230632e-22
7.5233053e-22
7.5239322e-22
7.5252334e-22
7.5349093e-22
7.5288555e-22
7.5253939e-22
7.5235074e-22
7.5225642e-22
7.5221726e-22
7.5221273e-22
7.5223762e-22
7.5230118e-22
7.5243205e-22
7.5345028e-22
7.5284526e-22
7.5249955e-22
7.5231129e-22
7.5221726e-22
7.5217834e-22
7.5217409e-22
7.5219933e-22
7.5226329e-22
7.5239445e-22
7.5344294e-22
7.528387e-22
7.5249389e-22
7.5230632e-22
7.5221273e-22
7.5217409e-22
7.5217004e-22
7.5219547e-22
7.5225962e-22
7.5239091e-22
7.5346212e-22
7.5285983e-22
7.5251688e-22
7.5233053e-22
7.5223762e-22
7.5219933e-22
7.5219547e-22
7.5222103e-22
7.5228528e-22
7.5241664e-22
7.5351422e-22
7.5291717e-22
7.5257772e-22
7.5239322e-22
7.5230118e-22
7.5226329e-22
7.5225962e-22
7.5228528e-22
7.5234962e-22
7.524811e-22
7.5362184e-22
7.5304021e-22
7.5270594e-22
7.5252334e-22
7.5243205e-22
7.5239445e-22
7.5239091e-22
7.5241664e-22
7.524811e-22
7.5261293e-22
1.5797956e-21
1.5785678e-21
1.5778634e-21
1.5774783e-21
1.5772845e-21
1.5772018e-21
1.5771868e-21
1.5772253e-21
1.5773296e-21
1.577543e-21
1.5785678e-21
1.5773445e-21
1.5766417e-21
1.5762573e-21
1.5760641e-21
1.5759822e-21
1.5759687e-21
1.5760113e-21
1.5761264e-21
1.5763718e-21
1.5778634e-21
1.5766417e-21
1.5759399e-21
1.5755562e-21
1.5753636e-21
1.5752826e-21
1.575271e-21
1.5753174e-21
1.5754398e-21
1.5756959e-21
1.5774783e-21
1.5762573e-21
1.5755562e-21
1.575173e-21
1.5749809e-21
1.5749007e-21
1.5748906e-21
1.5749395e-21
1.5750657e-21
1.5753257e-21
1.5772845e-21
1.5760641e-21
1.5753636e-21
1.5749809e-21
1.5747893e-21
1.5747097e-21
1.5747005e-21
1.5747508e-21
1.5748788e-21
1.5751404e-21
1.5772018e-21
1.5759822e-21
1.5752826e-21
1.5749007e-21
1.5747097e-21
1.5746306e-21
1.574622e-21
1.574673e-21
1.5748018e-21
1.575064e-21
1.5771868e-21
1.5759687e-21
1.575271e-21
1.5748906e-21
1.5747005e-21
1.574622e-21
1.5746137e-21
1.5746652e-21
1.5747944e-21
1.5750568e-21
1.5772253e-21
1.5760113e-21
1.5753174e-21
1.5749395e-21
1.5747508e-21
1.574673e-21
1.5746652e-21
1.5747169e-21
1.5748463e-21
1.5751089e-21
1.5773296e-21
1.5761264e-21
1.5754398e-21
1.5750657e-21
1.5748788e-21
1.5748018e-21
1.5747944e-21
1.5748463e-21
1.5749759e-21
1.5752387e-21
1.577543e-21
1.5763718e-21
1.5756959e-21
1.5753257e-21
1.5751404e-21
1.575064e-21
1.5750568e-21
1.5751089e-21
1.5752387e-21
1.5755022e-21
3.3442636e-21
3.3417618e-21
3.3403211e-21
3.3395315e-21
3.3391337e-21
3.3389638e-21
3.3389327e-21
3.339011e-21
3.339222e-21
3.3396499e-21
3.3417618e-21
3.3392691e-21
3.3378316e-21
3.3370436e-21
3.3366469e-21
3.3364785e-21
3.3364507e-21
3.3365375e-21
3.3367711e-21
3.3372659e-21
3.3403211e-21
3.3378316e-21
3.3363963e-21
3.3356096e-21
3.3352141e-21
3.3350477e-21
3.3350238e-21
3.3351186e-21
3.3353674e-21
3.3358846e-21
3.3395315e-21
3.3370436e-21
3.3356096e-21
3.334824e-21
3.3344296e-21
3.3342648e-21
3.3342439e-21
3.334344e-21
3.3346008e-21
3.3351262e-21
3.3391337e-21
3.3366469e-21
3.3352141e-21
3.3344296e-21
3.3340362e-21
3.3338727e-21
3.3338537e-21
3.3339567e-21
3.3342173e-21
3.334746e-21
3.3389638e-21
3.3364785e-21
3.3350477e-21
3.3342648e-21
3.3338727e-21
3.3337102e-21
3.3336924e-21
3.3337969e-21
3.3340592e-21
3.3345892e-21
3.3389327e-21
3.3364507e-21
3.3350238e-21
3.3342439e-21
3.3338537e-21
3.3336924e-21
3.3336755e-21
3.3337808e-21
3.3340439e-21
3.3345744e-21
3.339011e-21
3.3365375e-21
3.3351186e-21
3.334344e-21
3.3339567e-21
3.3337969e-21
3.3337808e-21
3.3338866e-21
3.3341502e-21
3.334681e-21
3.339222e-21
3.3367711e-21
3.3353674e-21
3.3346008e-21
3.3342173e-21
3.3340592e-21
3.3340439e-21
3.3341502e-21
3.3344141e-21
3.3349454e-21
3.3396499e-21
3.3372659e-21
3.3358846e-21
3.3351262e-21
3.334746e-21
3.3345892e-21
3.3345744e-21
3.334681e-21
3.3349454e-21
3.3354781e-21
7.1596969e-21
7.1545443e-21
7.151566e-21
7.14993e-21
7.1491046e-21
7.1487516e-21
7.1486865e-21
7.1488475e-21
7.1492793e-21
7.1501466e-21
7.1545443e-21
7.1494101e-21
7.1464385e-21
7.1448057e-21
7.1439824e-21
7.1436327e-21
7.1435747e-21
7.1437535e-21
7.1442332e-21
7.1452422e-21
7.151566e-21
7.1464385e-21
7.1434713e-21
7.1418412e-21
7.1410205e-21
7.1406749e-21
7.1406252e-21
7.1408209e-21
7.1413327e-21
7.142389e-21
7.14993e-21
7.1448057e-21
7.1418412e-21
7.1402134e-21
7.139395e-21
7.1390528e-21
7.1390094e-21
7.1392163e-21
7.1397449e-21
7.1408187e-21
7.1491046e-21
7.1439824e-21
7.1410205e-21
7.139395e-21
7.1385788e-21
7.1382392e-21
7.1381998e-21
7.1384129e-21
7.1389495e-21
7.1400301e-21
7.1487516e-21
7.1436327e-21
7.1406749e-21
7.1390528e-21
7.1382392e-21
7.1379019e-21
7.137865e-21
7.1380813e-21
7.1386215e-21
7.1397048e-21
7.1486865e-21
7.1435747e-21
7.1406252e-21
7.1390094e-21
7.1381998e-21
7.137865e-21
7.1378299e-21
7.1380479e-21
7.1385898e-21
7.1396743e-21
7.1488475e-21
7.1437535e-21
7.1408209e-21
7.1392163e-21
7.1384129e-21
7.1380813e-21
7.1380479e-21
7.138267e-21
7.1388099e-21
7.139895e-21
7.1492793e-21
7.1442332e-21
7.1413327e-21
7.1397449e-21
7.1389495e-21
7.1386215e-21
7.1385898e-21
7.1388099e-21
7.1393535e-21
7.1404396e-21
7.1501466e-21
7.1452422e-21
7.142389e-21
7.1408187e-21
7.1400301e-21
7.1397048e-21
7.1396743e-21
7.139895e-21
7.1404396e-21
7.1415284e-21
1.5501756e-20
1.549103e-20
1.5484807e-20
1.5481382e-20
1.547965e-20
1.547891e-20
1.5478772e-20
1.5479107e-20
1.548e-20
1.5481778e-20
1.549103e-20
1.5480342e-20
1.5474133e-20
1.5470713e-20
1.5468987e-20
1.5468253e-20
1.5468131e-20
1.5468503e-20
1.5469499e-20
1.547158e-20
1.5484807e-20
1.5474133e-20
1.5467933e-20
1.546452e-20
1.5462799e-20
1.5462073e-20
1.5461969e-20
1.5462378e-20
1.5463442e-20
1.5465624e-20
1.5481382e-20
1.5470713e-20
1.546452e-20
1.5461111e-20
1.5459395e-20
1.5458677e-20
1.5458585e-20
1.5459018e-20
1.5460118e-20
1.5462337e-20
1.547965e-20
1.5468987e-20
1.5462799e-20
1.5459395e-20
1.5457683e-20
1.5456971e-20
1.5456888e-20
1.5457334e-20
1.5458451e-20
1.5460685e-20
1.547891e-20
1.5468253e-20
1.5462073e-20
1.5458677e-20
1.5456971e-20
1.5456263e-20
1.5456186e-20
1.5456638e-20
1.5457763e-20
1.5460003e-20
1.5478772e-20
1.5468131e-20
1.5461969e-20
1.5458585e-20
1.5456888e-20
1.5456186e-20
1.5456112e-20
1.5456569e-20
1.5457697e-20
1.5459939e-20
1.5479107e-20
1.5468503e-20
1.5462378e-20
1.5459018e-20
1.5457334e-20
1.5456638e-20
1.5456569e-20
1.5457027e-20
1.5458158e-20
1.5460401e-20
1.548e-20
1.5469499e-20
1.5463442e-20
1.5460118e-20
1.5458451e-20
1.5457763e-20
1.5457697e-20
1.5458158e-20
1.545929e-20
1.5461536e-20
1.5481778e-20
1.547158e-20
1.5465624e-20
1.5462337e-20
1.5460685e-20
1.5460003e-20
1.5459939e-20
1.5460401e-20
1.5461536e-20
1.5463786e-20
3.3943134e-20
3.3920565e-20
3.3907426e-20
3.3900176e-20
3.3896507e-20
3.3894935e-20
3.3894643e-20
3.3895346e-20
3.3897215e-20
3.3900898e-20
3.3920565e-20
3.3898076e-20
3.3884965e-20
3.3877728e-20
3.3874069e-20
3.3872512e-20
3.3872253e-20
3.3873038e-20
3.3875128e-20
3.3879467e-20
3.3907426e-20
3.3884965e-20
3.3871874e-20
3.3864649e-20
3.3861002e-20
3.3859464e-20
3.3859242e-20
3.3860105e-20
3.3862343e-20
3.3866901e-20
3.3900176e-20
3.3877728e-20
3.3864649e-20
3.3857435e-20
3.3853798e-20
3.3852275e-20
3.3852083e-20
3.3852997e-20
3.3855313e-20
3.3859951e-20
3.3896507e-20
3.3874069e-20
3.3861002e-20
3.3853798e-20
3.3850171e-20
3.384866e-20
3.3848486e-20
3.3849429e-20
3.3851782e-20
3.3856451e-20
3.3894935e-20
3.3872512e-20
3.3859464e-20
3.3852275e-20
3.384866e-20
3.384716e-20
3.3846997e-20
3.3847955e-20
3.3850325e-20
3.3855006e-20
3.3894643e-20
3.3872253e-20
3.3859242e-20
3.3852083e-20
3.3848486e-20
3.3846997e-20
3.3846843e-20
3.3847809e-20
3.3850186e-20
3.3854873e-20
3.3895346e-20
3.3873038e-20
3.3860105e-20
3.3852997e-20
3.3849429e-20
3.3847955e-20
3.3847809e-20
3.384878e-20
3.3851161e-20
3.3855851e-20
3.3897215e-20
3.3875128e-20
3.3862343e-20
3.3855313e-20
3.3851782e-20
3.3850325e-20
3.3850186e-20
3.3851161e-20
3.3853546e-20
3.385824e-20
3.3900898e-20
3.3879467e-20
3.3866901e-20
3.3859951e-20
3.3856451e-20
3.3855006e-20
3.3854873e-20
3.3855851e-20
3.385824e-20
3.3862945e-20
7.5161435e-20
7.5113443e-20
7.5085405e-20
7.5069899e-20
7.5062041e-20
7.5058673e-20
7.5058043e-20
7.5059538e-20
7.5063491e-20
7.5071208e-20
7.5113443e-20
7.5065618e-20
7.5037641e-20
7.5022163e-20
7.5014326e-20
7.501099e-20
7.5010432e-20
7.5012106e-20
7.5016543e-20
7.502569e-20
7.5085405e-20
7.5037641e-20
7.5009704e-20
7.4994252e-20
7.4986441e-20
7.4983145e-20
7.4982669e-20
7.4984513e-20
7.4989273e-20
7.4998899e-20
7.5069899e-20
7.5022163e-20
7.4994252e-20
7.4978822e-20
7.4971033e-20
7.4967772e-20
7.4967359e-20
7.4969315e-20
7.4974244e-20
7.4984046e-20
7.5062041e-20
7.5014326e-20
7.4986441e-20
7.4971033e-20
7.4963266e-20
7.4960031e-20
7.4959658e-20
7.4961677e-20
7.4966686e-20
7.4976556e-20
7.5058673e-20
7.501099e-20
7.4983145e-20
7.4967772e-20
7.4960031e-20
7.4956818e-20
7.4956471e-20
7.4958521e-20
7.4963567e-20
7.4973464e-20
7.5058043e-20
7.5010432e-20
7.4982669e-20
7.4967359e-20
7.4959658e-20
7.4956471e-20
7.4956142e-20
7.4958209e-20
7.4963272e-20
7.4973181e-20
7.5059538e-20
7.5012106e-20
7.4984513e-20
7.4969315e-20
7.4961677e-20
7.4958521e-20
7.4958209e-20
7.4960288e-20
7.496536e-20
7.4975275e-20
7.5063491e-20
7.5016543e-20
7.4989273e-20
7.4974244e-20
7.4966686e-20
7.4963567e-20
7.4963272e-20
7.496536e-20
7.4970439e-20
7.4980363e-20
7.5071208e-20
7.502569e-20
7.4998899e-20
7.4984046e-20
7.4976556e-20
7.4973464e-20
7.4973181e-20
7.4975275e-20
7.4980363e-20
7.4990311e-20
1.6830306e-19
1.6819992e-19
1.6813946e-19
1.6810595e-19
1.6808895e-19
1.6808165e-19
1.6808028e-19
1.680835e-19
1.6809195e-19
1.681083e-19
1.6819992e-19
1.6809714e-19
1.6803681e-19
1.6800336e-19
1.679864e-19
1.6797918e-19
1.6797797e-19
1.6798158e-19
1.679911e-19
1.680106e-19
1.6813946e-19
1.6803681e-19
1.6797657e-19
1.6794317e-19
1.6792627e-19
1.6791913e-19
1.679181e-19
1.6792209e-19
1.6793232e-19
1.6795288e-19
1.6810595e-19
1.6800336e-19
1.6794317e-19
1.6790982e-19
1.6789297e-19
1.6788591e-19
1.6788502e-19
1.6788925e-19
1.6789986e-19
1.6792081e-19
1.6808895e-19
1.679864e-19
1.6792627e-19
1.6789297e-19
1.6787616e-19
1.6786916e-19
1.6786836e-19
1.6787273e-19
1.6788351e-19
1.6790461e-19
1.6808165e-19
1.6797918e-19
1.6791913e-19
1.6788591e-19
1.6786916e-19
1.6786221e-19
1.6786146e-19
1.678659e-19
1.6787676e-19
1.6789792e-19
1.6808028e-19
1.6797797e-19
1.679181e-19
1.6788502e-19
1.6786836e-19
1.6786146e-19
1.6786076e-19
1.6786523e-19
1.6787613e-19
1.6789732e-19
1.680835e-19
1.6798158e-19
1.6792209e-19
1.6788925e-19
1.6787273e-19
1.678659e-19
1.6786523e-19
1.6786973e-19
1.6788065e-19
1.6790185e-19
1.6809195e-19
1.679911e-19
1.6793232e-19
1.6789986e-19
1.6788351e-19
1.6787676e-19
1.6787613e-19
1.6788065e-19
1.6789159e-19
1.6791281e-19
1.681083e-19
1.680106e-19
1.6795288e-19
1.6792081e-19
1.6790461e-19
1.6789792e-19
1.6789732e-19
1.6790185e-19