/*--------------------------------*- C++ -*----------------------------------*\
| =========                 |                                                 |
| \\      /  F ield         | OpenFOAM: The Open Source CFD Toolbox           |
|  \\    /   O peration     | Version:  dev                                   |
|   \\  /    A nd           | Web:      www.OpenFOAM.org                      |
|    \\/     M anipulation  |                                                 |
\*---------------------------------------------------------------------------*/
FoamFile
{
    version     2.0;
    format      ascii;
    class       volScalarField;
    location    "36.995";
    object      A;
}
// * * * * * * * * * * * * * * * * * * * * * * * * * * * * * * * * * * * * * //

dimensions      [0 0 0 0 1 0 0];

internalField   nonuniform List<scalar> 
10000
(
3.3730926e-39
3.3677576e-39
3.3671131e-39
3.3670258e-39
3.3670025e-39
3.3669932e-39
3.3669905e-39
3.3669967e-39
3.3670668e-39
3.3675832e-39
3.3677576e-39
3.3624587e-39
3.3618182e-39
3.3617313e-39
3.3617081e-39
3.3616989e-39
3.3616963e-39
3.3617036e-39
3.3617852e-39
3.3623992e-39
3.3671131e-39
3.3618182e-39
3.3611783e-39
3.3610915e-39
3.3610683e-39
3.3610591e-39
3.3610567e-39
3.3610644e-39
3.3611482e-39
3.3617732e-39
3.3670258e-39
3.3617313e-39
3.3610915e-39
3.3610047e-39
3.3609815e-39
3.3609724e-39
3.3609701e-39
3.360978e-39
3.3610622e-39
3.3616882e-39
3.3670025e-39
3.3617081e-39
3.3610683e-39
3.3609815e-39
3.3609583e-39
3.3609493e-39
3.360947e-39
3.360955e-39
3.3610393e-39
3.3616655e-39
3.3669932e-39
3.3616989e-39
3.3610591e-39
3.3609724e-39
3.3609493e-39
3.3609402e-39
3.360938e-39
3.360946e-39
3.3610304e-39
3.3616566e-39
3.3669905e-39
3.3616963e-39
3.3610567e-39
3.3609701e-39
3.360947e-39
3.360938e-39
3.3609357e-39
3.3609438e-39
3.3610282e-39
3.3616544e-39
3.3669967e-39
3.3617036e-39
3.3610644e-39
3.360978e-39
3.360955e-39
3.360946e-39
3.3609438e-39
3.3609519e-39
3.3610363e-39
3.3616626e-39
3.3670668e-39
3.3617852e-39
3.3611482e-39
3.3610622e-39
3.3610393e-39
3.3610304e-39
3.3610282e-39
3.3610363e-39
3.3611208e-39
3.3617474e-39
3.3675832e-39
3.3623992e-39
3.3617732e-39
3.3616882e-39
3.3616655e-39
3.3616566e-39
3.3616544e-39
3.3616626e-39
3.3617474e-39
3.3623764e-39
1.3194397e-38
1.3174713e-38
1.3172247e-38
1.3171911e-38
1.3171821e-38
1.3171785e-38
1.3171774e-38
1.3171798e-38
1.3172071e-38
1.3174235e-38
1.3174713e-38
1.315516e-38
1.315271e-38
1.3152375e-38
1.3152285e-38
1.3152249e-38
1.3152239e-38
1.3152268e-38
1.3152585e-38
1.3155134e-38
1.3172247e-38
1.315271e-38
1.3150261e-38
1.3149927e-38
1.3149837e-38
1.3149802e-38
1.3149792e-38
1.3149822e-38
1.3150148e-38
1.315274e-38
1.3171911e-38
1.3152375e-38
1.3149927e-38
1.3149592e-38
1.3149503e-38
1.3149467e-38
1.3149458e-38
1.3149489e-38
1.3149816e-38
1.3152412e-38
1.3171821e-38
1.3152285e-38
1.3149837e-38
1.3149503e-38
1.3149413e-38
1.3149378e-38
1.3149369e-38
1.31494e-38
1.3149728e-38
1.3152324e-38
1.3171785e-38
1.3152249e-38
1.3149802e-38
1.3149467e-38
1.3149378e-38
1.3149343e-38
1.3149334e-38
1.3149365e-38
1.3149693e-38
1.315229e-38
1.3171774e-38
1.3152239e-38
1.3149792e-38
1.3149458e-38
1.3149369e-38
1.3149334e-38
1.3149326e-38
1.3149357e-38
1.3149685e-38
1.3152282e-38
1.3171798e-38
1.3152268e-38
1.3149822e-38
1.3149489e-38
1.31494e-38
1.3149365e-38
1.3149357e-38
1.3149388e-38
1.3149716e-38
1.3152313e-38
1.3172071e-38
1.3152585e-38
1.3150148e-38
1.3149816e-38
1.3149728e-38
1.3149693e-38
1.3149685e-38
1.3149716e-38
1.3150044e-38
1.3152643e-38
1.3174235e-38
1.3155134e-38
1.315274e-38
1.3152412e-38
1.3152324e-38
1.315229e-38
1.3152282e-38
1.3152313e-38
1.3152643e-38
1.3155251e-38
3.5492666e-38
3.5441758e-38
3.5435318e-38
3.5434435e-38
3.5434197e-38
3.5434102e-38
3.5434074e-38
3.5434136e-38
3.5434848e-38
3.5440777e-38
3.5441758e-38
3.5391189e-38
3.5384787e-38
3.5383908e-38
3.5383671e-38
3.5383576e-38
3.538355e-38
3.5383623e-38
3.5384456e-38
3.5391416e-38
3.5435318e-38
3.5384787e-38
3.5378391e-38
3.5377513e-38
3.5377276e-38
3.5377182e-38
3.5377157e-38
3.5377235e-38
3.537809e-38
3.5385166e-38
3.5434435e-38
3.5383908e-38
3.5377513e-38
3.5376635e-38
3.5376398e-38
3.5376305e-38
3.5376281e-38
3.537636e-38
3.537722e-38
3.5384307e-38
3.5434197e-38
3.5383671e-38
3.5377276e-38
3.5376398e-38
3.5376162e-38
3.5376069e-38
3.5376045e-38
3.5376126e-38
3.5376986e-38
3.5384075e-38
3.5434102e-38
3.5383576e-38
3.5377182e-38
3.5376305e-38
3.5376069e-38
3.5375977e-38
3.5375953e-38
3.5376034e-38
3.5376895e-38
3.5383984e-38
3.5434074e-38
3.538355e-38
3.5377157e-38
3.5376281e-38
3.5376045e-38
3.5375953e-38
3.537593e-38
3.5376012e-38
3.5376873e-38
3.5383962e-38
3.5434136e-38
3.5383623e-38
3.5377235e-38
3.537636e-38
3.5376126e-38
3.5376034e-38
3.5376012e-38
3.5376093e-38
3.5376955e-38
3.5384044e-38
3.5434848e-38
3.5384456e-38
3.537809e-38
3.537722e-38
3.5376986e-38
3.5376895e-38
3.5376873e-38
3.5376955e-38
3.5377817e-38
3.5384909e-38
3.5440777e-38
3.5391416e-38
3.5385166e-38
3.5384307e-38
3.5384075e-38
3.5383984e-38
3.5383962e-38
3.5384044e-38
3.5384909e-38
3.5392031e-38
9.2502309e-38
9.2374193e-38
9.2357929e-38
9.235569e-38
9.2355083e-38
9.2354842e-38
9.235477e-38
9.2354922e-38
9.2356692e-38
9.2371536e-38
9.2374193e-38
9.2246922e-38
9.2230755e-38
9.2228524e-38
9.222792e-38
9.222768e-38
9.2227612e-38
9.2227796e-38
9.2229877e-38
9.22474e-38
9.2357929e-38
9.2230755e-38
9.2214602e-38
9.2212374e-38
9.221177e-38
9.2211532e-38
9.2211468e-38
9.2211662e-38
9.2213802e-38
9.2231625e-38
9.235569e-38
9.2228524e-38
9.2212374e-38
9.2210147e-38
9.2209543e-38
9.2209306e-38
9.2209244e-38
9.2209444e-38
9.2211595e-38
9.2229447e-38
9.2355083e-38
9.222792e-38
9.221177e-38
9.2209543e-38
9.2208941e-38
9.2208705e-38
9.2208644e-38
9.2208846e-38
9.2211001e-38
9.2228856e-38
9.2354842e-38
9.222768e-38
9.2211532e-38
9.2209306e-38
9.2208705e-38
9.2208469e-38
9.220841e-38
9.2208613e-38
9.2210768e-38
9.2228625e-38
9.235477e-38
9.2227612e-38
9.2211468e-38
9.2209244e-38
9.2208644e-38
9.220841e-38
9.2208351e-38
9.2208554e-38
9.2210711e-38
9.2228568e-38
9.2354922e-38
9.2227796e-38
9.2211662e-38
9.2209444e-38
9.2208846e-38
9.2208613e-38
9.2208554e-38
9.2208758e-38
9.2210915e-38
9.2228774e-38
9.2356692e-38
9.2229877e-38
9.2213802e-38
9.2211595e-38
9.2211001e-38
9.2210768e-38
9.2210711e-38
9.2210915e-38
9.2213074e-38
9.223094e-38
9.2371536e-38
9.22474e-38
9.2231625e-38
9.2229447e-38
9.2228856e-38
9.2228625e-38
9.2228568e-38
9.2228774e-38
9.223094e-38
9.2248881e-38
2.4316552e-37
2.4284007e-37
2.4279867e-37
2.4279295e-37
2.4279139e-37
2.4279077e-37
2.4279059e-37
2.4279097e-37
2.4279537e-37
2.4283224e-37
2.4284007e-37
2.4251675e-37
2.424756e-37
2.424699e-37
2.4246834e-37
2.4246773e-37
2.4246755e-37
2.4246801e-37
2.4247323e-37
2.4251712e-37
2.4279867e-37
2.424756e-37
2.4243448e-37
2.4242878e-37
2.4242723e-37
2.4242662e-37
2.4242646e-37
2.4242695e-37
2.4243232e-37
2.4247698e-37
2.4279295e-37
2.424699e-37
2.4242878e-37
2.4242309e-37
2.4242154e-37
2.4242093e-37
2.4242077e-37
2.4242128e-37
2.4242668e-37
2.4247142e-37
2.4279139e-37
2.4246834e-37
2.4242723e-37
2.4242154e-37
2.4242e-37
2.4241939e-37
2.4241923e-37
2.4241974e-37
2.4242515e-37
2.4246991e-37
2.4279077e-37
2.4246773e-37
2.4242662e-37
2.4242093e-37
2.4241939e-37
2.4241878e-37
2.4241863e-37
2.4241914e-37
2.4242455e-37
2.4246931e-37
2.4279059e-37
2.4246755e-37
2.4242646e-37
2.4242077e-37
2.4241923e-37
2.4241863e-37
2.4241848e-37
2.4241899e-37
2.4242441e-37
2.4246916e-37
2.4279097e-37
2.4246801e-37
2.4242695e-37
2.4242128e-37
2.4241974e-37
2.4241914e-37
2.4241899e-37
2.4241951e-37
2.4242492e-37
2.4246968e-37
2.4279537e-37
2.4247323e-37
2.4243232e-37
2.4242668e-37
2.4242515e-37
2.4242455e-37
2.4242441e-37
2.4242492e-37
2.4243034e-37
2.4247512e-37
2.4283224e-37
2.4251712e-37
2.4247698e-37
2.4247142e-37
2.4246991e-37
2.4246931e-37
2.4246916e-37
2.4246968e-37
2.4247512e-37
2.4252009e-37
6.4863939e-37
6.4780059e-37
6.4769371e-37
6.4767888e-37
6.4767483e-37
6.4767321e-37
6.4767272e-37
6.4767368e-37
6.4768476e-37
6.4777731e-37
6.4780059e-37
6.4696726e-37
6.4686101e-37
6.4684623e-37
6.4684219e-37
6.4684059e-37
6.4684013e-37
6.468413e-37
6.4685454e-37
6.4696572e-37
6.4769371e-37
6.4686101e-37
6.4675484e-37
6.4674008e-37
6.4673605e-37
6.4673445e-37
6.4673402e-37
6.4673527e-37
6.4674892e-37
6.4686217e-37
6.4767888e-37
6.4684623e-37
6.4674008e-37
6.4672533e-37
6.467213e-37
6.4671971e-37
6.4671929e-37
6.4672058e-37
6.467343e-37
6.4684776e-37
6.4767483e-37
6.4684219e-37
6.4673605e-37
6.467213e-37
6.4671727e-37
6.4671569e-37
6.4671529e-37
6.4671658e-37
6.4673033e-37
6.4684382e-37
6.4767321e-37
6.4684059e-37
6.4673445e-37
6.4671971e-37
6.4671569e-37
6.4671411e-37
6.4671371e-37
6.4671502e-37
6.4672878e-37
6.4684227e-37
6.4767272e-37
6.4684013e-37
6.4673402e-37
6.4671929e-37
6.4671529e-37
6.4671371e-37
6.4671332e-37
6.4671463e-37
6.4672839e-37
6.4684189e-37
6.4767368e-37
6.468413e-37
6.4673527e-37
6.4672058e-37
6.4671658e-37
6.4671502e-37
6.4671463e-37
6.4671594e-37
6.4672971e-37
6.4684321e-37
6.4768476e-37
6.4685454e-37
6.4674892e-37
6.467343e-37
6.4673033e-37
6.4672878e-37
6.4672839e-37
6.4672971e-37
6.4674349e-37
6.4685703e-37
6.4777731e-37
6.4696572e-37
6.4686217e-37
6.4684776e-37
6.4684382e-37
6.4684227e-37
6.4684189e-37
6.4684321e-37
6.4685703e-37
6.4697104e-37
1.7574092e-36
1.7552143e-36
1.7549341e-36
1.7548951e-36
1.7548844e-36
1.7548801e-36
1.7548788e-36
1.7548813e-36
1.7549096e-36
1.7551452e-36
1.7552143e-36
1.7530335e-36
1.752755e-36
1.7527161e-36
1.7527054e-36
1.7527012e-36
1.7527e-36
1.752703e-36
1.7527371e-36
1.753023e-36
1.7549341e-36
1.752755e-36
1.7524767e-36
1.7524379e-36
1.7524272e-36
1.752423e-36
1.7524218e-36
1.7524251e-36
1.7524603e-36
1.7527518e-36
1.7548951e-36
1.7527161e-36
1.7524379e-36
1.752399e-36
1.7523884e-36
1.7523842e-36
1.7523831e-36
1.7523864e-36
1.7524218e-36
1.7527139e-36
1.7548844e-36
1.7527054e-36
1.7524272e-36
1.7523884e-36
1.7523778e-36
1.7523736e-36
1.7523725e-36
1.7523759e-36
1.7524114e-36
1.7527034e-36
1.7548801e-36
1.7527012e-36
1.752423e-36
1.7523842e-36
1.7523736e-36
1.7523694e-36
1.7523683e-36
1.7523717e-36
1.7524072e-36
1.7526994e-36
1.7548788e-36
1.7527e-36
1.7524218e-36
1.7523831e-36
1.7523725e-36
1.7523683e-36
1.7523673e-36
1.7523707e-36
1.7524062e-36
1.7526983e-36
1.7548813e-36
1.752703e-36
1.7524251e-36
1.7523864e-36
1.7523759e-36
1.7523717e-36
1.7523707e-36
1.7523741e-36
1.7524096e-36
1.7527018e-36
1.7549096e-36
1.7527371e-36
1.7524603e-36
1.7524218e-36
1.7524114e-36
1.7524072e-36
1.7524062e-36
1.7524096e-36
1.7524452e-36
1.7527375e-36
1.7551452e-36
1.753023e-36
1.7527518e-36
1.7527139e-36
1.7527034e-36
1.7526994e-36
1.7526983e-36
1.7527018e-36
1.7527375e-36
1.7530309e-36
4.8372548e-36
4.831422e-36
4.8306763e-36
4.830572e-36
4.8305433e-36
4.8305318e-36
4.8305283e-36
4.8305347e-36
4.8306081e-36
4.8312173e-36
4.831422e-36
4.8256267e-36
4.8248853e-36
4.8247815e-36
4.8247528e-36
4.8247414e-36
4.8247381e-36
4.8247461e-36
4.8248354e-36
4.8255821e-36
4.8306763e-36
4.8248853e-36
4.8241445e-36
4.8240408e-36
4.8240122e-36
4.8240008e-36
4.8239977e-36
4.8240062e-36
4.8240986e-36
4.8248606e-36
4.830572e-36
4.8247815e-36
4.8240408e-36
4.823937e-36
4.8239085e-36
4.8238972e-36
4.8238942e-36
4.823903e-36
4.8239959e-36
4.8247593e-36
4.8305433e-36
4.8247528e-36
4.8240122e-36
4.8239085e-36
4.8238799e-36
4.8238687e-36
4.8238658e-36
4.8238747e-36
4.8239678e-36
4.8247314e-36
4.8305318e-36
4.8247414e-36
4.8240008e-36
4.8238972e-36
4.8238687e-36
4.8238575e-36
4.8238546e-36
4.8238636e-36
4.8239567e-36
4.8247204e-36
4.8305283e-36
4.8247381e-36
4.8239977e-36
4.8238942e-36
4.8238658e-36
4.8238546e-36
4.8238518e-36
4.8238608e-36
4.823954e-36
4.8247177e-36
4.8305347e-36
4.8247461e-36
4.8240062e-36
4.823903e-36
4.8238747e-36
4.8238636e-36
4.8238608e-36
4.8238698e-36
4.823963e-36
4.8247267e-36
4.8306081e-36
4.8248354e-36
4.8240986e-36
4.8239959e-36
4.8239678e-36
4.8239567e-36
4.823954e-36
4.823963e-36
4.8240563e-36
4.8248203e-36
4.8312173e-36
4.8255821e-36
4.8248606e-36
4.8247593e-36
4.8247314e-36
4.8247204e-36
4.8247177e-36
4.8247267e-36
4.8248203e-36
4.8255875e-36
1.3527565e-35
1.3511824e-35
1.3509808e-35
1.3509525e-35
1.3509447e-35
1.3509415e-35
1.3509406e-35
1.3509423e-35
1.3509616e-35
1.3511216e-35
1.3511824e-35
1.3496183e-35
1.3494179e-35
1.3493897e-35
1.3493819e-35
1.3493788e-35
1.3493779e-35
1.34938e-35
1.3494038e-35
1.3496019e-35
1.3509808e-35
1.3494179e-35
1.3492177e-35
1.3491895e-35
1.3491817e-35
1.3491786e-35
1.3491778e-35
1.3491801e-35
1.3492047e-35
1.3494071e-35
1.3509525e-35
1.3493897e-35
1.3491895e-35
1.3491614e-35
1.3491536e-35
1.3491505e-35
1.3491497e-35
1.349152e-35
1.3491768e-35
1.3493796e-35
1.3509447e-35
1.3493819e-35
1.3491817e-35
1.3491536e-35
1.3491458e-35
1.3491427e-35
1.349142e-35
1.3491443e-35
1.3491691e-35
1.349372e-35
1.3509415e-35
1.3493788e-35
1.3491786e-35
1.3491505e-35
1.3491427e-35
1.3491397e-35
1.3491389e-35
1.3491413e-35
1.3491661e-35
1.349369e-35
1.3509406e-35
1.3493779e-35
1.3491778e-35
1.3491497e-35
1.349142e-35
1.3491389e-35
1.3491381e-35
1.3491405e-35
1.3491654e-35
1.3493683e-35
1.3509423e-35
1.34938e-35
1.3491801e-35
1.349152e-35
1.3491443e-35
1.3491413e-35
1.3491405e-35
1.3491429e-35
1.3491678e-35
1.3493707e-35
1.3509616e-35
1.3494038e-35
1.3492047e-35
1.3491768e-35
1.3491691e-35
1.3491661e-35
1.3491654e-35
1.3491678e-35
1.3491926e-35
1.3493956e-35
1.3511216e-35
1.3496019e-35
1.3494071e-35
1.3493796e-35
1.349372e-35
1.349369e-35
1.3493683e-35
1.3493707e-35
1.3493956e-35
1.3495994e-35
3.8438169e-35
3.8395026e-35
3.8389492e-35
3.8388713e-35
3.8388497e-35
3.838841e-35
3.8388383e-35
3.8388428e-35
3.8388946e-35
3.839321e-35
3.8395026e-35
3.8352157e-35
3.8346655e-35
3.8345878e-35
3.8345662e-35
3.8345576e-35
3.8345551e-35
3.8345609e-35
3.8346251e-35
3.8351593e-35
3.8389492e-35
3.8346655e-35
3.8341157e-35
3.8340381e-35
3.8340166e-35
3.834008e-35
3.8340057e-35
3.8340118e-35
3.8340784e-35
3.8346247e-35
3.8388713e-35
3.8345878e-35
3.8340381e-35
3.8339606e-35
3.8339391e-35
3.8339305e-35
3.8339283e-35
3.8339347e-35
3.8340017e-35
3.8345491e-35
3.8388497e-35
3.8345662e-35
3.8340166e-35
3.8339391e-35
3.8339176e-35
3.8339091e-35
3.8339069e-35
3.8339133e-35
3.8339805e-35
3.834528e-35
3.838841e-35
3.8345576e-35
3.834008e-35
3.8339305e-35
3.8339091e-35
3.8339006e-35
3.8338984e-35
3.8339049e-35
3.8339722e-35
3.8345197e-35
3.8388383e-35
3.8345551e-35
3.8340057e-35
3.8339283e-35
3.8339069e-35
3.8338984e-35
3.8338963e-35
3.8339028e-35
3.8339701e-35
3.8345177e-35
3.8388428e-35
3.8345609e-35
3.8340118e-35
3.8339347e-35
3.8339133e-35
3.8339049e-35
3.8339028e-35
3.8339094e-35
3.8339766e-35
3.8345243e-35
3.8388946e-35
3.8346251e-35
3.8340784e-35
3.8340017e-35
3.8339805e-35
3.8339722e-35
3.8339701e-35
3.8339766e-35
3.8340439e-35
3.8345918e-35
3.839321e-35
3.8351593e-35
3.8346247e-35
3.8345491e-35
3.834528e-35
3.8345197e-35
3.8345177e-35
3.8345243e-35
3.8345918e-35
3.8351418e-35
1.109816e-34
1.108615e-34
1.1084607e-34
1.1084389e-34
1.1084329e-34
1.1084304e-34
1.1084297e-34
1.1084309e-34
1.108445e-34
1.1085604e-34
1.108615e-34
1.1074216e-34
1.1072682e-34
1.1072465e-34
1.1072404e-34
1.107238e-34
1.1072373e-34
1.1072389e-34
1.1072565e-34
1.1074029e-34
1.1084607e-34
1.1072682e-34
1.1071149e-34
1.1070932e-34
1.1070871e-34
1.1070847e-34
1.1070841e-34
1.1070858e-34
1.1071041e-34
1.1072539e-34
1.1084389e-34
1.1072465e-34
1.1070932e-34
1.1070715e-34
1.1070655e-34
1.1070631e-34
1.1070624e-34
1.1070642e-34
1.1070826e-34
1.1072328e-34
1.1084329e-34
1.1072404e-34
1.1070871e-34
1.1070655e-34
1.1070594e-34
1.107057e-34
1.1070564e-34
1.1070582e-34
1.1070767e-34
1.1072269e-34
1.1084304e-34
1.107238e-34
1.1070847e-34
1.1070631e-34
1.107057e-34
1.1070546e-34
1.107054e-34
1.1070558e-34
1.1070743e-34
1.1072245e-34
1.1084297e-34
1.1072373e-34
1.1070841e-34
1.1070624e-34
1.1070564e-34
1.107054e-34
1.1070534e-34
1.1070552e-34
1.1070737e-34
1.1072239e-34
1.1084309e-34
1.1072389e-34
1.1070858e-34
1.1070642e-34
1.1070582e-34
1.1070558e-34
1.1070552e-34
1.1070571e-34
1.1070756e-34
1.1072258e-34
1.108445e-34
1.1072565e-34
1.1071041e-34
1.1070826e-34
1.1070767e-34
1.1070743e-34
1.1070737e-34
1.1070756e-34
1.1070941e-34
1.1072443e-34
1.1085604e-34
1.1074029e-34
1.1072539e-34
1.1072328e-34
1.1072269e-34
1.1072245e-34
1.1072239e-34
1.1072258e-34
1.1072443e-34
1.1073952e-34
3.2561377e-34
3.252742e-34
3.252305e-34
3.2522431e-34
3.2522257e-34
3.2522187e-34
3.2522166e-34
3.25222e-34
3.2522588e-34
3.2525765e-34
3.252742e-34
3.2493675e-34
3.2489331e-34
3.2488713e-34
3.248854e-34
3.2488471e-34
3.2488451e-34
3.2488495e-34
3.2488988e-34
3.2493063e-34
3.252305e-34
3.2489331e-34
3.248499e-34
3.2484373e-34
3.24842e-34
3.2484131e-34
3.2484112e-34
3.248416e-34
3.2484672e-34
3.2488847e-34
3.2522431e-34
3.2488713e-34
3.2484373e-34
3.2483756e-34
3.2483584e-34
3.2483515e-34
3.2483497e-34
3.2483546e-34
3.2484062e-34
3.2488247e-34
3.2522257e-34
3.248854e-34
3.24842e-34
3.2483584e-34
3.2483411e-34
3.2483343e-34
3.2483325e-34
3.2483376e-34
3.2483892e-34
3.2488078e-34
3.2522187e-34
3.2488471e-34
3.2484131e-34
3.2483515e-34
3.2483343e-34
3.2483275e-34
3.2483258e-34
3.2483308e-34
3.2483825e-34
3.2488012e-34
3.2522166e-34
3.2488451e-34
3.2484112e-34
3.2483497e-34
3.2483325e-34
3.2483258e-34
3.248324e-34
3.2483291e-34
3.2483809e-34
3.2487995e-34
3.25222e-34
3.2488495e-34
3.248416e-34
3.2483546e-34
3.2483376e-34
3.2483308e-34
3.2483291e-34
3.2483342e-34
3.248386e-34
3.2488047e-34
3.2522588e-34
3.2488988e-34
3.2484672e-34
3.2484062e-34
3.2483892e-34
3.2483825e-34
3.2483809e-34
3.248386e-34
3.2484377e-34
3.2488566e-34
3.2525765e-34
3.2493063e-34
3.2488847e-34
3.2488247e-34
3.2488078e-34
3.2488012e-34
3.2487995e-34
3.2488047e-34
3.2488566e-34
3.249277e-34
9.7080408e-34
9.6982888e-34
9.6970322e-34
9.6968533e-34
9.696803e-34
9.6967828e-34
9.6967765e-34
9.6967861e-34
9.696895e-34
9.6977824e-34
9.6982888e-34
9.6885977e-34
9.687348e-34
9.6871698e-34
9.6871197e-34
9.6870995e-34
9.6870937e-34
9.6871064e-34
9.687246e-34
9.6883991e-34
9.6970322e-34
9.687348e-34
9.6860994e-34
9.6859214e-34
9.6858713e-34
9.6858513e-34
9.6858458e-34
9.6858595e-34
9.686005e-34
9.6871876e-34
9.6968533e-34
9.6871698e-34
9.6859214e-34
9.6857434e-34
9.6856934e-34
9.6856735e-34
9.6856682e-34
9.6856824e-34
9.6858289e-34
9.6870144e-34
9.696803e-34
9.6871197e-34
9.6858713e-34
9.6856934e-34
9.6856434e-34
9.6856236e-34
9.6856185e-34
9.6856329e-34
9.6857797e-34
9.6869656e-34
9.6967828e-34
9.6870995e-34
9.6858513e-34
9.6856735e-34
9.6856236e-34
9.6856039e-34
9.6855988e-34
9.6856133e-34
9.6857603e-34
9.6869463e-34
9.6967765e-34
9.6870937e-34
9.6858458e-34
9.6856682e-34
9.6856185e-34
9.6855988e-34
9.6855939e-34
9.6856084e-34
9.6857554e-34
9.6869415e-34
9.6967861e-34
9.6871064e-34
9.6858595e-34
9.6856824e-34
9.6856329e-34
9.6856133e-34
9.6856084e-34
9.685623e-34
9.68577e-34
9.6869562e-34
9.696895e-34
9.687246e-34
9.686005e-34
9.6858289e-34
9.6857797e-34
9.6857603e-34
9.6857554e-34
9.68577e-34
9.6859172e-34
9.6871038e-34
9.6977824e-34
9.6883991e-34
9.6871876e-34
9.6870144e-34
9.6869656e-34
9.6869463e-34
9.6869415e-34
9.6869562e-34
9.6871038e-34
9.6882948e-34
2.9413464e-33
2.9385018e-33
2.9381348e-33
2.9380823e-33
2.9380675e-33
2.9380615e-33
2.9380597e-33
2.9380625e-33
2.9380935e-33
2.9383453e-33
2.9385018e-33
2.9356749e-33
2.9353098e-33
2.9352576e-33
2.9352428e-33
2.9352369e-33
2.9352352e-33
2.9352388e-33
2.9352791e-33
2.9356107e-33
2.9381348e-33
2.9353098e-33
2.9349451e-33
2.9348929e-33
2.9348781e-33
2.9348722e-33
2.9348706e-33
2.9348746e-33
2.9349166e-33
2.9352571e-33
2.9380823e-33
2.9352576e-33
2.9348929e-33
2.9348407e-33
2.934826e-33
2.9348201e-33
2.9348186e-33
2.9348227e-33
2.934865e-33
2.9352063e-33
2.9380675e-33
2.9352428e-33
2.9348781e-33
2.934826e-33
2.9348113e-33
2.9348054e-33
2.9348039e-33
2.9348081e-33
2.9348505e-33
2.935192e-33
2.9380615e-33
2.9352369e-33
2.9348722e-33
2.9348201e-33
2.9348054e-33
2.9347996e-33
2.9347981e-33
2.9348023e-33
2.9348448e-33
2.9351863e-33
2.9380597e-33
2.9352352e-33
2.9348706e-33
2.9348186e-33
2.9348039e-33
2.9347981e-33
2.9347967e-33
2.9348009e-33
2.9348434e-33
2.9351849e-33
2.9380625e-33
2.9352388e-33
2.9348746e-33
2.9348227e-33
2.9348081e-33
2.9348023e-33
2.9348009e-33
2.9348051e-33
2.9348476e-33
2.9351891e-33
2.9380935e-33
2.9352791e-33
2.9349166e-33
2.934865e-33
2.9348505e-33
2.9348448e-33
2.9348434e-33
2.9348476e-33
2.9348901e-33
2.9352318e-33
2.9383453e-33
2.9356107e-33
2.9352571e-33
2.9352063e-33
2.935192e-33
2.9351863e-33
2.9351849e-33
2.9351891e-33
2.9352318e-33
2.9355747e-33
9.0562851e-33
9.0478573e-33
9.0467681e-33
9.046612e-33
9.0465678e-33
9.0465499e-33
9.0465444e-33
9.0465524e-33
9.0466422e-33
9.0473681e-33
9.0478573e-33
9.0394816e-33
9.0383983e-33
9.0382427e-33
9.0381986e-33
9.0381809e-33
9.0381758e-33
9.0381865e-33
9.0383045e-33
9.0392736e-33
9.0467681e-33
9.0383983e-33
9.0373159e-33
9.0371605e-33
9.0371165e-33
9.0370989e-33
9.037094e-33
9.0371057e-33
9.037229e-33
9.0382253e-33
9.046612e-33
9.0382427e-33
9.0371605e-33
9.0370052e-33
9.0369612e-33
9.0369437e-33
9.036939e-33
9.0369511e-33
9.0370754e-33
9.0380742e-33
9.0465678e-33
9.0381986e-33
9.0371165e-33
9.0369612e-33
9.0369172e-33
9.0368998e-33
9.0368953e-33
9.0369076e-33
9.0370321e-33
9.0380314e-33
9.0465499e-33
9.0381809e-33
9.0370989e-33
9.0369437e-33
9.0368998e-33
9.0368824e-33
9.036878e-33
9.0368904e-33
9.037015e-33
9.0380144e-33
9.0465444e-33
9.0381758e-33
9.037094e-33
9.036939e-33
9.0368953e-33
9.036878e-33
9.0368736e-33
9.0368861e-33
9.0370108e-33
9.0380101e-33
9.0465524e-33
9.0381865e-33
9.0371057e-33
9.0369511e-33
9.0369076e-33
9.0368904e-33
9.0368861e-33
9.0368986e-33
9.0370233e-33
9.0380227e-33
9.0466422e-33
9.0383045e-33
9.037229e-33
9.0370754e-33
9.0370321e-33
9.037015e-33
9.0370108e-33
9.0370233e-33
9.0371481e-33
9.0381479e-33
9.0473681e-33
9.0392736e-33
9.0382253e-33
9.0380742e-33
9.0380314e-33
9.0380144e-33
9.0380101e-33
9.0380227e-33
9.0381479e-33
9.0391513e-33
2.8336191e-32
2.831083e-32
2.8307548e-32
2.8307076e-32
2.8306942e-32
2.8306887e-32
2.8306871e-32
2.8306894e-32
2.8307158e-32
2.8309284e-32
2.831083e-32
2.8285625e-32
2.828236e-32
2.828189e-32
2.8281756e-32
2.8281702e-32
2.8281687e-32
2.8281719e-32
2.828207e-32
2.8284949e-32
2.8307548e-32
2.828236e-32
2.8279099e-32
2.8278629e-32
2.8278495e-32
2.8278442e-32
2.8278427e-32
2.8278462e-32
2.827883e-32
2.8281793e-32
2.8307076e-32
2.828189e-32
2.8278629e-32
2.8278159e-32
2.8278025e-32
2.8277972e-32
2.8277958e-32
2.8277995e-32
2.8278365e-32
2.8281336e-32
2.8306942e-32
2.8281756e-32
2.8278495e-32
2.8278025e-32
2.8277892e-32
2.8277839e-32
2.8277825e-32
2.8277862e-32
2.8278234e-32
2.8281206e-32
2.8306887e-32
2.8281702e-32
2.8278442e-32
2.8277972e-32
2.8277839e-32
2.8277786e-32
2.8277773e-32
2.827781e-32
2.8278182e-32
2.8281154e-32
2.8306871e-32
2.8281687e-32
2.8278427e-32
2.8277958e-32
2.8277825e-32
2.8277773e-32
2.827776e-32
2.8277797e-32
2.8278169e-32
2.8281142e-32
2.8306894e-32
2.8281719e-32
2.8278462e-32
2.8277995e-32
2.8277862e-32
2.827781e-32
2.8277797e-32
2.8277835e-32
2.8278207e-32
2.8281179e-32
2.8307158e-32
2.828207e-32
2.827883e-32
2.8278365e-32
2.8278234e-32
2.8278182e-32
2.8278169e-32
2.8278207e-32
2.8278579e-32
2.8281553e-32
2.8309284e-32
2.8284949e-32
2.8281793e-32
2.8281336e-32
2.8281206e-32
2.8281154e-32
2.8281142e-32
2.8281179e-32
2.8281553e-32
2.8284537e-32
9.0097519e-32
9.0020009e-32
9.0009964e-32
9.0008514e-32
9.00081e-32
9.0007933e-32
9.0007881e-32
9.0007952e-32
9.0008741e-32
9.0015064e-32
9.0020009e-32
8.9942973e-32
8.9932981e-32
8.9931537e-32
8.9931124e-32
8.9930958e-32
8.993091e-32
8.9931007e-32
8.993207e-32
8.9940763e-32
9.0009964e-32
8.9932981e-32
8.9922998e-32
8.9921555e-32
8.9921143e-32
8.9920977e-32
8.9920932e-32
8.9921039e-32
8.9922154e-32
8.993111e-32
9.0008514e-32
8.9931537e-32
8.9921555e-32
8.9920112e-32
8.99197e-32
8.9919536e-32
8.9919493e-32
8.9919604e-32
8.9920728e-32
8.992971e-32
9.00081e-32
8.9931124e-32
8.9921143e-32
8.99197e-32
8.9919289e-32
8.9919126e-32
8.9919084e-32
8.9919197e-32
8.9920323e-32
8.9929309e-32
9.0007933e-32
8.9930958e-32
8.9920977e-32
8.9919536e-32
8.9919126e-32
8.9918963e-32
8.9918922e-32
8.9919036e-32
8.9920163e-32
8.992915e-32
9.0007881e-32
8.993091e-32
8.9920932e-32
8.9919493e-32
8.9919084e-32
8.9918922e-32
8.9918881e-32
8.9918995e-32
8.9920124e-32
8.992911e-32
9.0007952e-32
8.9931007e-32
8.9921039e-32
8.9919604e-32
8.9919197e-32
8.9919036e-32
8.9918995e-32
8.991911e-32
8.9920238e-32
8.9929226e-32
9.0008741e-32
8.993207e-32
8.9922154e-32
8.9920728e-32
8.9920323e-32
8.9920163e-32
8.9920124e-32
8.9920238e-32
8.9921368e-32
8.9930358e-32
9.0015064e-32
8.9940763e-32
8.993111e-32
8.992971e-32
8.9929309e-32
8.992915e-32
8.992911e-32
8.9929226e-32
8.9930358e-32
8.993938e-32
2.9110569e-31
2.9086511e-31
2.9083388e-31
2.9082936e-31
2.9082807e-31
2.9082754e-31
2.9082738e-31
2.908276e-31
2.9082999e-31
2.908491e-31
2.9086511e-31
2.9062599e-31
2.9059493e-31
2.9059042e-31
2.9058913e-31
2.9058861e-31
2.9058846e-31
2.9058876e-31
2.9059203e-31
2.9061871e-31
2.9083388e-31
2.9059493e-31
2.905639e-31
2.905594e-31
2.9055811e-31
2.9055759e-31
2.9055745e-31
2.9055778e-31
2.9056121e-31
2.9058873e-31
2.9082936e-31
2.9059042e-31
2.905594e-31
2.905549e-31
2.9055361e-31
2.9055309e-31
2.9055296e-31
2.905533e-31
2.9055677e-31
2.9058437e-31
2.9082807e-31
2.9058913e-31
2.9055811e-31
2.9055361e-31
2.9055232e-31
2.9055181e-31
2.9055168e-31
2.9055203e-31
2.905555e-31
2.9058311e-31
2.9082754e-31
2.9058861e-31
2.9055759e-31
2.9055309e-31
2.9055181e-31
2.905513e-31
2.9055117e-31
2.9055152e-31
2.90555e-31
2.9058261e-31
2.9082738e-31
2.9058846e-31
2.9055745e-31
2.9055296e-31
2.9055168e-31
2.9055117e-31
2.9055104e-31
2.905514e-31
2.9055488e-31
2.9058249e-31
2.908276e-31
2.9058876e-31
2.9055778e-31
2.905533e-31
2.9055203e-31
2.9055152e-31
2.905514e-31
2.9055175e-31
2.9055523e-31
2.9058285e-31
2.9082999e-31
2.9059203e-31
2.9056121e-31
2.9055677e-31
2.905555e-31
2.90555e-31
2.9055488e-31
2.9055523e-31
2.9055871e-31
2.9058634e-31
2.908491e-31
2.9061871e-31
2.9058873e-31
2.9058437e-31
2.9058311e-31
2.9058261e-31
2.9058249e-31
2.9058285e-31
2.9058634e-31
2.9061406e-31
9.5573027e-31
9.5497193e-31
9.5487338e-31
9.5485906e-31
9.5485495e-31
9.5485328e-31
9.5485276e-31
9.5485343e-31
9.5486081e-31
9.5491945e-31
9.5497193e-31
9.5421817e-31
9.5412014e-31
9.5410587e-31
9.5410177e-31
9.5410011e-31
9.5409963e-31
9.5410058e-31
9.541108e-31
9.5419399e-31
9.5487338e-31
9.5412014e-31
9.5402219e-31
9.5400793e-31
9.5400383e-31
9.5400219e-31
9.5400174e-31
9.5400278e-31
9.5401354e-31
9.5409947e-31
9.5485906e-31
9.5410587e-31
9.5400793e-31
9.5399369e-31
9.5398959e-31
9.5398796e-31
9.5398753e-31
9.5398861e-31
9.5399946e-31
9.5408565e-31
9.5485495e-31
9.5410177e-31
9.5400383e-31
9.5398959e-31
9.539855e-31
9.5398388e-31
9.5398346e-31
9.5398456e-31
9.5399544e-31
9.5408167e-31
9.5485328e-31
9.5410011e-31
9.5400219e-31
9.5398796e-31
9.5398388e-31
9.5398225e-31
9.5398185e-31
9.5398296e-31
9.5399385e-31
9.5408009e-31
9.5485276e-31
9.5409963e-31
9.5400174e-31
9.5398753e-31
9.5398346e-31
9.5398185e-31
9.5398144e-31
9.5398256e-31
9.5399346e-31
9.540797e-31
9.5485343e-31
9.5410058e-31
9.5400278e-31
9.5398861e-31
9.5398456e-31
9.5398296e-31
9.5398256e-31
9.5398368e-31
9.5399458e-31
9.5408083e-31
9.5486081e-31
9.541108e-31
9.5401354e-31
9.5399946e-31
9.5399544e-31
9.5399385e-31
9.5399346e-31
9.5399458e-31
9.5400548e-31
9.5409176e-31
9.5491945e-31
9.5419399e-31
9.5409947e-31
9.5408565e-31
9.5408167e-31
9.5408009e-31
9.540797e-31
9.5408083e-31
9.5409176e-31
9.5417833e-31
3.1881626e-30
3.1857353e-30
3.1854195e-30
3.1853734e-30
3.1853602e-30
3.1853548e-30
3.1853531e-30
3.1853552e-30
3.1853783e-30
3.1855612e-30
3.1857353e-30
3.1833226e-30
3.1830084e-30
3.1829626e-30
3.1829493e-30
3.182944e-30
3.1829424e-30
3.1829455e-30
3.1829779e-30
3.1832416e-30
3.1854195e-30
3.1830084e-30
3.1826945e-30
3.1826487e-30
3.1826355e-30
3.1826301e-30
3.1826287e-30
3.182632e-30
3.1826663e-30
3.182939e-30
3.1853734e-30
3.1829626e-30
3.1826487e-30
3.1826029e-30
3.1825897e-30
3.1825844e-30
3.182583e-30
3.1825865e-30
3.182621e-30
3.1828946e-30
3.1853602e-30
3.1829493e-30
3.1826355e-30
3.1825897e-30
3.1825765e-30
3.1825712e-30
3.1825699e-30
3.1825734e-30
3.182608e-30
3.1828817e-30
3.1853548e-30
3.182944e-30
3.1826301e-30
3.1825844e-30
3.1825712e-30
3.182566e-30
3.1825647e-30
3.1825682e-30
3.1826029e-30
3.1828766e-30
3.1853531e-30
3.1829424e-30
3.1826287e-30
3.182583e-30
3.1825699e-30
3.1825647e-30
3.1825634e-30
3.182567e-30
3.1826016e-30
3.1828754e-30
3.1853552e-30
3.1829455e-30
3.182632e-30
3.1825865e-30
3.1825734e-30
3.1825682e-30
3.182567e-30
3.1825706e-30
3.1826052e-30
3.182879e-30
3.1853783e-30
3.1829779e-30
3.1826663e-30
3.182621e-30
3.182608e-30
3.1826029e-30
3.1826016e-30
3.1826052e-30
3.18264e-30
3.1829138e-30
3.1855612e-30
3.1832416e-30
3.182939e-30
3.1828946e-30
3.1828817e-30
3.1828766e-30
3.1828754e-30
3.182879e-30
3.1829138e-30
3.1831885e-30
1.0805201e-29
1.0797312e-29
1.0796285e-29
1.0796134e-29
1.0796091e-29
1.0796073e-29
1.0796068e-29
1.0796074e-29
1.0796148e-29
1.0796727e-29
1.0797312e-29
1.0789471e-29
1.0788449e-29
1.0788299e-29
1.0788256e-29
1.0788238e-29
1.0788233e-29
1.0788243e-29
1.0788348e-29
1.0789197e-29
1.0796285e-29
1.0788449e-29
1.0787427e-29
1.0787278e-29
1.0787234e-29
1.0787217e-29
1.0787212e-29
1.0787223e-29
1.0787334e-29
1.0788213e-29
1.0796134e-29
1.0788299e-29
1.0787278e-29
1.0787128e-29
1.0787085e-29
1.0787068e-29
1.0787063e-29
1.0787074e-29
1.0787186e-29
1.0788068e-29
1.0796091e-29
1.0788256e-29
1.0787234e-29
1.0787085e-29
1.0787042e-29
1.0787024e-29
1.078702e-29
1.0787032e-29
1.0787144e-29
1.0788026e-29
1.0796073e-29
1.0788238e-29
1.0787217e-29
1.0787068e-29
1.0787024e-29
1.0787007e-29
1.0787003e-29
1.0787015e-29
1.0787127e-29
1.078801e-29
1.0796068e-29
1.0788233e-29
1.0787212e-29
1.0787063e-29
1.078702e-29
1.0787003e-29
1.0786999e-29
1.078701e-29
1.0787123e-29
1.0788006e-29
1.0796074e-29
1.0788243e-29
1.0787223e-29
1.0787074e-29
1.0787032e-29
1.0787015e-29
1.078701e-29
1.0787022e-29
1.0787134e-29
1.0788017e-29
1.0796148e-29
1.0788348e-29
1.0787334e-29
1.0787186e-29
1.0787144e-29
1.0787127e-29
1.0787123e-29
1.0787134e-29
1.0787247e-29
1.078813e-29
1.0796727e-29
1.0789197e-29
1.0788213e-29
1.0788068e-29
1.0788026e-29
1.078801e-29
1.0788006e-29
1.0788017e-29
1.078813e-29
1.0789016e-29