/*--------------------------------*- C++ -*----------------------------------*\
| =========                 |                                                 |
| \\      /  F ield         | OpenFOAM: The Open Source CFD Toolbox           |
|  \\    /   O peration     | Version:  dev                                   |
|   \\  /    A nd           | Web:      www.OpenFOAM.org                      |
|    \\/     M anipulation  |                                                 |
\*---------------------------------------------------------------------------*/
FoamFile
{
    version     2.0;
    format      ascii;
    class       volScalarField;
    location    "36.995";
    object      A_0;
}
// * * * * * * * * * * * * * * * * * * * * * * * * * * * * * * * * * * * * * //

dimensions      [0 0 0 0 1 0 0];

internalField   nonuniform List<scalar> 
10000
(
3.1521666e-39
3.147232e-39
3.1466443e-39
3.1465647e-39
3.146543e-39
3.1465343e-39
3.1465318e-39
3.1465373e-39
3.1466012e-39
3.1470774e-39
3.147232e-39
3.1423309e-39
3.1417468e-39
3.1416675e-39
3.1416459e-39
3.1416373e-39
3.1416349e-39
3.1416415e-39
3.1417158e-39
3.1422824e-39
3.1466443e-39
3.1417468e-39
3.1411633e-39
3.141084e-39
3.1410625e-39
3.1410539e-39
3.1410516e-39
3.1410586e-39
3.1411349e-39
3.1417114e-39
3.1465647e-39
3.1416675e-39
3.141084e-39
3.1410048e-39
3.1409833e-39
3.1409748e-39
3.1409726e-39
3.1409797e-39
3.1410563e-39
3.1416339e-39
3.146543e-39
3.1416459e-39
3.1410625e-39
3.1409833e-39
3.1409617e-39
3.1409533e-39
3.1409511e-39
3.1409583e-39
3.1410351e-39
3.1416128e-39
3.1465343e-39
3.1416373e-39
3.1410539e-39
3.1409748e-39
3.1409533e-39
3.1409448e-39
3.1409427e-39
3.14095e-39
3.1410268e-39
3.1416045e-39
3.1465318e-39
3.1416349e-39
3.1410516e-39
3.1409726e-39
3.1409511e-39
3.1409427e-39
3.1409406e-39
3.1409479e-39
3.1410247e-39
3.1416024e-39
3.1465373e-39
3.1416415e-39
3.1410586e-39
3.1409797e-39
3.1409583e-39
3.14095e-39
3.1409479e-39
3.1409552e-39
3.141032e-39
3.1416098e-39
3.1466012e-39
3.1417158e-39
3.1411349e-39
3.1410563e-39
3.1410351e-39
3.1410268e-39
3.1410247e-39
3.141032e-39
3.1411089e-39
3.141687e-39
3.1470774e-39
3.1422824e-39
3.1417114e-39
3.1416339e-39
3.1416128e-39
3.1416045e-39
3.1416024e-39
3.1416098e-39
3.141687e-39
3.1422673e-39
1.2334994e-38
1.2316789e-38
1.231454e-38
1.2314233e-38
1.2314149e-38
1.2314116e-38
1.2314106e-38
1.2314127e-38
1.2314375e-38
1.2316375e-38
1.2316789e-38
1.2298706e-38
1.2296471e-38
1.2296165e-38
1.2296082e-38
1.2296048e-38
1.2296039e-38
1.2296064e-38
1.2296353e-38
1.2298709e-38
1.231454e-38
1.2296471e-38
1.2294238e-38
1.2293932e-38
1.2293849e-38
1.2293816e-38
1.2293807e-38
1.2293834e-38
1.229413e-38
1.2296525e-38
1.2314233e-38
1.2296165e-38
1.2293932e-38
1.2293627e-38
1.2293543e-38
1.2293511e-38
1.2293502e-38
1.2293529e-38
1.2293828e-38
1.2296226e-38
1.2314149e-38
1.2296082e-38
1.2293849e-38
1.2293543e-38
1.229346e-38
1.2293427e-38
1.2293419e-38
1.2293447e-38
1.2293746e-38
1.2296144e-38
1.2314116e-38
1.2296048e-38
1.2293816e-38
1.2293511e-38
1.2293427e-38
1.2293395e-38
1.2293386e-38
1.2293414e-38
1.2293713e-38
1.2296112e-38
1.2314106e-38
1.2296039e-38
1.2293807e-38
1.2293502e-38
1.2293419e-38
1.2293386e-38
1.2293378e-38
1.2293406e-38
1.2293705e-38
1.2296104e-38
1.2314127e-38
1.2296064e-38
1.2293834e-38
1.2293529e-38
1.2293447e-38
1.2293414e-38
1.2293406e-38
1.2293434e-38
1.2293734e-38
1.2296133e-38
1.2314375e-38
1.2296353e-38
1.229413e-38
1.2293828e-38
1.2293746e-38
1.2293713e-38
1.2293705e-38
1.2293734e-38
1.2294033e-38
1.2296433e-38
1.2316375e-38
1.2298709e-38
1.2296525e-38
1.2296226e-38
1.2296144e-38
1.2296112e-38
1.2296104e-38
1.2296133e-38
1.2296433e-38
1.2298843e-38
3.3201664e-38
3.315456e-38
3.3148682e-38
3.3147875e-38
3.3147654e-38
3.3147566e-38
3.3147539e-38
3.3147595e-38
3.3148244e-38
3.3153728e-38
3.315456e-38
3.3107769e-38
3.3101926e-38
3.3101123e-38
3.3100902e-38
3.3100814e-38
3.310079e-38
3.3100856e-38
3.3101615e-38
3.3108055e-38
3.3148682e-38
3.3101926e-38
3.309609e-38
3.3095287e-38
3.3095067e-38
3.3094979e-38
3.3094956e-38
3.3095026e-38
3.3095805e-38
3.310235e-38
3.3147875e-38
3.3101123e-38
3.3095287e-38
3.3094484e-38
3.3094264e-38
3.3094177e-38
3.3094154e-38
3.3094226e-38
3.309501e-38
3.3101565e-38
3.3147654e-38
3.3100902e-38
3.3095067e-38
3.3094264e-38
3.3094044e-38
3.3093958e-38
3.3093936e-38
3.3094008e-38
3.3094793e-38
3.310135e-38
3.3147566e-38
3.3100814e-38
3.3094979e-38
3.3094177e-38
3.3093958e-38
3.3093871e-38
3.309385e-38
3.3093923e-38
3.3094708e-38
3.3101265e-38
3.3147539e-38
3.310079e-38
3.3094956e-38
3.3094154e-38
3.3093936e-38
3.309385e-38
3.3093828e-38
3.3093901e-38
3.3094687e-38
3.3101244e-38
3.3147595e-38
3.3100856e-38
3.3095026e-38
3.3094226e-38
3.3094008e-38
3.3093923e-38
3.3093901e-38
3.3093975e-38
3.309476e-38
3.3101318e-38
3.3148244e-38
3.3101615e-38
3.3095805e-38
3.309501e-38
3.3094793e-38
3.3094708e-38
3.3094687e-38
3.309476e-38
3.3095547e-38
3.3102107e-38
3.3153728e-38
3.3108055e-38
3.310235e-38
3.3101565e-38
3.310135e-38
3.3101265e-38
3.3101244e-38
3.3101318e-38
3.3102107e-38
3.3108695e-38
8.659376e-38
8.6475136e-38
8.6460284e-38
8.6458235e-38
8.6457671e-38
8.6457445e-38
8.6457378e-38
8.6457515e-38
8.645913e-38
8.6472872e-38
8.6475136e-38
8.6357295e-38
8.6342531e-38
8.6340491e-38
8.6339929e-38
8.6339704e-38
8.6339641e-38
8.6339806e-38
8.6341706e-38
8.6357932e-38
8.6460284e-38
8.6342531e-38
8.632778e-38
8.6325742e-38
8.6325181e-38
8.6324957e-38
8.6324897e-38
8.6325072e-38
8.6327025e-38
8.6343525e-38
8.6458235e-38
8.6340491e-38
8.6325742e-38
8.6323704e-38
8.6323144e-38
8.6322921e-38
8.6322863e-38
8.6323043e-38
8.6325006e-38
8.6341532e-38
8.6457671e-38
8.6339929e-38
8.6325181e-38
8.6323144e-38
8.6322583e-38
8.6322362e-38
8.6322305e-38
8.6322487e-38
8.6324454e-38
8.6340983e-38
8.6457445e-38
8.6339704e-38
8.6324957e-38
8.6322921e-38
8.6322362e-38
8.6322142e-38
8.6322086e-38
8.6322269e-38
8.6324237e-38
8.6340767e-38
8.6457378e-38
8.6339641e-38
8.6324897e-38
8.6322863e-38
8.6322305e-38
8.6322086e-38
8.632203e-38
8.6322214e-38
8.6324182e-38
8.6340713e-38
8.6457515e-38
8.6339806e-38
8.6325072e-38
8.6323043e-38
8.6322487e-38
8.6322269e-38
8.6322214e-38
8.6322398e-38
8.6324367e-38
8.6340899e-38
8.645913e-38
8.6341706e-38
8.6327025e-38
8.6325006e-38
8.6324454e-38
8.6324237e-38
8.6324182e-38
8.6324367e-38
8.6326337e-38
8.6342876e-38
8.6472872e-38
8.6357932e-38
8.6343525e-38
8.6341532e-38
8.6340983e-38
8.6340767e-38
8.6340713e-38
8.6340899e-38
8.6342876e-38
8.6359484e-38
2.278049e-37
2.2750335e-37
2.2746551e-37
2.2746027e-37
2.2745882e-37
2.2745824e-37
2.2745807e-37
2.2745841e-37
2.2746243e-37
2.2749659e-37
2.2750335e-37
2.2720376e-37
2.2716615e-37
2.2716093e-37
2.2715949e-37
2.2715891e-37
2.2715875e-37
2.2715916e-37
2.2716393e-37
2.2720459e-37
2.2746551e-37
2.2716615e-37
2.2712857e-37
2.2712336e-37
2.2712192e-37
2.2712134e-37
2.2712119e-37
2.2712163e-37
2.2712653e-37
2.2716792e-37
2.2746027e-37
2.2716093e-37
2.2712336e-37
2.2711815e-37
2.2711671e-37
2.2711614e-37
2.2711599e-37
2.2711644e-37
2.2712137e-37
2.2716282e-37
2.2745882e-37
2.2715949e-37
2.2712192e-37
2.2711671e-37
2.2711527e-37
2.271147e-37
2.2711455e-37
2.2711501e-37
2.2711995e-37
2.2716141e-37
2.2745824e-37
2.2715891e-37
2.2712134e-37
2.2711614e-37
2.271147e-37
2.2711413e-37
2.2711399e-37
2.2711445e-37
2.2711939e-37
2.2716086e-37
2.2745807e-37
2.2715875e-37
2.2712119e-37
2.2711599e-37
2.2711455e-37
2.2711399e-37
2.2711385e-37
2.2711431e-37
2.2711925e-37
2.2716072e-37
2.2745841e-37
2.2715916e-37
2.2712163e-37
2.2711644e-37
2.2711501e-37
2.2711445e-37
2.2711431e-37
2.2711477e-37
2.2711972e-37
2.2716119e-37
2.2746243e-37
2.2716393e-37
2.2712653e-37
2.2712137e-37
2.2711995e-37
2.2711939e-37
2.2711925e-37
2.2711972e-37
2.2712467e-37
2.2716615e-37
2.2749659e-37
2.2720459e-37
2.2716792e-37
2.2716282e-37
2.2716141e-37
2.2716086e-37
2.2716072e-37
2.2716119e-37
2.2716615e-37
2.2720781e-37
6.0813232e-37
6.0735453e-37
6.0725677e-37
6.0724319e-37
6.0723941e-37
6.072379e-37
6.0723744e-37
6.072383e-37
6.0724843e-37
6.0733422e-37
6.0735453e-37
6.0658181e-37
6.0648462e-37
6.0647109e-37
6.0646732e-37
6.0646582e-37
6.0646539e-37
6.0646644e-37
6.0647855e-37
6.0658164e-37
6.0725677e-37
6.0648462e-37
6.0638752e-37
6.06374e-37
6.0637024e-37
6.0636874e-37
6.0636834e-37
6.0636946e-37
6.0638194e-37
6.0648694e-37
6.0724319e-37
6.0647109e-37
6.06374e-37
6.0636048e-37
6.0635673e-37
6.0635524e-37
6.0635484e-37
6.06356e-37
6.0636855e-37
6.0647373e-37
6.0723941e-37
6.0646732e-37
6.0637024e-37
6.0635673e-37
6.0635298e-37
6.0635149e-37
6.0635111e-37
6.0635229e-37
6.0636485e-37
6.0647006e-37
6.072379e-37
6.0646582e-37
6.0636874e-37
6.0635524e-37
6.0635149e-37
6.0635002e-37
6.0634964e-37
6.0635082e-37
6.063634e-37
6.0646861e-37
6.0723744e-37
6.0646539e-37
6.0636834e-37
6.0635484e-37
6.0635111e-37
6.0634964e-37
6.0634926e-37
6.0635045e-37
6.0636303e-37
6.0646824e-37
6.072383e-37
6.0646644e-37
6.0636946e-37
6.06356e-37
6.0635229e-37
6.0635082e-37
6.0635045e-37
6.0635164e-37
6.0636422e-37
6.0646944e-37
6.0724843e-37
6.0647855e-37
6.0638194e-37
6.0636855e-37
6.0636485e-37
6.063634e-37
6.0636303e-37
6.0636422e-37
6.0637681e-37
6.0648208e-37
6.0733422e-37
6.0658164e-37
6.0648694e-37
6.0647373e-37
6.0647006e-37
6.0646861e-37
6.0646824e-37
6.0646944e-37
6.0648208e-37
6.0658777e-37
1.6489456e-36
1.6469087e-36
1.6466523e-36
1.6466165e-36
1.6466065e-36
1.6466025e-36
1.6466013e-36
1.6466035e-36
1.6466294e-36
1.646848e-36
1.6469087e-36
1.644885e-36
1.6446301e-36
1.6445944e-36
1.6445845e-36
1.6445805e-36
1.6445793e-36
1.6445821e-36
1.6446133e-36
1.6448786e-36
1.6466523e-36
1.6446301e-36
1.6443753e-36
1.6443397e-36
1.6443298e-36
1.6443258e-36
1.6443247e-36
1.6443277e-36
1.6443599e-36
1.6446303e-36
1.6466165e-36
1.6445944e-36
1.6443397e-36
1.6443041e-36
1.6442942e-36
1.6442902e-36
1.6442892e-36
1.6442922e-36
1.6443246e-36
1.6445955e-36
1.6466065e-36
1.6445845e-36
1.6443298e-36
1.6442942e-36
1.6442843e-36
1.6442803e-36
1.6442793e-36
1.6442824e-36
1.6443148e-36
1.6445858e-36
1.6466025e-36
1.6445805e-36
1.6443258e-36
1.6442902e-36
1.6442803e-36
1.6442764e-36
1.6442754e-36
1.6442785e-36
1.644311e-36
1.644582e-36
1.6466013e-36
1.6445793e-36
1.6443247e-36
1.6442892e-36
1.6442793e-36
1.6442754e-36
1.6442744e-36
1.6442775e-36
1.64431e-36
1.644581e-36
1.6466035e-36
1.6445821e-36
1.6443277e-36
1.6442922e-36
1.6442824e-36
1.6442785e-36
1.6442775e-36
1.6442806e-36
1.6443131e-36
1.6445841e-36
1.6466294e-36
1.6446133e-36
1.6443599e-36
1.6443246e-36
1.6443148e-36
1.644311e-36
1.64431e-36
1.6443131e-36
1.6443456e-36
1.6446168e-36
1.646848e-36
1.6448786e-36
1.6446303e-36
1.6445955e-36
1.6445858e-36
1.644582e-36
1.644581e-36
1.6445841e-36
1.6446168e-36
1.644889e-36
4.542298e-36
4.5368811e-36
4.536198e-36
4.5361023e-36
4.5360755e-36
4.5360647e-36
4.5360614e-36
4.5360672e-36
4.5361344e-36
4.5367e-36
4.5368811e-36
4.5314991e-36
4.5308199e-36
4.5307246e-36
4.5306978e-36
4.5306871e-36
4.530684e-36
4.5306912e-36
4.530773e-36
4.5314664e-36
4.536198e-36
4.5308199e-36
4.5301413e-36
4.530046e-36
4.5300194e-36
4.5300087e-36
4.5300058e-36
4.5300135e-36
4.530098e-36
4.5308055e-36
4.5361023e-36
4.5307246e-36
4.530046e-36
4.5299509e-36
4.5299242e-36
4.5299136e-36
4.5299108e-36
4.5299187e-36
4.5300038e-36
4.5307126e-36
4.5360755e-36
4.5306978e-36
4.5300194e-36
4.5299242e-36
4.5298976e-36
4.529887e-36
4.5298843e-36
4.5298923e-36
4.5299775e-36
4.5306865e-36
4.5360647e-36
4.5306871e-36
4.5300087e-36
4.5299136e-36
4.529887e-36
4.5298765e-36
4.5298738e-36
4.5298819e-36
4.5299672e-36
4.5306762e-36
4.5360614e-36
4.530684e-36
4.5300058e-36
4.5299108e-36
4.5298843e-36
4.5298738e-36
4.5298711e-36
4.5298793e-36
4.5299646e-36
4.5306736e-36
4.5360672e-36
4.5306912e-36
4.5300135e-36
4.5299187e-36
4.5298923e-36
4.5298819e-36
4.5298793e-36
4.5298874e-36
4.5299727e-36
4.5306818e-36
4.5361344e-36
4.530773e-36
4.530098e-36
4.5300038e-36
4.5299775e-36
4.5299672e-36
4.5299646e-36
4.5299727e-36
4.5300581e-36
4.5307675e-36
4.5367e-36
4.5314664e-36
4.5308055e-36
4.5307126e-36
4.5306865e-36
4.5306762e-36
4.5306736e-36
4.5306818e-36
4.5307675e-36
4.5314797e-36
1.2712882e-35
1.2698252e-35
1.2696404e-35
1.2696144e-35
1.2696071e-35
1.2696042e-35
1.2696033e-35
1.2696048e-35
1.2696225e-35
1.2697711e-35
1.2698252e-35
1.2683716e-35
1.2681878e-35
1.268162e-35
1.2681547e-35
1.2681517e-35
1.2681509e-35
1.2681528e-35
1.2681746e-35
1.2683587e-35
1.2696404e-35
1.2681878e-35
1.2680042e-35
1.2679784e-35
1.2679711e-35
1.2679682e-35
1.2679674e-35
1.2679695e-35
1.267992e-35
1.26818e-35
1.2696144e-35
1.268162e-35
1.2679784e-35
1.2679525e-35
1.2679453e-35
1.2679424e-35
1.2679416e-35
1.2679437e-35
1.2679664e-35
1.2681548e-35
1.2696071e-35
1.2681547e-35
1.2679711e-35
1.2679453e-35
1.267938e-35
1.2679351e-35
1.2679344e-35
1.2679365e-35
1.2679593e-35
1.2681477e-35
1.2696042e-35
1.2681517e-35
1.2679682e-35
1.2679424e-35
1.2679351e-35
1.2679323e-35
1.2679315e-35
1.2679337e-35
1.2679564e-35
1.2681449e-35
1.2696033e-35
1.2681509e-35
1.2679674e-35
1.2679416e-35
1.2679344e-35
1.2679315e-35
1.2679308e-35
1.267933e-35
1.2679557e-35
1.2681442e-35
1.2696048e-35
1.2681528e-35
1.2679695e-35
1.2679437e-35
1.2679365e-35
1.2679337e-35
1.267933e-35
1.2679352e-35
1.2679579e-35
1.2681464e-35
1.2696225e-35
1.2681746e-35
1.267992e-35
1.2679664e-35
1.2679593e-35
1.2679564e-35
1.2679557e-35
1.2679579e-35
1.2679807e-35
1.2681693e-35
1.2697711e-35
1.2683587e-35
1.26818e-35
1.2681548e-35
1.2681477e-35
1.2681449e-35
1.2681442e-35
1.2681464e-35
1.2681693e-35
1.2683586e-35
3.6152582e-35
3.6112451e-35
3.6107374e-35
3.6106658e-35
3.6106455e-35
3.6106374e-35
3.6106349e-35
3.610639e-35
3.6106864e-35
3.6110829e-35
3.6112451e-35
3.6072576e-35
3.6067528e-35
3.6066814e-35
3.6066612e-35
3.6066531e-35
3.6066507e-35
3.606656e-35
3.6067149e-35
3.6072117e-35
3.6107374e-35
3.6067528e-35
3.6062483e-35
3.606177e-35
3.6061569e-35
3.6061488e-35
3.6061466e-35
3.6061522e-35
3.6062133e-35
3.6067212e-35
3.6106658e-35
3.6066814e-35
3.606177e-35
3.6061057e-35
3.6060856e-35
3.6060776e-35
3.6060755e-35
3.6060812e-35
3.6061427e-35
3.6066516e-35
3.6106455e-35
3.6066612e-35
3.6061569e-35
3.6060856e-35
3.6060655e-35
3.6060575e-35
3.6060555e-35
3.6060613e-35
3.6061229e-35
3.606632e-35
3.6106374e-35
3.6066531e-35
3.6061488e-35
3.6060776e-35
3.6060575e-35
3.6060496e-35
3.6060475e-35
3.6060534e-35
3.6061151e-35
3.6066242e-35
3.6106349e-35
3.6066507e-35
3.6061466e-35
3.6060755e-35
3.6060555e-35
3.6060475e-35
3.6060455e-35
3.6060514e-35
3.6061131e-35
3.6066222e-35
3.610639e-35
3.606656e-35
3.6061522e-35
3.6060812e-35
3.6060613e-35
3.6060534e-35
3.6060514e-35
3.6060574e-35
3.606119e-35
3.6066282e-35
3.6106864e-35
3.6067149e-35
3.6062133e-35
3.6061427e-35
3.6061229e-35
3.6061151e-35
3.6061131e-35
3.606119e-35
3.6061807e-35
3.6066901e-35
3.6110829e-35
3.6072117e-35
3.6067212e-35
3.6066516e-35
3.606632e-35
3.6066242e-35
3.6066222e-35
3.6066282e-35
3.6066901e-35
3.6072015e-35
1.0446823e-34
1.0435643e-34
1.0434226e-34
1.0434026e-34
1.0433969e-34
1.0433946e-34
1.0433939e-34
1.043395e-34
1.0434079e-34
1.0435153e-34
1.0435643e-34
1.0424533e-34
1.0423125e-34
1.0422925e-34
1.0422868e-34
1.0422845e-34
1.0422839e-34
1.0422853e-34
1.0423015e-34
1.0424377e-34
1.0434226e-34
1.0423125e-34
1.0421717e-34
1.0421517e-34
1.0421461e-34
1.0421438e-34
1.0421432e-34
1.0421447e-34
1.0421615e-34
1.0423009e-34
1.0434026e-34
1.0422925e-34
1.0421517e-34
1.0421318e-34
1.0421261e-34
1.0421239e-34
1.0421233e-34
1.0421249e-34
1.0421418e-34
1.0422815e-34
1.0433969e-34
1.0422868e-34
1.0421461e-34
1.0421261e-34
1.0421205e-34
1.0421182e-34
1.0421176e-34
1.0421192e-34
1.0421362e-34
1.0422759e-34
1.0433946e-34
1.0422845e-34
1.0421438e-34
1.0421239e-34
1.0421182e-34
1.042116e-34
1.0421154e-34
1.042117e-34
1.042134e-34
1.0422738e-34
1.0433939e-34
1.0422839e-34
1.0421432e-34
1.0421233e-34
1.0421176e-34
1.0421154e-34
1.0421148e-34
1.0421165e-34
1.0421334e-34
1.0422732e-34
1.043395e-34
1.0422853e-34
1.0421447e-34
1.0421249e-34
1.0421192e-34
1.042117e-34
1.0421165e-34
1.0421181e-34
1.0421351e-34
1.0422749e-34
1.0434079e-34
1.0423015e-34
1.0421615e-34
1.0421418e-34
1.0421362e-34
1.042134e-34
1.0421334e-34
1.0421351e-34
1.0421521e-34
1.0422919e-34
1.0435153e-34
1.0424377e-34
1.0423009e-34
1.0422815e-34
1.0422759e-34
1.0422738e-34
1.0422732e-34
1.0422749e-34
1.0422919e-34
1.0424323e-34
3.0675882e-34
3.0644244e-34
3.0640229e-34
3.0639658e-34
3.0639496e-34
3.063943e-34
3.063941e-34
3.0639441e-34
3.0639797e-34
3.0642755e-34
3.0644244e-34
3.0612806e-34
3.0608813e-34
3.0608244e-34
3.0608082e-34
3.0608017e-34
3.0607998e-34
3.0608038e-34
3.0608491e-34
3.0612287e-34
3.0640229e-34
3.0608813e-34
3.0604824e-34
3.0604255e-34
3.0604094e-34
3.0604029e-34
3.0604011e-34
3.0604054e-34
3.0604525e-34
3.0608413e-34
3.0639658e-34
3.0608244e-34
3.0604255e-34
3.0603687e-34
3.0603526e-34
3.0603461e-34
3.0603444e-34
3.0603489e-34
3.0603963e-34
3.060786e-34
3.0639496e-34
3.0608082e-34
3.0604094e-34
3.0603526e-34
3.0603364e-34
3.06033e-34
3.0603283e-34
3.0603329e-34
3.0603804e-34
3.0607702e-34
3.063943e-34
3.0608017e-34
3.0604029e-34
3.0603461e-34
3.06033e-34
3.0603236e-34
3.060322e-34
3.0603266e-34
3.0603741e-34
3.0607639e-34
3.063941e-34
3.0607998e-34
3.0604011e-34
3.0603444e-34
3.0603283e-34
3.060322e-34
3.0603203e-34
3.060325e-34
3.0603725e-34
3.0607623e-34
3.0639441e-34
3.0608038e-34
3.0604054e-34
3.0603489e-34
3.0603329e-34
3.0603266e-34
3.060325e-34
3.0603296e-34
3.0603771e-34
3.060767e-34
3.0639797e-34
3.0608491e-34
3.0604525e-34
3.0603963e-34
3.0603804e-34
3.0603741e-34
3.0603725e-34
3.0603771e-34
3.0604247e-34
3.0608147e-34
3.0642755e-34
3.0612287e-34
3.0608413e-34
3.060786e-34
3.0607702e-34
3.0607639e-34
3.0607623e-34
3.060767e-34
3.0608147e-34
3.0612062e-34
9.1535861e-34
9.1444928e-34
9.143337e-34
9.1431721e-34
9.143125e-34
9.1431059e-34
9.1431e-34
9.1431087e-34
9.1432088e-34
9.1440356e-34
9.1444928e-34
9.1354565e-34
9.1343071e-34
9.1341428e-34
9.1340958e-34
9.1340768e-34
9.1340713e-34
9.1340828e-34
9.1342112e-34
9.1352861e-34
9.143337e-34
9.1343071e-34
9.1331586e-34
9.1329944e-34
9.1329475e-34
9.1329287e-34
9.1329235e-34
9.1329359e-34
9.1330696e-34
9.1341718e-34
9.1431721e-34
9.1341428e-34
9.1329944e-34
9.1328303e-34
9.1327835e-34
9.1327647e-34
9.1327598e-34
9.1327726e-34
9.1329072e-34
9.1340121e-34
9.143125e-34
9.1340958e-34
9.1329475e-34
9.1327835e-34
9.1327367e-34
9.132718e-34
9.1327131e-34
9.1327262e-34
9.1328612e-34
9.1339664e-34
9.1431059e-34
9.1340768e-34
9.1329287e-34
9.1327647e-34
9.132718e-34
9.1326994e-34
9.1326946e-34
9.1327078e-34
9.1328429e-34
9.1339482e-34
9.1431e-34
9.1340713e-34
9.1329235e-34
9.1327598e-34
9.1327131e-34
9.1326946e-34
9.1326899e-34
9.1327031e-34
9.1328383e-34
9.1339436e-34
9.1431087e-34
9.1340828e-34
9.1329359e-34
9.1327726e-34
9.1327262e-34
9.1327078e-34
9.1327031e-34
9.1327164e-34
9.1328516e-34
9.133957e-34
9.1432088e-34
9.1342112e-34
9.1330696e-34
9.1329072e-34
9.1328612e-34
9.1328429e-34
9.1328383e-34
9.1328516e-34
9.1329868e-34
9.1340926e-34
9.1440356e-34
9.1352861e-34
9.1341718e-34
9.1340121e-34
9.1339664e-34
9.1339482e-34
9.1339436e-34
9.133957e-34
9.1340926e-34
9.1352026e-34
2.7757194e-33
2.7730647e-33
2.7727268e-33
2.7726784e-33
2.7726645e-33
2.7726589e-33
2.7726571e-33
2.7726596e-33
2.7726882e-33
2.772923e-33
2.7730647e-33
2.7704266e-33
2.7700905e-33
2.7700423e-33
2.7700284e-33
2.7700228e-33
2.7700212e-33
2.7700245e-33
2.7700616e-33
2.770371e-33
2.7727268e-33
2.7700905e-33
2.7697547e-33
2.7697065e-33
2.7696927e-33
2.7696871e-33
2.7696856e-33
2.7696892e-33
2.7697278e-33
2.7700454e-33
2.7726784e-33
2.7700423e-33
2.7697065e-33
2.7696584e-33
2.7696446e-33
2.769639e-33
2.7696376e-33
2.7696413e-33
2.7696802e-33
2.7699986e-33
2.7726645e-33
2.7700284e-33
2.7696927e-33
2.7696446e-33
2.7696308e-33
2.7696253e-33
2.7696238e-33
2.7696276e-33
2.7696666e-33
2.7699851e-33
2.7726589e-33
2.7700228e-33
2.7696871e-33
2.769639e-33
2.7696253e-33
2.7696198e-33
2.7696184e-33
2.7696222e-33
2.7696612e-33
2.7699798e-33
2.7726571e-33
2.7700212e-33
2.7696856e-33
2.7696376e-33
2.7696238e-33
2.7696184e-33
2.769617e-33
2.7696208e-33
2.7696599e-33
2.7699784e-33
2.7726596e-33
2.7700245e-33
2.7696892e-33
2.7696413e-33
2.7696276e-33
2.7696222e-33
2.7696208e-33
2.7696247e-33
2.7696638e-33
2.7699823e-33
2.7726882e-33
2.7700616e-33
2.7697278e-33
2.7696802e-33
2.7696666e-33
2.7696612e-33
2.7696599e-33
2.7696638e-33
2.7697029e-33
2.7700215e-33
2.772923e-33
2.770371e-33
2.7700454e-33
2.7699986e-33
2.7699851e-33
2.7699798e-33
2.7699784e-33
2.7699823e-33
2.7700215e-33
2.7703413e-33
8.5536885e-33
8.5458168e-33
8.5448132e-33
8.5446691e-33
8.5446275e-33
8.5446107e-33
8.5446055e-33
8.5446127e-33
8.5446954e-33
8.5453728e-33
8.5458168e-33
8.5379937e-33
8.5369957e-33
8.536852e-33
8.5368106e-33
8.5367938e-33
8.536789e-33
8.5367987e-33
8.5369074e-33
8.5378124e-33
8.5448132e-33
8.5369957e-33
8.5359984e-33
8.5358549e-33
8.5358135e-33
8.5357969e-33
8.5357923e-33
8.535803e-33
8.5359164e-33
8.5368464e-33
8.5446691e-33
8.536852e-33
8.5358549e-33
8.5357114e-33
8.5356701e-33
8.5356535e-33
8.5356492e-33
8.5356602e-33
8.5357745e-33
8.5367069e-33
8.5446275e-33
8.5368106e-33
8.5358135e-33
8.5356701e-33
8.5356288e-33
8.5356124e-33
8.5356081e-33
8.5356193e-33
8.5357339e-33
8.5366667e-33
8.5446107e-33
8.5367938e-33
8.5357969e-33
8.5356535e-33
8.5356124e-33
8.535596e-33
8.5355918e-33
8.5356031e-33
8.5357178e-33
8.5366506e-33
8.5446055e-33
8.536789e-33
8.5357923e-33
8.5356492e-33
8.5356081e-33
8.5355918e-33
8.5355876e-33
8.535599e-33
8.5357137e-33
8.5366466e-33
8.5446127e-33
8.5367987e-33
8.535803e-33
8.5356602e-33
8.5356193e-33
8.5356031e-33
8.535599e-33
8.5356104e-33
8.5357252e-33
8.5366581e-33
8.5446954e-33
8.5369074e-33
8.5359164e-33
8.5357745e-33
8.5357339e-33
8.5357178e-33
8.5357137e-33
8.5357252e-33
8.53584e-33
8.5367733e-33
8.5453728e-33
8.5378124e-33
8.5368464e-33
8.5367069e-33
8.5366667e-33
8.5366506e-33
8.5366466e-33
8.5366581e-33
8.5367733e-33
8.53771e-33
2.6786934e-32
2.6763227e-32
2.67602e-32
2.6759763e-32
2.6759637e-32
2.6759586e-32
2.675957e-32
2.6759592e-32
2.6759835e-32
2.676182e-32
2.6763227e-32
2.6739665e-32
2.6736654e-32
2.6736219e-32
2.6736094e-32
2.6736043e-32
2.6736028e-32
2.6736057e-32
2.6736381e-32
2.6739071e-32
2.67602e-32
2.6736654e-32
2.6733646e-32
2.6733212e-32
2.6733086e-32
2.6733036e-32
2.6733022e-32
2.6733054e-32
2.6733392e-32
2.6736161e-32
2.6759763e-32
2.6736219e-32
2.6733212e-32
2.6732777e-32
2.6732652e-32
2.6732602e-32
2.6732588e-32
2.6732622e-32
2.6732963e-32
2.6735739e-32
2.6759637e-32
2.6736094e-32
2.6733086e-32
2.6732652e-32
2.6732527e-32
2.6732477e-32
2.6732464e-32
2.6732497e-32
2.673284e-32
2.6735616e-32
2.6759586e-32
2.6736043e-32
2.6733036e-32
2.6732602e-32
2.6732477e-32
2.6732427e-32
2.6732414e-32
2.6732448e-32
2.6732791e-32
2.6735568e-32
2.675957e-32
2.6736028e-32
2.6733022e-32
2.6732588e-32
2.6732464e-32
2.6732414e-32
2.6732401e-32
2.6732436e-32
2.6732778e-32
2.6735555e-32
2.6759592e-32
2.6736057e-32
2.6733054e-32
2.6732622e-32
2.6732497e-32
2.6732448e-32
2.6732436e-32
2.673247e-32
2.6732813e-32
2.673559e-32
2.6759835e-32
2.6736381e-32
2.6733392e-32
2.6732963e-32
2.673284e-32
2.6732791e-32
2.6732778e-32
2.6732813e-32
2.6733156e-32
2.6735934e-32
2.676182e-32
2.6739071e-32
2.6736161e-32
2.6735739e-32
2.6735616e-32
2.6735568e-32
2.6735555e-32
2.673559e-32
2.6735934e-32
2.6738722e-32
8.5246539e-32
8.5174019e-32
8.5164747e-32
8.5163406e-32
8.5163017e-32
8.5162858e-32
8.5162809e-32
8.5162874e-32
8.5163601e-32
8.5169511e-32
8.5174019e-32
8.5101942e-32
8.509272e-32
8.5091384e-32
8.5090996e-32
8.5090838e-32
8.5090793e-32
8.5090881e-32
8.5091862e-32
8.5099993e-32
8.5164747e-32
8.509272e-32
8.5083506e-32
8.508217e-32
8.5081783e-32
8.5081627e-32
8.5081584e-32
8.5081681e-32
8.5082709e-32
8.5091084e-32
8.5163406e-32
8.5091384e-32
8.508217e-32
8.5080835e-32
8.5080448e-32
8.5080293e-32
8.5080252e-32
8.5080353e-32
8.5081389e-32
8.5089788e-32
8.5163017e-32
8.5090996e-32
8.5081783e-32
8.5080448e-32
8.5080062e-32
8.5079907e-32
8.5079867e-32
8.507997e-32
8.5081009e-32
8.508941e-32
8.5162858e-32
8.5090838e-32
8.5081627e-32
8.5080293e-32
8.5079907e-32
8.5079753e-32
8.5079714e-32
8.5079818e-32
8.5080858e-32
8.508926e-32
8.5162809e-32
8.5090793e-32
8.5081584e-32
8.5080252e-32
8.5079867e-32
8.5079714e-32
8.5079675e-32
8.5079779e-32
8.508082e-32
8.5089223e-32
8.5162874e-32
8.5090881e-32
8.5081681e-32
8.5080353e-32
8.507997e-32
8.5079818e-32
8.5079779e-32
8.5079884e-32
8.5080925e-32
8.5089328e-32
8.5163601e-32
8.5091862e-32
8.5082709e-32
8.5081389e-32
8.5081009e-32
8.5080858e-32
8.508082e-32
8.5080925e-32
8.5081966e-32
8.5090372e-32
8.5169511e-32
8.5099993e-32
8.5091084e-32
8.5089788e-32
8.508941e-32
8.508926e-32
8.5089223e-32
8.5089328e-32
8.5090372e-32
8.5098808e-32
2.7567739e-31
2.7545209e-31
2.7542325e-31
2.7541906e-31
2.7541784e-31
2.7541735e-31
2.7541719e-31
2.7541739e-31
2.754196e-31
2.7543747e-31
2.7545209e-31
2.7522817e-31
2.7519948e-31
2.7519531e-31
2.7519409e-31
2.751936e-31
2.7519345e-31
2.7519373e-31
2.7519675e-31
2.7522172e-31
2.7542325e-31
2.7519948e-31
2.7517081e-31
2.7516664e-31
2.7516543e-31
2.7516494e-31
2.7516481e-31
2.7516511e-31
2.7516828e-31
2.7519403e-31
2.7541906e-31
2.7519531e-31
2.7516664e-31
2.7516248e-31
2.7516126e-31
2.7516078e-31
2.7516065e-31
2.7516096e-31
2.7516416e-31
2.7518999e-31
2.7541784e-31
2.7519409e-31
2.7516543e-31
2.7516126e-31
2.7516005e-31
2.7515957e-31
2.7515944e-31
2.7515976e-31
2.7516297e-31
2.7518881e-31
2.7541735e-31
2.751936e-31
2.7516494e-31
2.7516078e-31
2.7515957e-31
2.7515909e-31
2.7515896e-31
2.7515929e-31
2.7516249e-31
2.7518833e-31
2.7541719e-31
2.7519345e-31
2.7516481e-31
2.7516065e-31
2.7515944e-31
2.7515896e-31
2.7515884e-31
2.7515917e-31
2.7516238e-31
2.7518822e-31
2.7541739e-31
2.7519373e-31
2.7516511e-31
2.7516096e-31
2.7515976e-31
2.7515929e-31
2.7515917e-31
2.7515949e-31
2.751627e-31
2.7518854e-31
2.754196e-31
2.7519675e-31
2.7516828e-31
2.7516416e-31
2.7516297e-31
2.7516249e-31
2.7516238e-31
2.751627e-31
2.7516591e-31
2.7519177e-31
2.7543747e-31
2.7522172e-31
2.7519403e-31
2.7518999e-31
2.7518881e-31
2.7518833e-31
2.7518822e-31
2.7518854e-31
2.7519177e-31
2.7521771e-31
9.0589195e-31
9.0518117e-31
9.0509005e-31
9.0507678e-31
9.0507291e-31
9.0507132e-31
9.0507083e-31
9.0507144e-31
9.0507826e-31
9.0513316e-31
9.0518117e-31
9.044747e-31
9.0438406e-31
9.0437084e-31
9.0436697e-31
9.043654e-31
9.0436494e-31
9.0436581e-31
9.0437525e-31
9.044532e-31
9.0509005e-31
9.0438406e-31
9.0429349e-31
9.0428028e-31
9.0427642e-31
9.0427486e-31
9.0427443e-31
9.0427539e-31
9.0428532e-31
9.043658e-31
9.0507678e-31
9.0437084e-31
9.0428028e-31
9.0426707e-31
9.0426321e-31
9.0426166e-31
9.0426125e-31
9.0426225e-31
9.0427227e-31
9.0435299e-31
9.0507291e-31
9.0436697e-31
9.0427642e-31
9.0426321e-31
9.0425936e-31
9.0425782e-31
9.0425742e-31
9.0425843e-31
9.0426848e-31
9.0434924e-31
9.0507132e-31
9.043654e-31
9.0427486e-31
9.0426166e-31
9.0425782e-31
9.0425628e-31
9.0425589e-31
9.0425691e-31
9.0426697e-31
9.0434774e-31
9.0507083e-31
9.0436494e-31
9.0427443e-31
9.0426125e-31
9.0425742e-31
9.0425589e-31
9.0425551e-31
9.0425653e-31
9.042666e-31
9.0434737e-31
9.0507144e-31
9.0436581e-31
9.0427539e-31
9.0426225e-31
9.0425843e-31
9.0425691e-31
9.0425653e-31
9.0425756e-31
9.0426763e-31
9.043484e-31
9.0507826e-31
9.0437525e-31
9.0428532e-31
9.0427227e-31
9.0426848e-31
9.0426697e-31
9.042666e-31
9.0426763e-31
9.042777e-31
9.043585e-31
9.0513316e-31
9.044532e-31
9.043658e-31
9.0435299e-31
9.0434924e-31
9.0434774e-31
9.0434737e-31
9.043484e-31
9.043585e-31
9.0443958e-31
3.0246573e-30
3.0223803e-30
3.022088e-30
3.0220452e-30
3.0220327e-30
3.0220276e-30
3.022026e-30
3.022028e-30
3.0220493e-30
3.0222206e-30
3.0223803e-30
3.0201169e-30
3.0198261e-30
3.0197836e-30
3.0197711e-30
3.019766e-30
3.0197645e-30
3.0197673e-30
3.0197973e-30
3.0200446e-30
3.022088e-30
3.0198261e-30
3.0195356e-30
3.0194931e-30
3.0194806e-30
3.0194756e-30
3.0194742e-30
3.0194772e-30
3.0195089e-30
3.0197645e-30
3.0220452e-30
3.0197836e-30
3.0194931e-30
3.0194506e-30
3.0194381e-30
3.0194331e-30
3.0194318e-30
3.019435e-30
3.0194669e-30
3.0197233e-30
3.0220327e-30
3.0197711e-30
3.0194806e-30
3.0194381e-30
3.0194257e-30
3.0194207e-30
3.0194194e-30
3.0194226e-30
3.0194547e-30
3.0197112e-30
3.0220276e-30
3.019766e-30
3.0194756e-30
3.0194331e-30
3.0194207e-30
3.0194157e-30
3.0194145e-30
3.0194177e-30
3.0194498e-30
3.0197064e-30
3.022026e-30
3.0197645e-30
3.0194742e-30
3.0194318e-30
3.0194194e-30
3.0194145e-30
3.0194132e-30
3.0194165e-30
3.0194486e-30
3.0197052e-30
3.022028e-30
3.0197673e-30
3.0194772e-30
3.019435e-30
3.0194226e-30
3.0194177e-30
3.0194165e-30
3.0194198e-30
3.0194519e-30
3.0197085e-30
3.0220493e-30
3.0197973e-30
3.0195089e-30
3.0194669e-30
3.0194547e-30
3.0194498e-30
3.0194486e-30
3.0194519e-30
3.019484e-30
3.0197407e-30
3.0222206e-30
3.0200446e-30
3.0197645e-30
3.0197233e-30
3.0197112e-30
3.0197064e-30
3.0197052e-30
3.0197085e-30
3.0197407e-30
3.0199982e-30
1.0260469e-29
1.0253062e-29
1.025211e-29
1.025197e-29
1.0251929e-29
1.0251912e-29
1.0251907e-29
1.0251913e-29
1.0251982e-29
1.0252524e-29
1.0253062e-29
1.02457e-29
1.0244752e-29
1.0244613e-29
1.0244572e-29
1.0244556e-29
1.0244551e-29
1.024456e-29
1.0244657e-29
1.0245454e-29
1.025211e-29
1.0244752e-29
1.0243806e-29
1.0243667e-29
1.0243626e-29
1.024361e-29
1.0243605e-29
1.0243615e-29
1.0243718e-29
1.0244543e-29
1.025197e-29
1.0244613e-29
1.0243667e-29
1.0243528e-29
1.0243487e-29
1.0243471e-29
1.0243467e-29
1.0243477e-29
1.024358e-29
1.0244408e-29
1.0251929e-29
1.0244572e-29
1.0243626e-29
1.0243487e-29
1.0243447e-29
1.024343e-29
1.0243426e-29
1.0243437e-29
1.024354e-29
1.0244369e-29
1.0251912e-29
1.0244556e-29
1.024361e-29
1.0243471e-29
1.024343e-29
1.0243414e-29
1.024341e-29
1.0243421e-29
1.0243524e-29
1.0244353e-29
1.0251907e-29
1.0244551e-29
1.0243605e-29
1.0243467e-29
1.0243426e-29
1.024341e-29
1.0243406e-29
1.0243417e-29
1.024352e-29
1.0244349e-29
1.0251913e-29
1.024456e-29
1.0243615e-29
1.0243477e-29
1.0243437e-29
1.0243421e-29
1.0243417e-29
1.0243427e-29
1.0243531e-29
1.024436e-29
1.0251982e-29
1.0244657e-29
1.0243718e-29
1.024358e-29
1.024354e-29
1.0243524e-29
1.024352e-29
1.0243531e-29
1.0243635e-29
1.0244464e-29
1.0252524e-29
1.0245454e-29
1.0244543e-29
1.0244408e-29
1.0244369e-29
1.0244353e-29
1.0244349e-29
1.024436e-29