/*--------------------------------*- C++ -*----------------------------------*\
| =========                 |                                                 |
| \\      /  F ield         | OpenFOAM: The Open Source CFD Toolbox           |
|  \\    /   O peration     | Version:  dev                                   |
|   \\  /    A nd           | Web:      www.OpenFOAM.org                      |
|    \\/     M anipulation  |                                                 |
\*---------------------------------------------------------------------------*/
FoamFile
{
    version     2.0;
    format      ascii;
    class       volScalarField;
    location    "91.995";
    object      A;
}
// * * * * * * * * * * * * * * * * * * * * * * * * * * * * * * * * * * * * * //

dimensions      [0 0 0 0 1 0 0];

internalField   nonuniform List<scalar> 
10000
(
3.7614928e-22
3.7581792e-22
3.7563358e-22
3.7552636e-22
3.7546665e-22
3.7543766e-22
3.7543053e-22
3.7544306e-22
3.7548056e-22
3.7555405e-22
3.7581792e-22
3.7548782e-22
3.7530391e-22
3.7519691e-22
3.7513737e-22
3.7510859e-22
3.7510182e-22
3.7511519e-22
3.7515479e-22
3.7523424e-22
3.7563358e-22
3.7530391e-22
3.7512029e-22
3.750135e-22
3.7495416e-22
3.7492564e-22
3.7491935e-22
3.7493356e-22
3.7497463e-22
3.7505616e-22
3.7552636e-22
3.7519691e-22
3.750135e-22
3.749069e-22
3.7484776e-22
3.748195e-22
3.748136e-22
3.7482843e-22
3.7487033e-22
3.7495267e-22
3.7546665e-22
3.7513737e-22
3.7495416e-22
3.7484776e-22
3.7478881e-22
3.7476079e-22
3.7475518e-22
3.747704e-22
3.7481275e-22
3.7489543e-22
3.7543766e-22
3.7510859e-22
3.7492564e-22
3.748195e-22
3.7476079e-22
3.7473298e-22
3.7472759e-22
3.7474305e-22
3.7478564e-22
3.7486848e-22
3.7543053e-22
3.7510182e-22
3.7491935e-22
3.748136e-22
3.7475518e-22
3.7472759e-22
3.7472238e-22
3.74738e-22
3.7478073e-22
3.7486366e-22
3.7544306e-22
3.7511519e-22
3.7493356e-22
3.7482843e-22
3.747704e-22
3.7474305e-22
3.74738e-22
3.7475372e-22
3.7479655e-22
3.7487954e-22
3.7548056e-22
3.7515479e-22
3.7497463e-22
3.7487033e-22
3.7481275e-22
3.7478564e-22
3.7478073e-22
3.7479655e-22
3.7483946e-22
3.7492255e-22
3.7555405e-22
3.7523424e-22
3.7505616e-22
3.7495267e-22
3.7489543e-22
3.7486848e-22
3.7486366e-22
3.7487954e-22
3.7492255e-22
3.7500587e-22
1.2325815e-21
1.2315382e-21
1.2309403e-21
1.2305917e-21
1.2303974e-21
1.230303e-21
1.2302797e-21
1.2303203e-21
1.2304421e-21
1.2306893e-21
1.2315382e-21
1.2304987e-21
1.2299022e-21
1.2295543e-21
1.2293606e-21
1.2292669e-21
1.2292448e-21
1.2292881e-21
1.2294168e-21
1.2296836e-21
1.2309403e-21
1.2299022e-21
1.2293067e-21
1.2289595e-21
1.2287664e-21
1.2286736e-21
1.228653e-21
1.228699e-21
1.2288326e-21
1.2291061e-21
1.2305917e-21
1.2295543e-21
1.2289595e-21
1.2286129e-21
1.2284204e-21
1.2283285e-21
1.2283092e-21
1.2283573e-21
1.2284935e-21
1.2287697e-21
1.2303974e-21
1.2293606e-21
1.2287664e-21
1.2284204e-21
1.2282287e-21
1.2281374e-21
1.2281191e-21
1.2281685e-21
1.2283062e-21
1.2285835e-21
1.230303e-21
1.2292669e-21
1.2286736e-21
1.2283285e-21
1.2281374e-21
1.2280469e-21
1.2280293e-21
1.2280794e-21
1.2282179e-21
1.2284958e-21
1.2302797e-21
1.2292448e-21
1.228653e-21
1.2283092e-21
1.2281191e-21
1.2280293e-21
1.2280123e-21
1.2280629e-21
1.2282019e-21
1.22848e-21
1.2303203e-21
1.2292881e-21
1.228699e-21
1.2283573e-21
1.2281685e-21
1.2280794e-21
1.2280629e-21
1.2281139e-21
1.2282532e-21
1.2285315e-21
1.2304421e-21
1.2294168e-21
1.2288326e-21
1.2284935e-21
1.2283062e-21
1.2282179e-21
1.2282019e-21
1.2282532e-21
1.2283927e-21
1.2286714e-21
1.2306893e-21
1.2296836e-21
1.2291061e-21
1.2287697e-21
1.2285835e-21
1.2284958e-21
1.22848e-21
1.2285315e-21
1.2286714e-21
1.2289508e-21
2.436276e-21
2.434283e-21
2.4331224e-21
2.4324437e-21
2.4320648e-21
2.4318806e-21
2.4318348e-21
2.4319131e-21
2.4321495e-21
2.4326446e-21
2.434283e-21
2.4322973e-21
2.4311394e-21
2.430462e-21
2.4300842e-21
2.4299012e-21
2.4298578e-21
2.4299415e-21
2.4301914e-21
2.4307253e-21
2.4331224e-21
2.4311394e-21
2.4299833e-21
2.4293072e-21
2.4289307e-21
2.4287494e-21
2.428709e-21
2.4287982e-21
2.4290575e-21
2.4296048e-21
2.4324437e-21
2.430462e-21
2.4293072e-21
2.4286323e-21
2.428257e-21
2.4280775e-21
2.4280396e-21
2.4281327e-21
2.4283974e-21
2.4289498e-21
2.4320648e-21
2.4300842e-21
2.4289307e-21
2.428257e-21
2.427883e-21
2.427705e-21
2.427669e-21
2.4277646e-21
2.4280322e-21
2.4285868e-21
2.4318806e-21
2.4299012e-21
2.4287494e-21
2.4280775e-21
2.427705e-21
2.4275283e-21
2.4274937e-21
2.4275908e-21
2.42786e-21
2.4284157e-21
2.4318348e-21
2.4298578e-21
2.428709e-21
2.4280396e-21
2.427669e-21
2.4274937e-21
2.4274603e-21
2.4275584e-21
2.4278284e-21
2.4283847e-21
2.4319131e-21
2.4299415e-21
2.4287982e-21
2.4281327e-21
2.4277646e-21
2.4275908e-21
2.4275584e-21
2.4276573e-21
2.4279279e-21
2.4284846e-21
2.4321495e-21
2.4301914e-21
2.4290575e-21
2.4283974e-21
2.4280322e-21
2.42786e-21
2.4278284e-21
2.4279279e-21
2.4281991e-21
2.4287563e-21
2.4326446e-21
2.4307253e-21
2.4296048e-21
2.4289498e-21
2.4285868e-21
2.4284157e-21
2.4283847e-21
2.4284846e-21
2.4287563e-21
2.4293153e-21
4.3413837e-21
4.3379501e-21
4.33593e-21
4.3347445e-21
4.3340818e-21
4.3337589e-21
4.3336779e-21
4.3338132e-21
4.3342225e-21
4.3350906e-21
4.3379501e-21
4.3345288e-21
4.3325133e-21
4.3313302e-21
4.3306692e-21
4.3303486e-21
4.3302719e-21
4.3304166e-21
4.3308499e-21
4.3317869e-21
4.33593e-21
4.3325133e-21
4.330501e-21
4.3293201e-21
4.3286614e-21
4.3283438e-21
4.3282724e-21
4.3284268e-21
4.3288769e-21
4.3298376e-21
4.3347445e-21
4.3313302e-21
4.3293201e-21
4.3281414e-21
4.3274848e-21
4.3271703e-21
4.3271033e-21
4.3272647e-21
4.3277243e-21
4.3286942e-21
4.3340818e-21
4.3306692e-21
4.3286614e-21
4.3274848e-21
4.3268306e-21
4.3265186e-21
4.3264551e-21
4.3266208e-21
4.3270855e-21
4.3280594e-21
4.3337589e-21
4.3303486e-21
4.3283438e-21
4.3271703e-21
4.3265186e-21
4.3262091e-21
4.326148e-21
4.3263165e-21
4.3267839e-21
4.3277596e-21
4.3336779e-21
4.3302719e-21
4.3282724e-21
4.3271033e-21
4.3264551e-21
4.326148e-21
4.3260889e-21
4.3262592e-21
4.3267282e-21
4.3277049e-21
4.3338132e-21
4.3304166e-21
4.3284268e-21
4.3272647e-21
4.3266208e-21
4.3263165e-21
4.3262592e-21
4.3264308e-21
4.3269008e-21
4.3278782e-21
4.3342225e-21
4.3308499e-21
4.3288769e-21
4.3277243e-21
4.3270855e-21
4.3267839e-21
4.3267282e-21
4.3269008e-21
4.3273718e-21
4.3283503e-21
4.3350906e-21
4.3317869e-21
4.3298376e-21
4.3286942e-21
4.3280594e-21
4.3277596e-21
4.3277049e-21
4.3278782e-21
4.3283503e-21
4.3293317e-21
7.5369656e-21
7.5312039e-21
7.5277898e-21
7.5257794e-21
7.5246533e-21
7.5241037e-21
7.5239645e-21
7.5241907e-21
7.5248763e-21
7.5263331e-21
7.5312039e-21
7.5254627e-21
7.5220562e-21
7.5200498e-21
7.5189267e-21
7.518381e-21
7.5182492e-21
7.5184917e-21
7.5192188e-21
7.5207946e-21
7.5277898e-21
7.5220562e-21
7.5186551e-21
7.5166525e-21
7.5155332e-21
7.5149928e-21
7.51487e-21
7.5151291e-21
7.5158852e-21
7.517502e-21
7.5257794e-21
7.5200498e-21
7.5166525e-21
7.5146535e-21
7.513538e-21
7.5130027e-21
7.5128877e-21
7.5131587e-21
7.5139313e-21
7.5155639e-21
7.5246533e-21
7.5189267e-21
7.5155332e-21
7.513538e-21
7.5124264e-21
7.5118956e-21
7.5117864e-21
7.512065e-21
7.5128463e-21
7.5144858e-21
7.5241037e-21
7.518381e-21
7.5149928e-21
7.5130027e-21
7.5118956e-21
7.5113689e-21
7.511264e-21
7.5115473e-21
7.5123333e-21
7.5139759e-21
7.5239645e-21
7.5182492e-21
7.51487e-21
7.5128877e-21
7.5117864e-21
7.511264e-21
7.5111625e-21
7.5114489e-21
7.5122375e-21
7.5138818e-21
7.5241907e-21
7.5184917e-21
7.5151291e-21
7.5131587e-21
7.512065e-21
7.5115473e-21
7.5114489e-21
7.5117375e-21
7.512528e-21
7.5141735e-21
7.5248763e-21
7.5192188e-21
7.5158852e-21
7.5139313e-21
7.5128463e-21
7.5123333e-21
7.5122375e-21
7.512528e-21
7.51332e-21
7.5149674e-21
7.5263331e-21
7.5207946e-21
7.517502e-21
7.5155639e-21
7.5144858e-21
7.5139759e-21
7.5138818e-21
7.5141735e-21
7.5149674e-21
7.5166196e-21
1.3050283e-20
1.3040644e-20
1.30349e-20
1.3031507e-20
1.3029602e-20
1.3028671e-20
1.3028433e-20
1.3028808e-20
1.3029949e-20
1.3032364e-20
1.3040644e-20
1.303104e-20
1.3025308e-20
1.3021922e-20
1.3020022e-20
1.3019097e-20
1.3018872e-20
1.3019275e-20
1.3020487e-20
1.3023108e-20
1.30349e-20
1.3025308e-20
1.3019586e-20
1.3016206e-20
1.3014313e-20
1.3013397e-20
1.3013187e-20
1.3013619e-20
1.3014881e-20
1.3017572e-20
1.3031507e-20
1.3021922e-20
1.3016206e-20
1.3012832e-20
1.3010945e-20
1.3010038e-20
1.3009841e-20
1.3010294e-20
1.3011584e-20
1.3014302e-20
1.3029602e-20
1.3020022e-20
1.3014313e-20
1.3010945e-20
1.3009065e-20
1.3008166e-20
1.3007979e-20
1.3008445e-20
1.300975e-20
1.3012479e-20
1.3028671e-20
1.3019097e-20
1.3013397e-20
1.3010038e-20
1.3008166e-20
1.3007274e-20
1.3007094e-20
1.3007568e-20
1.3008881e-20
1.3011616e-20
1.3028433e-20
1.3018872e-20
1.3013187e-20
1.3009841e-20
1.3007979e-20
1.3007094e-20
1.300692e-20
1.30074e-20
1.3008717e-20
1.3011455e-20
1.3028808e-20
1.3019275e-20
1.3013619e-20
1.3010294e-20
1.3008445e-20
1.3007568e-20
1.30074e-20
1.3007883e-20
1.3009203e-20
1.3011943e-20
1.3029949e-20
1.3020487e-20
1.3014881e-20
1.3011584e-20
1.300975e-20
1.3008881e-20
1.3008717e-20
1.3009203e-20
1.3010527e-20
1.301327e-20
1.3032364e-20
1.3023108e-20
1.3017572e-20
1.3014302e-20
1.3012479e-20
1.3011616e-20
1.3011455e-20
1.3011943e-20
1.301327e-20
1.3016021e-20
2.2716223e-20
2.270002e-20
2.2690316e-20
2.2684565e-20
2.268133e-20
2.2679746e-20
2.2679336e-20
2.2679962e-20
2.2681865e-20
2.2685872e-20
2.270002e-20
2.2683874e-20
2.2674191e-20
2.2668451e-20
2.2665225e-20
2.2663652e-20
2.2663264e-20
2.2663938e-20
2.2665965e-20
2.2670326e-20
2.2690316e-20
2.2674191e-20
2.2664523e-20
2.2658794e-20
2.2655579e-20
2.2654021e-20
2.265366e-20
2.2654384e-20
2.2656497e-20
2.2660979e-20
2.2684565e-20
2.2668451e-20
2.2658794e-20
2.2653076e-20
2.2649872e-20
2.2648329e-20
2.2647991e-20
2.264875e-20
2.2650911e-20
2.2655441e-20
2.268133e-20
2.2665225e-20
2.2655579e-20
2.2649872e-20
2.2646679e-20
2.264515e-20
2.2644829e-20
2.264561e-20
2.2647797e-20
2.2652348e-20
2.2679746e-20
2.2663652e-20
2.2654021e-20
2.2648329e-20
2.264515e-20
2.2643632e-20
2.2643324e-20
2.2644119e-20
2.264632e-20
2.265088e-20
2.2679336e-20
2.2663264e-20
2.265366e-20
2.2647991e-20
2.2644829e-20
2.2643324e-20
2.2643026e-20
2.264383e-20
2.2646039e-20
2.2650604e-20
2.2679962e-20
2.2663938e-20
2.2654384e-20
2.264875e-20
2.264561e-20
2.2644119e-20
2.264383e-20
2.2644642e-20
2.2646855e-20
2.2651424e-20
2.2681865e-20
2.2665965e-20
2.2656497e-20
2.2650911e-20
2.2647797e-20
2.264632e-20
2.2646039e-20
2.2646855e-20
2.2649074e-20
2.2653647e-20
2.2685872e-20
2.2670326e-20
2.2660979e-20
2.2655441e-20
2.2652348e-20
2.265088e-20
2.2650604e-20
2.2651424e-20
2.2653647e-20
2.2658234e-20
3.986006e-20
3.9832614e-20
3.98161e-20
3.9806283e-20
3.9800749e-20
3.9798034e-20
3.9797325e-20
3.9798376e-20
3.9801572e-20
3.9808257e-20
3.9832614e-20
3.9805264e-20
3.9788785e-20
3.9778987e-20
3.9773468e-20
3.9770772e-20
3.9770101e-20
3.9771236e-20
3.9774648e-20
3.9781951e-20
3.98161e-20
3.9788785e-20
3.9772332e-20
3.9762552e-20
3.9757053e-20
3.9754384e-20
3.9753759e-20
3.975498e-20
3.9758541e-20
3.9766056e-20
3.9806283e-20
3.9778987e-20
3.9762552e-20
3.975279e-20
3.974731e-20
3.9744667e-20
3.9744082e-20
3.9745364e-20
3.974901e-20
3.9756607e-20
3.9800749e-20
3.9773468e-20
3.9757053e-20
3.974731e-20
3.9741849e-20
3.9739229e-20
3.9738674e-20
3.9739995e-20
3.9743686e-20
3.9751319e-20
3.9798034e-20
3.9770772e-20
3.9754384e-20
3.9744667e-20
3.9739229e-20
3.973663e-20
3.9736097e-20
3.9737442e-20
3.9741157e-20
3.9748806e-20
3.9797325e-20
3.9770101e-20
3.9753759e-20
3.9744082e-20
3.9738674e-20
3.9736097e-20
3.9735582e-20
3.9736942e-20
3.9740671e-20
3.9748328e-20
3.9798376e-20
3.9771236e-20
3.975498e-20
3.9745364e-20
3.9739995e-20
3.9737442e-20
3.9736942e-20
3.9738315e-20
3.9742052e-20
3.9749716e-20
3.9801572e-20
3.9774648e-20
3.9758541e-20
3.974901e-20
3.9743686e-20
3.9741157e-20
3.9740671e-20
3.9742052e-20
3.9745797e-20
3.9753469e-20
3.9808257e-20
3.9781951e-20
3.9766056e-20
3.9756607e-20
3.9751319e-20
3.9748806e-20
3.9748328e-20
3.9749716e-20
3.9753469e-20
3.9761164e-20
7.0574183e-20
7.0527294e-20
7.0498952e-20
7.0482053e-20
7.0472508e-20
7.0467816e-20
7.0466579e-20
7.0468358e-20
7.0473771e-20
7.0485012e-20
7.0527294e-20
7.0480567e-20
7.0452286e-20
7.0435418e-20
7.0425899e-20
7.0421241e-20
7.042007e-20
7.0421997e-20
7.0427787e-20
7.0440116e-20
7.0498952e-20
7.0452286e-20
7.0424048e-20
7.0407213e-20
7.0397726e-20
7.0393115e-20
7.0392026e-20
7.0394102e-20
7.0400156e-20
7.0412857e-20
7.0482053e-20
7.0435418e-20
7.0407213e-20
7.0390408e-20
7.0380956e-20
7.037639e-20
7.0375371e-20
7.0377554e-20
7.0383756e-20
7.0396602e-20
7.0472508e-20
7.0425899e-20
7.0397726e-20
7.0380956e-20
7.0371537e-20
7.0367012e-20
7.0366044e-20
7.0368296e-20
7.0374577e-20
7.0387485e-20
7.0467816e-20
7.0421241e-20
7.0393115e-20
7.037639e-20
7.0367012e-20
7.0362523e-20
7.0361594e-20
7.0363888e-20
7.0370211e-20
7.0383147e-20
7.0466579e-20
7.042007e-20
7.0392026e-20
7.0375371e-20
7.0366044e-20
7.0361594e-20
7.0360696e-20
7.0363017e-20
7.0369364e-20
7.0382315e-20
7.0468358e-20
7.0421997e-20
7.0394102e-20
7.0377554e-20
7.0368296e-20
7.0363888e-20
7.0363017e-20
7.036536e-20
7.0371722e-20
7.0384684e-20
7.0473771e-20
7.0427787e-20
7.0400156e-20
7.0383756e-20
7.0374577e-20
7.0370211e-20
7.0369364e-20
7.0371722e-20
7.0378097e-20
7.0391073e-20
7.0485012e-20
7.0440116e-20
7.0412857e-20
7.0396602e-20
7.0387485e-20
7.0383147e-20
7.0382315e-20
7.0384684e-20
7.0391073e-20
7.0404087e-20
1.2612903e-19
1.260482e-19
1.2599913e-19
1.2596978e-19
1.2595317e-19
1.2594499e-19
1.2594282e-19
1.2594586e-19
1.2595511e-19
1.2597417e-19
1.260482e-19
1.2596765e-19
1.2591869e-19
1.2588939e-19
1.2587283e-19
1.2586471e-19
1.2586265e-19
1.2586595e-19
1.2587587e-19
1.2589687e-19
1.2599913e-19
1.2591869e-19
1.258698e-19
1.2584056e-19
1.2582405e-19
1.2581601e-19
1.258141e-19
1.2581766e-19
1.2582805e-19
1.258497e-19
1.2596978e-19
1.2588939e-19
1.2584056e-19
1.2581137e-19
1.2579493e-19
1.2578697e-19
1.2578518e-19
1.2578893e-19
1.2579958e-19
1.2582149e-19
1.2595317e-19
1.2587283e-19
1.2582405e-19
1.2579493e-19
1.2577854e-19
1.2577065e-19
1.2576895e-19
1.2577283e-19
1.2578361e-19
1.2580564e-19
1.2594499e-19
1.2586471e-19
1.2581601e-19
1.2578697e-19
1.2577065e-19
1.2576283e-19
1.257612e-19
1.2576515e-19
1.2577601e-19
1.2579809e-19
1.2594282e-19
1.2586265e-19
1.258141e-19
1.2578518e-19
1.2576895e-19
1.257612e-19
1.2575962e-19
1.2576362e-19
1.2577452e-19
1.2579662e-19
1.2594586e-19
1.2586595e-19
1.2581766e-19
1.2578893e-19
1.2577283e-19
1.2576515e-19
1.2576362e-19
1.2576766e-19
1.2577859e-19
1.258007e-19
1.2595511e-19
1.2587587e-19
1.2582805e-19
1.2579958e-19
1.2578361e-19
1.2577601e-19
1.2577452e-19
1.2577859e-19
1.2578954e-19
1.2581168e-19
1.2597417e-19
1.2589687e-19
1.258497e-19
1.2582149e-19
1.2580564e-19
1.2579809e-19
1.2579662e-19
1.258007e-19
1.2581168e-19
1.2583389e-19
2.2756742e-19
2.2742683e-19
2.273411e-19
2.2728968e-19
2.2726052e-19
2.2724613e-19
2.2724227e-19
2.2724751e-19
2.2726346e-19
2.272961e-19
2.2742683e-19
2.2728672e-19
2.2720117e-19
2.2714984e-19
2.2712076e-19
2.2710648e-19
2.2710283e-19
2.2710854e-19
2.2712568e-19
2.2716177e-19
2.273411e-19
2.2720117e-19
2.2711575e-19
2.2706452e-19
2.2703554e-19
2.2702141e-19
2.2701802e-19
2.2702419e-19
2.2704217e-19
2.2707944e-19
2.2728968e-19
2.2714984e-19
2.2706452e-19
2.2701339e-19
2.2698451e-19
2.2697052e-19
2.2696735e-19
2.2697386e-19
2.269923e-19
2.2703004e-19
2.2726052e-19
2.2712076e-19
2.2703554e-19
2.2698451e-19
2.2695574e-19
2.2694188e-19
2.2693887e-19
2.269456e-19
2.2696429e-19
2.2700222e-19
2.2724613e-19
2.2710648e-19
2.2702141e-19
2.2697052e-19
2.2694188e-19
2.2692813e-19
2.2692524e-19
2.269321e-19
2.2695093e-19
2.2698895e-19
2.2724227e-19
2.2710283e-19
2.2701802e-19
2.2696735e-19
2.2693887e-19
2.2692524e-19
2.2692245e-19
2.269294e-19
2.269483e-19
2.2698636e-19
2.2724751e-19
2.2710854e-19
2.2702419e-19
2.2697386e-19
2.269456e-19
2.269321e-19
2.269294e-19
2.2693641e-19
2.2695536e-19
2.2699346e-19
2.2726346e-19
2.2712568e-19
2.2704217e-19
2.269923e-19
2.2696429e-19
2.2695093e-19
2.269483e-19
2.2695536e-19
2.2697435e-19
2.2701249e-19
2.272961e-19
2.2716177e-19
2.2707944e-19
2.2703004e-19
2.2700222e-19
2.2698895e-19
2.2698636e-19
2.2699346e-19
2.2701249e-19
2.2705074e-19
4.145377e-19
4.1429091e-19
4.1413977e-19
4.1404885e-19
4.1399719e-19
4.1397166e-19
4.1396476e-19
4.1397387e-19
4.1400163e-19
4.1405801e-19
4.1429091e-19
4.1404496e-19
4.1389414e-19
4.1380338e-19
4.1375185e-19
4.1372652e-19
4.1371999e-19
4.1372995e-19
4.1375986e-19
4.1382248e-19
4.1413977e-19
4.1389414e-19
4.1374354e-19
4.1365295e-19
4.1360161e-19
4.1357654e-19
4.1357047e-19
4.1358128e-19
4.1361269e-19
4.1367744e-19
4.1404885e-19
4.1380338e-19
4.1365295e-19
4.1356254e-19
4.1351138e-19
4.1348657e-19
4.134809e-19
4.1349231e-19
4.1352457e-19
4.1359014e-19
4.1399719e-19
4.1375185e-19
4.1360161e-19
4.1351138e-19
4.1346043e-19
4.1343584e-19
4.1343046e-19
4.1344226e-19
4.1347497e-19
4.135409e-19
4.1397166e-19
4.1372652e-19
4.1357654e-19
4.1348657e-19
4.1343584e-19
4.1341146e-19
4.134063e-19
4.1341834e-19
4.1345128e-19
4.1351737e-19
4.1396476e-19
4.1371999e-19
4.1357047e-19
4.134809e-19
4.1343046e-19
4.134063e-19
4.1340131e-19
4.1341351e-19
4.1344659e-19
4.1351276e-19
4.1397387e-19
4.1372995e-19
4.1358128e-19
4.1349231e-19
4.1344226e-19
4.1341834e-19
4.1341351e-19
4.1342582e-19
4.1345898e-19
4.1352522e-19
4.1400163e-19
4.1375986e-19
4.1361269e-19
4.1352457e-19
4.1347497e-19
4.1345128e-19
4.1344659e-19
4.1345898e-19
4.1349222e-19
4.1355853e-19
4.1405801e-19
4.1382248e-19
4.1367744e-19
4.1359014e-19
4.135409e-19
4.1351737e-19
4.1351276e-19
4.1352522e-19
4.1355853e-19
4.1362502e-19
7.6242608e-19
7.619889e-19
7.6172e-19
7.6155777e-19
7.6146542e-19
7.6141971e-19
7.6140726e-19
7.6142326e-19
7.6147203e-19
7.6157034e-19
7.619889e-19
7.6155319e-19
7.6128484e-19
7.611229e-19
7.610308e-19
7.6098544e-19
7.6097366e-19
7.609912e-19
7.6104389e-19
7.6115356e-19
7.6172e-19
7.6128484e-19
7.610169e-19
7.6085527e-19
7.6076349e-19
7.6071861e-19
7.6070768e-19
7.6072676e-19
7.6078218e-19
7.6089573e-19
7.6155777e-19
7.611229e-19
7.6085527e-19
7.6069395e-19
7.6060251e-19
7.6055809e-19
7.6054788e-19
7.6056807e-19
7.6062502e-19
7.6074007e-19
7.6146542e-19
7.610308e-19
7.6076349e-19
7.6060251e-19
7.6051143e-19
7.6046742e-19
7.6045773e-19
7.6047863e-19
7.6053639e-19
7.6065209e-19
7.6141971e-19
7.6098544e-19
7.6071861e-19
7.6055809e-19
7.6046742e-19
7.6042379e-19
7.604145e-19
7.6043583e-19
7.6049403e-19
7.6061002e-19
7.6140726e-19
7.6097366e-19
7.6070768e-19
7.6054788e-19
7.6045773e-19
7.604145e-19
7.6040553e-19
7.6042714e-19
7.6048558e-19
7.6060173e-19
7.6142326e-19
7.609912e-19
7.6072676e-19
7.6056807e-19
7.6047863e-19
7.6043583e-19
7.6042714e-19
7.6044896e-19
7.6050756e-19
7.6062381e-19
7.6147203e-19
7.6104389e-19
7.6078218e-19
7.6062502e-19
7.6053639e-19
7.6049403e-19
7.6048558e-19
7.6050756e-19
7.6056629e-19
7.6068267e-19
7.6157034e-19
7.6115356e-19
7.6089573e-19
7.6074007e-19
7.6065209e-19
7.6061002e-19
7.6060173e-19
7.6062381e-19
7.6068267e-19
7.6079937e-19
1.4158786e-18
1.415097e-18
1.4146142e-18
1.4143221e-18
1.4141555e-18
1.414073e-18
1.4140503e-18
1.4140787e-18
1.4141652e-18
1.4143382e-18
1.415097e-18
1.414318e-18
1.4138362e-18
1.4135446e-18
1.4133785e-18
1.4132965e-18
1.4132751e-18
1.4133063e-18
1.4134e-18
1.4135939e-18
1.4146142e-18
1.4138362e-18
1.4133551e-18
1.4130641e-18
1.4128986e-18
1.4128175e-18
1.4127976e-18
1.4128316e-18
1.4129303e-18
1.4131314e-18
1.4143221e-18
1.4135446e-18
1.4130641e-18
1.4127736e-18
1.4126087e-18
1.4125285e-18
1.4125099e-18
1.412546e-18
1.4126475e-18
1.4128513e-18
1.4141555e-18
1.4133785e-18
1.4128986e-18
1.4126087e-18
1.4124444e-18
1.4123649e-18
1.4123474e-18
1.4123847e-18
1.4124877e-18
1.4126927e-18
1.414073e-18
1.4132965e-18
1.4128175e-18
1.4125285e-18
1.4123649e-18
1.4122862e-18
1.4122693e-18
1.4123075e-18
1.4124113e-18
1.4126168e-18
1.4140503e-18
1.4132751e-18
1.4127976e-18
1.4125099e-18
1.4123474e-18
1.4122693e-18
1.412253e-18
1.4122917e-18
1.4123959e-18
1.4126017e-18
1.4140787e-18
1.4133063e-18
1.4128316e-18
1.412546e-18
1.4123847e-18
1.4123075e-18
1.4122917e-18
1.4123307e-18
1.4124353e-18
1.4126413e-18
1.4141652e-18
1.4134e-18
1.4129303e-18
1.4126475e-18
1.4124877e-18
1.4124113e-18
1.4123959e-18
1.4124353e-18
1.4125401e-18
1.4127463e-18
1.4143382e-18
1.4135939e-18
1.4131314e-18
1.4128513e-18
1.4126927e-18
1.4126168e-18
1.4126017e-18
1.4126413e-18
1.4127463e-18
1.412953e-18
2.6549685e-18
2.6535582e-18
2.6526834e-18
2.6521527e-18
2.6518494e-18
2.6516988e-18
2.6516573e-18
2.6517081e-18
2.6518629e-18
2.6521702e-18
2.6535582e-18
2.6521525e-18
2.6512795e-18
2.6507497e-18
2.6504473e-18
2.6502979e-18
2.6502586e-18
2.6503147e-18
2.6504829e-18
2.6508289e-18
2.6526834e-18
2.6512795e-18
2.6504078e-18
2.6498791e-18
2.6495777e-18
2.6494299e-18
2.6493935e-18
2.6494548e-18
2.6496323e-18
2.6499916e-18
2.6521527e-18
2.6507497e-18
2.6498791e-18
2.6493513e-18
2.6490511e-18
2.6489049e-18
2.6488709e-18
2.6489359e-18
2.6491186e-18
2.649483e-18
2.6518494e-18
2.6504473e-18
2.6495777e-18
2.6490511e-18
2.648752e-18
2.6486072e-18
2.648575e-18
2.6486425e-18
2.6488279e-18
2.6491945e-18
2.6516988e-18
2.6502979e-18
2.6494299e-18
2.6489049e-18
2.6486072e-18
2.6484637e-18
2.6484328e-18
2.6485017e-18
2.6486887e-18
2.6490563e-18
2.6516573e-18
2.6502586e-18
2.6493935e-18
2.6488709e-18
2.648575e-18
2.6484328e-18
2.6484031e-18
2.6484729e-18
2.6486607e-18
2.6490288e-18
2.6517081e-18
2.6503147e-18
2.6494548e-18
2.6489359e-18
2.6486425e-18
2.6485017e-18
2.6484729e-18
2.6485435e-18
2.6487318e-18
2.6491003e-18
2.6518629e-18
2.6504829e-18
2.6496323e-18
2.6491186e-18
2.6488279e-18
2.6486887e-18
2.6486607e-18
2.6487318e-18
2.6489205e-18
2.6492894e-18
2.6521702e-18
2.6508289e-18
2.6499916e-18
2.649483e-18
2.6491945e-18
2.6490563e-18
2.6490288e-18
2.6491003e-18
2.6492894e-18
2.6496593e-18
5.0269469e-18
5.0243787e-18
5.0227792e-18
5.021806e-18
5.0212489e-18
5.020972e-18
5.0208951e-18
5.0209869e-18
5.0212668e-18
5.0218178e-18
5.0243787e-18
5.0218189e-18
5.0202226e-18
5.0192511e-18
5.0186956e-18
5.0184208e-18
5.0183482e-18
5.0184498e-18
5.0187547e-18
5.0193783e-18
5.0227792e-18
5.0202226e-18
5.0186287e-18
5.0176591e-18
5.0171055e-18
5.0168338e-18
5.0167665e-18
5.0168779e-18
5.0172001e-18
5.0178485e-18
5.021806e-18
5.0192511e-18
5.0176591e-18
5.0166914e-18
5.01614e-18
5.0158711e-18
5.0158083e-18
5.0159268e-18
5.0162587e-18
5.0169167e-18
5.0212489e-18
5.0186956e-18
5.0171055e-18
5.01614e-18
5.0155908e-18
5.0153245e-18
5.0152651e-18
5.015388e-18
5.0157251e-18
5.0163872e-18
5.020972e-18
5.0184208e-18
5.0168338e-18
5.0158711e-18
5.0153245e-18
5.0150607e-18
5.0150037e-18
5.0151294e-18
5.0154692e-18
5.0161332e-18
5.0208951e-18
5.0183482e-18
5.0167665e-18
5.0158083e-18
5.0152651e-18
5.0150037e-18
5.0149488e-18
5.0150762e-18
5.0154176e-18
5.0160826e-18
5.0209869e-18
5.0184498e-18
5.0168779e-18
5.0159268e-18
5.015388e-18
5.0151294e-18
5.0150762e-18
5.015205e-18
5.0155474e-18
5.0162129e-18
5.0212668e-18
5.0187547e-18
5.0172001e-18
5.0162587e-18
5.0157251e-18
5.0154692e-18
5.0154176e-18
5.0155474e-18
5.0158905e-18
5.0165568e-18
5.0218178e-18
5.0193783e-18
5.0178485e-18
5.0169167e-18
5.0163872e-18
5.0161332e-18
5.0160826e-18
5.0162129e-18
5.0165568e-18
5.0172249e-18
9.6108837e-18
9.6061639e-18
9.6032123e-18
9.6014117e-18
9.6003791e-18
9.5998651e-18
9.5997215e-18
9.5998892e-18
9.6003997e-18
9.6013971e-18
9.6061639e-18
9.6014595e-18
9.5985138e-18
9.5967163e-18
9.5956865e-18
9.5951766e-18
9.5950411e-18
9.5952272e-18
9.595785e-18
9.5969196e-18
9.6032123e-18
9.5985138e-18
9.5955725e-18
9.5937785e-18
9.5927525e-18
9.5922482e-18
9.5921227e-18
9.5923273e-18
9.5929178e-18
9.5940992e-18
9.6014117e-18
9.5967163e-18
9.5937785e-18
9.591988e-18
9.5909659e-18
9.5904672e-18
9.5903502e-18
9.5905681e-18
9.5911769e-18
9.5923764e-18
9.6003791e-18
9.5956865e-18
9.5927525e-18
9.5909659e-18
9.5899481e-18
9.5894542e-18
9.5893435e-18
9.5895698e-18
9.5901884e-18
9.5913956e-18
9.5998651e-18
9.5951766e-18
9.5922482e-18
9.5904672e-18
9.5894542e-18
9.5889647e-18
9.5888588e-18
9.5890903e-18
9.5897141e-18
9.5909248e-18
9.5997215e-18
9.5950411e-18
9.5921227e-18
9.5903502e-18
9.5893435e-18
9.5888588e-18
9.5887567e-18
9.5889915e-18
9.5896182e-18
9.5908308e-18
9.5998892e-18
9.5952272e-18
9.5923273e-18
9.5905681e-18
9.5895698e-18
9.5890903e-18
9.5889915e-18
9.5892288e-18
9.5898573e-18
9.591071e-18
9.6003997e-18
9.595785e-18
9.5929178e-18
9.5911769e-18
9.5901884e-18
9.5897141e-18
9.5896182e-18
9.5898573e-18
9.5904874e-18
9.5917024e-18
9.6013971e-18
9.5969196e-18
9.5940992e-18
9.5923764e-18
9.5913956e-18
9.5909248e-18
9.5908308e-18
9.591071e-18
9.5917024e-18
9.5929207e-18
1.855388e-17
1.8545126e-17
1.853963e-17
1.8536268e-17
1.8534336e-17
1.8533374e-17
1.8533104e-17
1.8533413e-17
1.8534353e-17
1.8536175e-17
1.8545126e-17
1.8536401e-17
1.8530915e-17
1.8527559e-17
1.8525633e-17
1.8524678e-17
1.8524423e-17
1.8524767e-17
1.8525798e-17
1.8527882e-17
1.853963e-17
1.8530915e-17
1.8525438e-17
1.8522088e-17
1.8520169e-17
1.8519225e-17
1.8518989e-17
1.8519369e-17
1.8520462e-17
1.8522635e-17
1.8536268e-17
1.8527559e-17
1.8522088e-17
1.8518745e-17
1.8516834e-17
1.85159e-17
1.8515681e-17
1.8516085e-17
1.8517213e-17
1.851942e-17
1.8534336e-17
1.8525633e-17
1.8520169e-17
1.8516834e-17
1.851493e-17
1.8514006e-17
1.8513798e-17
1.8514219e-17
1.8515365e-17
1.8517587e-17
1.8533374e-17
1.8524678e-17
1.8519225e-17
1.85159e-17
1.8514006e-17
1.851309e-17
1.8512891e-17
1.8513322e-17
1.8514478e-17
1.8516707e-17
1.8533104e-17
1.8524423e-17
1.8518989e-17
1.8515681e-17
1.8513798e-17
1.8512891e-17
1.85127e-17
1.8513137e-17
1.8514298e-17
1.8516531e-17
1.8533413e-17
1.8524767e-17
1.8519369e-17
1.8516085e-17
1.8514219e-17
1.8513322e-17
1.8513137e-17
1.8513578e-17
1.8514743e-17
1.8516978e-17
1.8534353e-17
1.8525798e-17
1.8520462e-17
1.8517213e-17
1.8515365e-17
1.8514478e-17
1.8514298e-17
1.8514743e-17
1.8515911e-17
1.8518148e-17
1.8536175e-17
1.8527882e-17
1.8522635e-17
1.851942e-17
1.8517587e-17
1.8516707e-17
1.8516531e-17
1.8516978e-17
1.8518148e-17
1.8520391e-17
3.6166987e-17
3.6150603e-17
3.6140276e-17
3.6133942e-17
3.6130297e-17
3.6128478e-17
3.6127965e-17
3.6128541e-17
3.6130289e-17
3.613365e-17
3.6150603e-17
3.6134272e-17
3.6123965e-17
3.6117642e-17
3.6114007e-17
3.6112203e-17
3.6111719e-17
3.6112362e-17
3.6114284e-17
3.6118148e-17
3.6140276e-17
3.6123965e-17
3.6113673e-17
3.6107362e-17
3.6103741e-17
3.6101957e-17
3.610151e-17
3.6102221e-17
3.6104262e-17
3.6108298e-17
3.6133942e-17
3.6117642e-17
3.6107362e-17
3.6101064e-17
3.6097457e-17
3.6095693e-17
3.6095278e-17
3.6096036e-17
3.6098145e-17
3.6102247e-17
3.6130297e-17
3.6114007e-17
3.6103741e-17
3.6097457e-17
3.6093865e-17
3.6092119e-17
3.6091727e-17
3.6092516e-17
3.609466e-17
3.6098791e-17
3.6128478e-17
3.6112203e-17
3.6101957e-17
3.6095693e-17
3.6092119e-17
3.609039e-17
3.6090014e-17
3.6090823e-17
3.6092986e-17
3.6097129e-17
3.6127965e-17
3.6111719e-17
3.610151e-17
3.6095278e-17
3.6091727e-17
3.6090014e-17
3.6089652e-17
3.6090473e-17
3.6092647e-17
3.6096797e-17
3.6128541e-17
3.6112362e-17
3.6102221e-17
3.6096036e-17
3.6092516e-17
3.6090823e-17
3.6090473e-17
3.6091303e-17
3.6093483e-17
3.6097637e-17
3.6130289e-17
3.6114284e-17
3.6104262e-17
3.6098145e-17
3.609466e-17
3.6092986e-17
3.6092647e-17
3.6093483e-17
3.6095669e-17
3.6099828e-17
3.613365e-17
3.6118148e-17
3.6108298e-17
3.6102247e-17
3.6098791e-17
3.6097129e-17
3.6096797e-17
3.6097637e-17
3.6099828e-17
3.6103997e-17
7.1184454e-17
7.115351e-17
7.1133929e-17
7.1121888e-17
7.1114947e-17
7.111148e-17
7.1110498e-17
7.111158e-17
7.1114862e-17
7.1121118e-17
7.115351e-17
7.1122665e-17
7.1103122e-17
7.1091101e-17
7.108418e-17
7.1080741e-17
7.1079816e-17
7.1081029e-17
7.1084647e-17
7.109188e-17
7.1133929e-17
7.1103122e-17
7.1083607e-17
7.107161e-17
7.1064715e-17
7.1061316e-17
7.1060462e-17
7.1061805e-17
7.1065656e-17
7.1073222e-17
7.1121888e-17
7.1091101e-17
7.107161e-17
7.1059637e-17
7.105277e-17
7.104941e-17
7.1048616e-17
7.1050053e-17
7.1054034e-17
7.1061729e-17
7.1114947e-17
7.108418e-17
7.1064715e-17
7.105277e-17
7.1045931e-17
7.1042605e-17
7.1041856e-17
7.1043353e-17
7.1047403e-17
7.1055153e-17
7.111148e-17
7.1080741e-17
7.1061316e-17
7.104941e-17
7.1042605e-17
7.1039311e-17
7.1038595e-17
7.1040129e-17
7.1044215e-17
7.105199e-17
7.1110498e-17
7.1079816e-17
7.1060462e-17
7.1048616e-17
7.1041856e-17
7.1038595e-17
7.1037906e-17
7.1039463e-17
7.104357e-17
7.1051358e-17
7.111158e-17
7.1081029e-17
7.1061805e-17
7.1050053e-17
7.1043353e-17
7.1040129e-17
7.1039463e-17
7.1041038e-17
7.1045158e-17
7.1052954e-17
7.1114862e-17
7.1084647e-17
7.1065656e-17
7.1054034e-17
7.1047403e-17
7.1044215e-17
7.104357e-17
7.1045158e-17
7.1049287e-17
7.1057092e-17
7.1121118e-17
7.109188e-17
7.1073222e-17
7.1061729e-17
7.1055153e-17
7.105199e-17
7.1051358e-17
7.1052954e-17
7.1057092e-17
7.1064917e-17
1.4146114e-16
1.4140217e-16
1.4136471e-16
1.4134162e-16
1.4132828e-16
1.4132161e-16
1.4131972e-16
1.4132177e-16
1.4132799e-16
1.4133975e-16
1.4140217e-16
1.4134339e-16
1.41306e-16
1.4128294e-16
1.4126965e-16
1.4126303e-16
1.4126125e-16
1.4126356e-16
1.4127044e-16
1.4128411e-16
1.4136471e-16
1.41306e-16
1.4126866e-16
1.4124565e-16
1.4123241e-16
1.4122587e-16
1.4122423e-16
1.4122679e-16
1.4123412e-16
1.4124845e-16
1.4134162e-16
1.4128294e-16
1.4124565e-16
1.4122269e-16
1.412095e-16
1.4120304e-16
1.4120151e-16
1.4120426e-16
1.4121185e-16
1.4122642e-16
1.4132828e-16
1.4126965e-16
1.4123241e-16
1.412095e-16
1.4119636e-16
1.4118997e-16
1.4118853e-16
1.411914e-16
1.4119912e-16
1.412138e-16
1.4132161e-16
1.4126303e-16
1.4122587e-16
1.4120304e-16
1.4118997e-16
1.4118364e-16
1.4118227e-16
1.411852e-16
1.41193e-16
1.4120773e-16
1.4131972e-16
1.4126125e-16
1.4122423e-16
1.4120151e-16
1.4118853e-16
1.4118227e-16
1.4118094e-16
1.4118393e-16
1.4119176e-16
1.4120651e-16
1.4132177e-16
1.4126356e-16
1.4122679e-16
1.4120426e-16
1.411914e-16
1.411852e-16
1.4118393e-16
1.4118694e-16
1.411948e-16
1.4120957e-16
1.4132799e-16
1.4127044e-16
1.4123412e-16
1.4121185e-16
1.4119912e-16
1.41193e-16
1.4119176e-16
1.411948e-16
1.4120268e-16
1.4121747e-16
1.4133975e-16
1.4128411e-16
1.4124845e-16
1.4122642e-16
1.412138e-16
1.4120773e-16
1.4120651e-16
1.4120957e-16
1.4121747e-16
1.4123229e-16