/*--------------------------------*- C++ -*----------------------------------*\
| =========                 |                                                 |
| \\      /  F ield         | OpenFOAM: The Open Source CFD Toolbox           |
|  \\    /   O peration     | Version:  dev                                   |
|   \\  /    A nd           | Web:      www.OpenFOAM.org                      |
|    \\/     M anipulation  |                                                 |
\*---------------------------------------------------------------------------*/
FoamFile
{
    version     2.0;
    format      ascii;
    class       volScalarField;
    location    "91.995";
    object      A_0;
}
// * * * * * * * * * * * * * * * * * * * * * * * * * * * * * * * * * * * * * //

dimensions      [0 0 0 0 1 0 0];

internalField   nonuniform List<scalar> 
10000
(
3.6896524e-22
3.6863992e-22
3.6845895e-22
3.6835372e-22
3.6829513e-22
3.6826669e-22
3.682597e-22
3.68272e-22
3.683088e-22
3.6838092e-22
3.6863992e-22
3.6831583e-22
3.681353e-22
3.6803028e-22
3.6797186e-22
3.6794362e-22
3.6793699e-22
3.6795011e-22
3.6798896e-22
3.6806694e-22
3.6845895e-22
3.681353e-22
3.6795505e-22
3.6785024e-22
3.67792e-22
3.6776403e-22
3.6775785e-22
3.6777181e-22
3.6781211e-22
3.6789212e-22
3.6835372e-22
3.6803028e-22
3.6785024e-22
3.6774561e-22
3.6768757e-22
3.6765985e-22
3.6765407e-22
3.6766862e-22
3.6770974e-22
3.6779055e-22
3.6829513e-22
3.6797186e-22
3.67792e-22
3.6768757e-22
3.6762973e-22
3.6760224e-22
3.6759674e-22
3.6761167e-22
3.6765324e-22
3.6773438e-22
3.6826669e-22
3.6794362e-22
3.6776403e-22
3.6765985e-22
3.6760224e-22
3.6757495e-22
3.6756967e-22
3.6758484e-22
3.6762664e-22
3.6770794e-22
3.682597e-22
3.6793699e-22
3.6775785e-22
3.6765407e-22
3.6759674e-22
3.6756967e-22
3.6756457e-22
3.6757989e-22
3.6762182e-22
3.6770321e-22
3.68272e-22
3.6795011e-22
3.6777181e-22
3.6766862e-22
3.6761167e-22
3.6758484e-22
3.6757989e-22
3.6759533e-22
3.6763735e-22
3.677188e-22
3.683088e-22
3.6798896e-22
3.6781211e-22
3.6770974e-22
3.6765324e-22
3.6762664e-22
3.6762182e-22
3.6763735e-22
3.6767946e-22
3.67761e-22
3.6838092e-22
3.6806694e-22
3.6789212e-22
3.6779055e-22
3.6773438e-22
3.6770794e-22
3.6770321e-22
3.677188e-22
3.67761e-22
3.6784277e-22
1.2091168e-21
1.2080924e-21
1.2075055e-21
1.2071633e-21
1.2069727e-21
1.2068801e-21
1.2068572e-21
1.2068971e-21
1.2070166e-21
1.2072592e-21
1.2080924e-21
1.2070719e-21
1.2064863e-21
1.2061448e-21
1.2059547e-21
1.2058628e-21
1.2058411e-21
1.2058836e-21
1.2060099e-21
1.2062717e-21
1.2075055e-21
1.2064863e-21
1.2059016e-21
1.2055608e-21
1.2053714e-21
1.2052803e-21
1.2052601e-21
1.2053053e-21
1.2054364e-21
1.2057048e-21
1.2071633e-21
1.2061448e-21
1.2055608e-21
1.2052207e-21
1.2050318e-21
1.2049416e-21
1.2049227e-21
1.2049698e-21
1.2051036e-21
1.2053746e-21
1.2069727e-21
1.2059547e-21
1.2053714e-21
1.2050318e-21
1.2048436e-21
1.2047541e-21
1.2047361e-21
1.2047846e-21
1.2049197e-21
1.2051919e-21
1.2068801e-21
1.2058628e-21
1.2052803e-21
1.2049416e-21
1.2047541e-21
1.2046653e-21
1.204648e-21
1.2046972e-21
1.2048331e-21
1.2051058e-21
1.2068572e-21
1.2058411e-21
1.2052601e-21
1.2049227e-21
1.2047361e-21
1.204648e-21
1.2046313e-21
1.204681e-21
1.2048174e-21
1.2050904e-21
1.2068971e-21
1.2058836e-21
1.2053053e-21
1.2049698e-21
1.2047846e-21
1.2046972e-21
1.204681e-21
1.2047311e-21
1.2048678e-21
1.205141e-21
1.2070166e-21
1.2060099e-21
1.2054364e-21
1.2051036e-21
1.2049197e-21
1.2048331e-21
1.2048174e-21
1.2048678e-21
1.2050047e-21
1.2052782e-21
1.2072592e-21
1.2062717e-21
1.2057048e-21
1.2053746e-21
1.2051919e-21
1.2051058e-21
1.2050904e-21
1.205141e-21
1.2052782e-21
1.2055525e-21
2.390182e-21
2.388225e-21
2.3870855e-21
2.3864192e-21
2.3860474e-21
2.3858666e-21
2.3858216e-21
2.3858986e-21
2.3861305e-21
2.3866165e-21
2.388225e-21
2.3862751e-21
2.3851382e-21
2.3844732e-21
2.3841024e-21
2.3839229e-21
2.3838803e-21
2.3839625e-21
2.3842078e-21
2.3847318e-21
2.3870855e-21
2.3851382e-21
2.3840032e-21
2.3833394e-21
2.3829699e-21
2.3827921e-21
2.3827524e-21
2.38284e-21
2.3830945e-21
2.3836317e-21
2.3864192e-21
2.3844732e-21
2.3833394e-21
2.3826769e-21
2.3823086e-21
2.3821324e-21
2.3820953e-21
2.3821867e-21
2.3824465e-21
2.3829887e-21
2.3860474e-21
2.3841024e-21
2.3829699e-21
2.3823086e-21
2.3819415e-21
2.3817668e-21
2.3817316e-21
2.3818254e-21
2.382088e-21
2.3826325e-21
2.3858666e-21
2.3839229e-21
2.3827921e-21
2.3821324e-21
2.3817668e-21
2.3815934e-21
2.3815595e-21
2.3816549e-21
2.381919e-21
2.3824645e-21
2.3858216e-21
2.3838803e-21
2.3827524e-21
2.3820953e-21
2.3817316e-21
2.3815595e-21
2.3815268e-21
2.3816231e-21
2.3818881e-21
2.3824341e-21
2.3858986e-21
2.3839625e-21
2.38284e-21
2.3821867e-21
2.3818254e-21
2.3816549e-21
2.3816231e-21
2.3817202e-21
2.3819858e-21
2.3825322e-21
2.3861305e-21
2.3842078e-21
2.3830945e-21
2.3824465e-21
2.382088e-21
2.381919e-21
2.3818881e-21
2.3819858e-21
2.3822519e-21
2.3827989e-21
2.3866165e-21
2.3847318e-21
2.3836317e-21
2.3829887e-21
2.3826325e-21
2.3824645e-21
2.3824341e-21
2.3825322e-21
2.3827989e-21
2.3833475e-21
4.2599302e-21
4.256558e-21
4.2545743e-21
4.2534104e-21
4.2527598e-21
4.2524429e-21
4.2523635e-21
4.2524964e-21
4.2528981e-21
4.2537504e-21
4.256558e-21
4.2531979e-21
4.2512187e-21
4.2500571e-21
4.2494083e-21
4.2490936e-21
4.2490184e-21
4.2491605e-21
4.2495859e-21
4.2505057e-21
4.2545743e-21
4.2512187e-21
4.2492427e-21
4.2480833e-21
4.2474366e-21
4.247125e-21
4.2470549e-21
4.2472065e-21
4.2476484e-21
4.2485915e-21
4.2534104e-21
4.2500571e-21
4.2480833e-21
4.2469259e-21
4.2462815e-21
4.2459728e-21
4.2459071e-21
4.2460655e-21
4.2465167e-21
4.2474689e-21
4.2527598e-21
4.2494083e-21
4.2474366e-21
4.2462815e-21
4.2456392e-21
4.2453331e-21
4.2452708e-21
4.2454335e-21
4.2458897e-21
4.2468458e-21
4.2524429e-21
4.2490936e-21
4.247125e-21
4.2459728e-21
4.2453331e-21
4.2450293e-21
4.2449694e-21
4.2451348e-21
4.2455937e-21
4.2465516e-21
4.2523635e-21
4.2490184e-21
4.2470549e-21
4.2459071e-21
4.2452708e-21
4.2449694e-21
4.2449115e-21
4.2450787e-21
4.245539e-21
4.2464979e-21
4.2524964e-21
4.2491605e-21
4.2472065e-21
4.2460655e-21
4.2454335e-21
4.2451348e-21
4.2450787e-21
4.2452471e-21
4.2457085e-21
4.2466681e-21
4.2528981e-21
4.2495859e-21
4.2476484e-21
4.2465167e-21
4.2458897e-21
4.2455937e-21
4.245539e-21
4.2457085e-21
4.2461708e-21
4.2471314e-21
4.2537504e-21
4.2505057e-21
4.2485915e-21
4.2474689e-21
4.2468458e-21
4.2465516e-21
4.2464979e-21
4.2466681e-21
4.2471314e-21
4.2480949e-21
7.3969414e-21
7.3912817e-21
7.3879285e-21
7.3859543e-21
7.3848487e-21
7.3843092e-21
7.3841727e-21
7.3843948e-21
7.3850679e-21
7.3864983e-21
7.3912817e-21
7.3856421e-21
7.3822964e-21
7.3803261e-21
7.3792234e-21
7.3786879e-21
7.3785585e-21
7.3787966e-21
7.3795105e-21
7.3810578e-21
7.3879285e-21
7.3822964e-21
7.378956e-21
7.3769894e-21
7.3758905e-21
7.37536e-21
7.3752396e-21
7.375494e-21
7.3762364e-21
7.3778238e-21
7.3859543e-21
7.3803261e-21
7.3769894e-21
7.3750264e-21
7.3739312e-21
7.3734058e-21
7.373293e-21
7.3735591e-21
7.3743176e-21
7.3759207e-21
7.3848487e-21
7.3792234e-21
7.3758905e-21
7.3739312e-21
7.3728398e-21
7.3723188e-21
7.3722117e-21
7.3724853e-21
7.3732524e-21
7.3748622e-21
7.3843092e-21
7.3786879e-21
7.37536e-21
7.3734058e-21
7.3723188e-21
7.3718018e-21
7.3716989e-21
7.3719771e-21
7.3727488e-21
7.3743617e-21
7.3841727e-21
7.3785585e-21
7.3752396e-21
7.373293e-21
7.3722117e-21
7.3716989e-21
7.3715994e-21
7.3718806e-21
7.3726549e-21
7.3742695e-21
7.3843948e-21
7.3787966e-21
7.375494e-21
7.3735591e-21
7.3724853e-21
7.3719771e-21
7.3718806e-21
7.3721641e-21
7.3729401e-21
7.3745559e-21
7.3850679e-21
7.3795105e-21
7.3762364e-21
7.3743176e-21
7.3732524e-21
7.3727488e-21
7.3726549e-21
7.3729401e-21
7.3737178e-21
7.3753352e-21
7.3864983e-21
7.3810578e-21
7.3778238e-21
7.3759207e-21
7.3748622e-21
7.3743617e-21
7.3742695e-21
7.3745559e-21
7.3753352e-21
7.3769576e-21
1.281043e-20
1.280096e-20
1.2795318e-20
1.2791985e-20
1.2790114e-20
1.27892e-20
1.2788966e-20
1.2789335e-20
1.2790455e-20
1.2792827e-20
1.280096e-20
1.2791524e-20
1.2785893e-20
1.2782567e-20
1.2780702e-20
1.2779794e-20
1.2779572e-20
1.2779969e-20
1.2781159e-20
1.2783732e-20
1.2795318e-20
1.2785893e-20
1.2780272e-20
1.2776952e-20
1.2775093e-20
1.2774194e-20
1.2773988e-20
1.2774412e-20
1.2775651e-20
1.2778294e-20
1.2791985e-20
1.2782567e-20
1.2776952e-20
1.2773638e-20
1.2771785e-20
1.2770895e-20
1.2770702e-20
1.2771146e-20
1.2772413e-20
1.2775082e-20
1.2790114e-20
1.2780702e-20
1.2775093e-20
1.2771785e-20
1.2769939e-20
1.2769056e-20
1.2768873e-20
1.276933e-20
1.2770612e-20
1.2773293e-20
1.27892e-20
1.2779794e-20
1.2774194e-20
1.2770895e-20
1.2769056e-20
1.276818e-20
1.2768004e-20
1.276847e-20
1.2769759e-20
1.2772445e-20
1.2788966e-20
1.2779572e-20
1.2773988e-20
1.2770702e-20
1.2768873e-20
1.2768004e-20
1.2767834e-20
1.2768304e-20
1.2769598e-20
1.2772287e-20
1.2789335e-20
1.2779969e-20
1.2774412e-20
1.2771146e-20
1.276933e-20
1.276847e-20
1.2768304e-20
1.2768779e-20
1.2770076e-20
1.2772767e-20
1.2790455e-20
1.2781159e-20
1.2775651e-20
1.2772413e-20
1.2770612e-20
1.2769759e-20
1.2769598e-20
1.2770076e-20
1.2771375e-20
1.2774069e-20
1.2792827e-20
1.2783732e-20
1.2778294e-20
1.2775082e-20
1.2773293e-20
1.2772445e-20
1.2772287e-20
1.2772767e-20
1.2774069e-20
1.2776771e-20
2.2303451e-20
2.2287528e-20
2.2277993e-20
2.2272344e-20
2.2269166e-20
2.226761e-20
2.2267209e-20
2.2267824e-20
2.2269693e-20
2.2273628e-20
2.2287528e-20
2.2271661e-20
2.2262147e-20
2.2256508e-20
2.2253339e-20
2.2251795e-20
2.2251414e-20
2.2252077e-20
2.2254067e-20
2.2258351e-20
2.2277993e-20
2.2262147e-20
2.2252648e-20
2.2247019e-20
2.2243861e-20
2.2242332e-20
2.2241978e-20
2.2242689e-20
2.2244764e-20
2.2249167e-20
2.2272344e-20
2.2256508e-20
2.2247019e-20
2.2241401e-20
2.2238254e-20
2.223674e-20
2.2236408e-20
2.2237154e-20
2.2239276e-20
2.2243726e-20
2.2269166e-20
2.2253339e-20
2.2243861e-20
2.2238254e-20
2.2235119e-20
2.2233617e-20
2.2233302e-20
2.223407e-20
2.2236218e-20
2.2240688e-20
2.226761e-20
2.2251795e-20
2.2242332e-20
2.223674e-20
2.2233617e-20
2.2232127e-20
2.2231825e-20
2.2232606e-20
2.2234768e-20
2.2239247e-20
2.2267209e-20
2.2251414e-20
2.2241978e-20
2.2236408e-20
2.2233302e-20
2.2231825e-20
2.2231532e-20
2.2232322e-20
2.2234492e-20
2.2238976e-20
2.2267824e-20
2.2252077e-20
2.2242689e-20
2.2237154e-20
2.223407e-20
2.2232606e-20
2.2232322e-20
2.2233119e-20
2.2235294e-20
2.2239781e-20
2.2269693e-20
2.2254067e-20
2.2244764e-20
2.2239276e-20
2.2236218e-20
2.2234768e-20
2.2234492e-20
2.2235294e-20
2.2237473e-20
2.2241965e-20
2.2273628e-20
2.2258351e-20
2.2249167e-20
2.2243726e-20
2.2240688e-20
2.2239247e-20
2.2238976e-20
2.2239781e-20
2.2241965e-20
2.2246471e-20
3.9144311e-20
3.9117334e-20
3.9101104e-20
3.9091457e-20
3.9086021e-20
3.9083354e-20
3.9082659e-20
3.9083691e-20
3.9086831e-20
3.9093398e-20
3.9117334e-20
3.9090451e-20
3.9074256e-20
3.9064627e-20
3.9059206e-20
3.9056558e-20
3.9055899e-20
3.9057015e-20
3.9060366e-20
3.9067541e-20
3.9101104e-20
3.9074256e-20
3.9058086e-20
3.9048476e-20
3.9043073e-20
3.9040451e-20
3.9039838e-20
3.9041038e-20
3.9044536e-20
3.905192e-20
3.9091457e-20
3.9064627e-20
3.9048476e-20
3.9038883e-20
3.9033499e-20
3.9030904e-20
3.903033e-20
3.9031589e-20
3.9035171e-20
3.9042635e-20
3.9086021e-20
3.9059206e-20
3.9043073e-20
3.9033499e-20
3.9028135e-20
3.9025562e-20
3.9025017e-20
3.9026315e-20
3.902994e-20
3.903744e-20
3.9083354e-20
3.9056558e-20
3.9040451e-20
3.9030904e-20
3.9025562e-20
3.9023009e-20
3.9022486e-20
3.9023807e-20
3.9027457e-20
3.9034972e-20
3.9082659e-20
3.9055899e-20
3.9039838e-20
3.903033e-20
3.9025017e-20
3.9022486e-20
3.902198e-20
3.9023317e-20
3.902698e-20
3.9034503e-20
3.9083691e-20
3.9057015e-20
3.9041038e-20
3.9031589e-20
3.9026315e-20
3.9023807e-20
3.9023317e-20
3.9024665e-20
3.9028337e-20
3.9035867e-20
3.9086831e-20
3.9060366e-20
3.9044536e-20
3.9035171e-20
3.902994e-20
3.9027457e-20
3.902698e-20
3.9028337e-20
3.9032016e-20
3.9039554e-20
3.9093398e-20
3.9067541e-20
3.905192e-20
3.9042635e-20
3.903744e-20
3.9034972e-20
3.9034503e-20
3.9035867e-20
3.9039554e-20
3.9047114e-20
6.9322353e-20
6.9276254e-20
6.9248393e-20
6.9231784e-20
6.9222405e-20
6.9217795e-20
6.9216581e-20
6.921833e-20
6.9223649e-20
6.9234695e-20
6.9276254e-20
6.9230314e-20
6.9202513e-20
6.9185935e-20
6.9176581e-20
6.9172005e-20
6.9170856e-20
6.917275e-20
6.9178439e-20
6.9190555e-20
6.9248393e-20
6.9202513e-20
6.9174755e-20
6.9158209e-20
6.9148887e-20
6.9144357e-20
6.9143288e-20
6.9145329e-20
6.9151277e-20
6.9163759e-20
6.9231784e-20
6.9185935e-20
6.9158209e-20
6.9141693e-20
6.9132404e-20
6.9127919e-20
6.9126918e-20
6.9129064e-20
6.9135158e-20
6.9147782e-20
6.9222405e-20
6.9176581e-20
6.9148887e-20
6.9132404e-20
6.912315e-20
6.9118704e-20
6.9117754e-20
6.9119967e-20
6.9126139e-20
6.9138824e-20
6.9217795e-20
6.9172005e-20
6.9144357e-20
6.9127919e-20
6.9118704e-20
6.9114294e-20
6.9113382e-20
6.9115637e-20
6.912185e-20
6.9134563e-20
6.9216581e-20
6.9170856e-20
6.9143288e-20
6.9126918e-20
6.9117754e-20
6.9113382e-20
6.91125e-20
6.9114782e-20
6.9121018e-20
6.9133746e-20
6.921833e-20
6.917275e-20
6.9145329e-20
6.9129064e-20
6.9119967e-20
6.9115637e-20
6.9114782e-20
6.9117084e-20
6.9123336e-20
6.9136074e-20
6.9223649e-20
6.9178439e-20
6.9151277e-20
6.9135158e-20
6.9126139e-20
6.912185e-20
6.9121018e-20
6.9123336e-20
6.9129601e-20
6.9142352e-20
6.9234695e-20
6.9190555e-20
6.9163759e-20
6.9147782e-20
6.9138824e-20
6.9134563e-20
6.9133746e-20
6.9136074e-20
6.9142352e-20
6.9155141e-20
1.2391986e-19
1.2384037e-19
1.2379213e-19
1.2376327e-19
1.2374695e-19
1.2373891e-19
1.2373678e-19
1.2373976e-19
1.2374885e-19
1.237676e-19
1.2384037e-19
1.2376117e-19
1.2371302e-19
1.2368422e-19
1.2366794e-19
1.2365996e-19
1.2365794e-19
1.2366119e-19
1.2367093e-19
1.2369157e-19
1.2379213e-19
1.2371302e-19
1.2366495e-19
1.236362e-19
1.2361998e-19
1.2361208e-19
1.236102e-19
1.2361371e-19
1.2362391e-19
1.236452e-19
1.2376327e-19
1.2368422e-19
1.236362e-19
1.2360752e-19
1.2359135e-19
1.2358353e-19
1.2358177e-19
1.2358546e-19
1.2359593e-19
1.2361747e-19
1.2374695e-19
1.2366794e-19
1.2361998e-19
1.2359135e-19
1.2357524e-19
1.235675e-19
1.2356583e-19
1.2356964e-19
1.2358024e-19
1.2360188e-19
1.2373891e-19
1.2365996e-19
1.2361208e-19
1.2358353e-19
1.235675e-19
1.2355981e-19
1.2355821e-19
1.2356209e-19
1.2357276e-19
1.2359446e-19
1.2373678e-19
1.2365794e-19
1.236102e-19
1.2358177e-19
1.2356583e-19
1.2355821e-19
1.2355666e-19
1.2356059e-19
1.2357131e-19
1.2359303e-19
1.2373976e-19
1.2366119e-19
1.2361371e-19
1.2358546e-19
1.2356964e-19
1.2356209e-19
1.2356059e-19
1.2356456e-19
1.235753e-19
1.2359704e-19
1.2374885e-19
1.2367093e-19
1.2362391e-19
1.2359593e-19
1.2358024e-19
1.2357276e-19
1.2357131e-19
1.235753e-19
1.2358606e-19
1.2360783e-19
1.237676e-19
1.2369157e-19
1.236452e-19
1.2361747e-19
1.2360188e-19
1.2359446e-19
1.2359303e-19
1.2359704e-19
1.2360783e-19
1.2362966e-19
2.2363303e-19
2.2349475e-19
2.2341044e-19
2.2335987e-19
2.233312e-19
2.2331707e-19
2.2331328e-19
2.2331843e-19
2.2333411e-19
2.2336619e-19
2.2349475e-19
2.2335694e-19
2.232728e-19
2.2322233e-19
2.2319374e-19
2.2317971e-19
2.2317612e-19
2.2318173e-19
2.2319858e-19
2.2323407e-19
2.2341044e-19
2.232728e-19
2.2318879e-19
2.2313842e-19
2.2310993e-19
2.2309604e-19
2.2309271e-19
2.2309878e-19
2.2311645e-19
2.231531e-19
2.2335987e-19
2.2322233e-19
2.2313842e-19
2.2308814e-19
2.2305975e-19
2.23046e-19
2.2304288e-19
2.2304929e-19
2.2306742e-19
2.2310452e-19
2.233312e-19
2.2319374e-19
2.2310993e-19
2.2305975e-19
2.2303147e-19
2.2301784e-19
2.2301489e-19
2.230215e-19
2.2303988e-19
2.2307717e-19
2.2331707e-19
2.2317971e-19
2.2309604e-19
2.23046e-19
2.2301784e-19
2.2300433e-19
2.2300149e-19
2.2300824e-19
2.2302675e-19
2.2306413e-19
2.2331328e-19
2.2317612e-19
2.2309271e-19
2.2304288e-19
2.2301489e-19
2.2300149e-19
2.2299875e-19
2.2300559e-19
2.2302417e-19
2.2306159e-19
2.2331843e-19
2.2318173e-19
2.2309878e-19
2.2304929e-19
2.230215e-19
2.2300824e-19
2.2300559e-19
2.2301248e-19
2.2303111e-19
2.2306857e-19
2.2333411e-19
2.2319858e-19
2.2311645e-19
2.2306742e-19
2.2303988e-19
2.2302675e-19
2.2302417e-19
2.2303111e-19
2.2304978e-19
2.2308728e-19
2.2336619e-19
2.2323407e-19
2.231531e-19
2.2310452e-19
2.2307717e-19
2.2306413e-19
2.2306159e-19
2.2306857e-19
2.2308728e-19
2.2312488e-19
4.0746609e-19
4.0722329e-19
4.0707461e-19
4.0698519e-19
4.0693439e-19
4.0690929e-19
4.0690252e-19
4.0691148e-19
4.0693877e-19
4.0699422e-19
4.0722329e-19
4.0698132e-19
4.0683295e-19
4.0674369e-19
4.0669302e-19
4.0666812e-19
4.0666171e-19
4.066715e-19
4.0670091e-19
4.0676249e-19
4.0707461e-19
4.0683295e-19
4.0668481e-19
4.0659571e-19
4.0654523e-19
4.0652058e-19
4.0651462e-19
4.0652525e-19
4.0655614e-19
4.0661981e-19
4.0698519e-19
4.0674369e-19
4.0659571e-19
4.0650679e-19
4.0645649e-19
4.0643209e-19
4.0642652e-19
4.0643775e-19
4.0646947e-19
4.0653396e-19
4.0693439e-19
4.0669302e-19
4.0654523e-19
4.0645649e-19
4.0640638e-19
4.0638221e-19
4.0637693e-19
4.0638853e-19
4.0642069e-19
4.0648553e-19
4.0690929e-19
4.0666812e-19
4.0652058e-19
4.0643209e-19
4.0638221e-19
4.0635824e-19
4.0635317e-19
4.0636501e-19
4.0639741e-19
4.0646241e-19
4.0690252e-19
4.0666171e-19
4.0651462e-19
4.0642652e-19
4.0637693e-19
4.0635317e-19
4.0634827e-19
4.0636027e-19
4.063928e-19
4.0645788e-19
4.0691148e-19
4.066715e-19
4.0652525e-19
4.0643775e-19
4.0638853e-19
4.0636501e-19
4.0636027e-19
4.0637238e-19
4.0640499e-19
4.0647013e-19
4.0693877e-19
4.0670091e-19
4.0655614e-19
4.0646947e-19
4.0642069e-19
4.0639741e-19
4.063928e-19
4.0640499e-19
4.0643768e-19
4.0650288e-19
4.0699422e-19
4.0676249e-19
4.0661981e-19
4.0653396e-19
4.0648553e-19
4.0646241e-19
4.0645788e-19
4.0647013e-19
4.0650288e-19
4.0656827e-19
7.4959781e-19
7.4916759e-19
7.48903e-19
7.4874341e-19
7.4865258e-19
7.4860763e-19
7.485954e-19
7.4861114e-19
7.4865911e-19
7.487558e-19
7.4916759e-19
7.4873881e-19
7.4847478e-19
7.4831547e-19
7.4822488e-19
7.4818028e-19
7.4816871e-19
7.4818596e-19
7.4823779e-19
7.4834566e-19
7.48903e-19
7.4847478e-19
7.4821114e-19
7.4805214e-19
7.4796187e-19
7.4791774e-19
7.47907e-19
7.4792577e-19
7.4798028e-19
7.4809197e-19
7.4874341e-19
7.4831547e-19
7.4805214e-19
7.4789343e-19
7.478035e-19
7.4775983e-19
7.4774979e-19
7.4776965e-19
7.4782567e-19
7.4793884e-19
7.4865258e-19
7.4822488e-19
7.4796187e-19
7.478035e-19
7.4771391e-19
7.4767064e-19
7.4766113e-19
7.4768168e-19
7.477385e-19
7.4785231e-19
7.4860763e-19
7.4818028e-19
7.4791774e-19
7.4775983e-19
7.4767064e-19
7.4762774e-19
7.4761861e-19
7.476396e-19
7.4769684e-19
7.4781094e-19
7.485954e-19
7.4816871e-19
7.47907e-19
7.4774979e-19
7.4766113e-19
7.4761861e-19
7.476098e-19
7.4763106e-19
7.4768855e-19
7.4780279e-19
7.4861114e-19
7.4818596e-19
7.4792577e-19
7.4776965e-19
7.4768168e-19
7.476396e-19
7.4763106e-19
7.4765252e-19
7.4771017e-19
7.4782451e-19
7.4865911e-19
7.4823779e-19
7.4798028e-19
7.4782567e-19
7.477385e-19
7.4769684e-19
7.4768855e-19
7.4771017e-19
7.4776794e-19
7.4788241e-19
7.487558e-19
7.4834566e-19
7.4809197e-19
7.4793884e-19
7.4785231e-19
7.4781094e-19
7.4780279e-19
7.4782451e-19
7.4788241e-19
7.479972e-19
1.3923912e-18
1.3916218e-18
1.3911467e-18
1.3908592e-18
1.3906953e-18
1.3906141e-18
1.3905919e-18
1.3906198e-18
1.3907049e-18
1.3908751e-18
1.3916218e-18
1.390855e-18
1.3903808e-18
1.3900939e-18
1.3899305e-18
1.3898499e-18
1.3898288e-18
1.3898595e-18
1.3899517e-18
1.3901425e-18
1.3911467e-18
1.3903808e-18
1.3899074e-18
1.389621e-18
1.3894581e-18
1.3893784e-18
1.3893589e-18
1.3893924e-18
1.3894895e-18
1.3896873e-18
1.3908592e-18
1.3900939e-18
1.389621e-18
1.3893352e-18
1.3891729e-18
1.389094e-18
1.3890758e-18
1.3891113e-18
1.3892112e-18
1.3894117e-18
1.3906953e-18
1.3899305e-18
1.3894581e-18
1.3891729e-18
1.3890113e-18
1.3889332e-18
1.3889159e-18
1.3889526e-18
1.389054e-18
1.3892556e-18
1.3906141e-18
1.3898499e-18
1.3893784e-18
1.389094e-18
1.3889332e-18
1.3888557e-18
1.3888391e-18
1.3888766e-18
1.3889788e-18
1.389181e-18
1.3905919e-18
1.3898288e-18
1.3893589e-18
1.3890758e-18
1.3889159e-18
1.3888391e-18
1.3888231e-18
1.3888612e-18
1.3889637e-18
1.3891662e-18
1.3906198e-18
1.3898595e-18
1.3893924e-18
1.3891113e-18
1.3889526e-18
1.3888766e-18
1.3888612e-18
1.3888996e-18
1.3890024e-18
1.3892051e-18
1.3907049e-18
1.3899517e-18
1.3894895e-18
1.3892112e-18
1.389054e-18
1.3889788e-18
1.3889637e-18
1.3890024e-18
1.3891055e-18
1.3893084e-18
1.3908751e-18
1.3901425e-18
1.3896873e-18
1.3894117e-18
1.3892556e-18
1.389181e-18
1.3891662e-18
1.3892051e-18
1.3893084e-18
1.3895118e-18
2.6115649e-18
2.6101764e-18
2.6093152e-18
2.6087928e-18
2.6084944e-18
2.6083463e-18
2.6083055e-18
2.6083555e-18
2.6085078e-18
2.6088102e-18
2.6101764e-18
2.6087924e-18
2.607933e-18
2.6074116e-18
2.607114e-18
2.606967e-18
2.6069284e-18
2.6069836e-18
2.6071491e-18
2.6074897e-18
2.6093152e-18
2.607933e-18
2.6070749e-18
2.6065545e-18
2.6062579e-18
2.6061126e-18
2.6060768e-18
2.6061371e-18
2.6063117e-18
2.6066653e-18
2.6087928e-18
2.6074116e-18
2.6065545e-18
2.606035e-18
2.6057396e-18
2.6055958e-18
2.6055624e-18
2.6056264e-18
2.6058062e-18
2.6061648e-18
2.6084944e-18
2.607114e-18
2.6062579e-18
2.6057396e-18
2.6054453e-18
2.6053029e-18
2.6052712e-18
2.6053376e-18
2.6055201e-18
2.6058809e-18
2.6083463e-18
2.606967e-18
2.6061126e-18
2.6055958e-18
2.6053029e-18
2.6051617e-18
2.6051314e-18
2.6051992e-18
2.6053831e-18
2.6057449e-18
2.6083055e-18
2.6069284e-18
2.6060768e-18
2.6055624e-18
2.6052712e-18
2.6051314e-18
2.6051021e-18
2.6051708e-18
2.6053556e-18
2.6057179e-18
2.6083555e-18
2.6069836e-18
2.6061371e-18
2.6056264e-18
2.6053376e-18
2.6051992e-18
2.6051708e-18
2.6052403e-18
2.6054256e-18
2.6057882e-18
2.6085078e-18
2.6071491e-18
2.6063117e-18
2.6058062e-18
2.6055201e-18
2.6053831e-18
2.6053556e-18
2.6054256e-18
2.6056113e-18
2.6059743e-18
2.6088102e-18
2.6074897e-18
2.6066653e-18
2.6061648e-18
2.6058809e-18
2.6057449e-18
2.6057179e-18
2.6057882e-18
2.6059743e-18
2.6063384e-18
4.9459932e-18
4.9434641e-18
4.9418891e-18
4.940931e-18
4.9403827e-18
4.9401102e-18
4.9400346e-18
4.940125e-18
4.9404004e-18
4.9409428e-18
4.9434641e-18
4.9409432e-18
4.9393714e-18
4.938415e-18
4.9378682e-18
4.9375978e-18
4.9375264e-18
4.9376264e-18
4.9379265e-18
4.9385404e-18
4.9418891e-18
4.9393714e-18
4.9378019e-18
4.9368474e-18
4.9363025e-18
4.9360351e-18
4.9359689e-18
4.9360786e-18
4.9363958e-18
4.937034e-18
4.940931e-18
4.938415e-18
4.9368474e-18
4.9358947e-18
4.9353519e-18
4.9350874e-18
4.9350257e-18
4.9351423e-18
4.935469e-18
4.9361167e-18
4.9403827e-18
4.9378682e-18
4.9363025e-18
4.9353519e-18
4.9348113e-18
4.9345494e-18
4.9344909e-18
4.934612e-18
4.9349438e-18
4.9355955e-18
4.9401102e-18
4.9375978e-18
4.9360351e-18
4.9350874e-18
4.9345494e-18
4.9342897e-18
4.9342337e-18
4.9343575e-18
4.934692e-18
4.9353456e-18
4.9400346e-18
4.9375264e-18
4.9359689e-18
4.9350257e-18
4.9344909e-18
4.9342337e-18
4.9341797e-18
4.9343052e-18
4.9346413e-18
4.9352958e-18
4.940125e-18
4.9376264e-18
4.9360786e-18
4.9351423e-18
4.934612e-18
4.9343575e-18
4.9343052e-18
4.934432e-18
4.934769e-18
4.9354242e-18
4.9404004e-18
4.9379265e-18
4.9363958e-18
4.935469e-18
4.9349438e-18
4.934692e-18
4.9346413e-18
4.934769e-18
4.9351068e-18
4.9357627e-18
4.9409428e-18
4.9385404e-18
4.937034e-18
4.9361167e-18
4.9355955e-18
4.9353456e-18
4.9352958e-18
4.9354242e-18
4.9357627e-18
4.9364203e-18
9.4584912e-18
9.453842e-18
9.450935e-18
9.4491618e-18
9.4481452e-18
9.4476393e-18
9.4474981e-18
9.4476633e-18
9.4481659e-18
9.4491478e-18
9.453842e-18
9.4492079e-18
9.4463067e-18
9.4445366e-18
9.4435228e-18
9.4430209e-18
9.4428876e-18
9.4430709e-18
9.4436201e-18
9.4447372e-18
9.450935e-18
9.4463067e-18
9.4434098e-18
9.4416431e-18
9.440633e-18
9.4401367e-18
9.4400133e-18
9.4402148e-18
9.4407962e-18
9.4419593e-18
9.4491618e-18
9.4445366e-18
9.4416431e-18
9.4398799e-18
9.4388737e-18
9.4383828e-18
9.4382678e-18
9.4384824e-18
9.4390819e-18
9.4402628e-18
9.4481452e-18
9.4435228e-18
9.440633e-18
9.4388737e-18
9.4378716e-18
9.4373855e-18
9.4372767e-18
9.4374996e-18
9.4381087e-18
9.4392972e-18
9.4476393e-18
9.4430209e-18
9.4401367e-18
9.4383828e-18
9.4373855e-18
9.4369038e-18
9.4367996e-18
9.4370276e-18
9.4376418e-18
9.4388339e-18
9.4474981e-18
9.4428876e-18
9.4400133e-18
9.4382678e-18
9.4372767e-18
9.4367996e-18
9.4366992e-18
9.4369304e-18
9.4375475e-18
9.4387414e-18
9.4476633e-18
9.4430709e-18
9.4402148e-18
9.4384824e-18
9.4374996e-18
9.4370276e-18
9.4369304e-18
9.4371641e-18
9.437783e-18
9.438978e-18
9.4481659e-18
9.4436201e-18
9.4407962e-18
9.4390819e-18
9.4381087e-18
9.4376418e-18
9.4375475e-18
9.437783e-18
9.4384033e-18
9.4395996e-18
9.4491478e-18
9.4447372e-18
9.4419593e-18
9.4402628e-18
9.4392972e-18
9.4388339e-18
9.4387414e-18
9.438978e-18
9.4395996e-18
9.4407992e-18
1.8264347e-17
1.8255722e-17
1.8250307e-17
1.8246996e-17
1.8245094e-17
1.8244146e-17
1.824388e-17
1.8244185e-17
1.8245111e-17
1.8246905e-17
1.8255722e-17
1.8247125e-17
1.8241721e-17
1.8238415e-17
1.8236518e-17
1.8235578e-17
1.8235328e-17
1.8235667e-17
1.8236681e-17
1.8238734e-17
1.8250307e-17
1.8241721e-17
1.8236325e-17
1.8233026e-17
1.8231136e-17
1.8230206e-17
1.8229974e-17
1.8230348e-17
1.8231424e-17
1.8233564e-17
1.8246996e-17
1.8238415e-17
1.8233026e-17
1.8229733e-17
1.8227851e-17
1.8226931e-17
1.8226715e-17
1.8227114e-17
1.8228224e-17
1.8230399e-17
1.8245094e-17
1.8236518e-17
1.8231136e-17
1.8227851e-17
1.8225976e-17
1.8225066e-17
1.8224862e-17
1.8225276e-17
1.8226405e-17
1.8228593e-17
1.8244146e-17
1.8235578e-17
1.8230206e-17
1.8226931e-17
1.8225066e-17
1.8224164e-17
1.8223969e-17
1.8224393e-17
1.8225531e-17
1.8227727e-17
1.824388e-17
1.8235328e-17
1.8229974e-17
1.8226715e-17
1.8224862e-17
1.8223969e-17
1.822378e-17
1.8224211e-17
1.8225355e-17
1.8227553e-17
1.8244185e-17
1.8235667e-17
1.8230348e-17
1.8227114e-17
1.8225276e-17
1.8224393e-17
1.8224211e-17
1.8224646e-17
1.8225793e-17
1.8227994e-17
1.8245111e-17
1.8236681e-17
1.8231424e-17
1.8228224e-17
1.8226405e-17
1.8225531e-17
1.8225355e-17
1.8225793e-17
1.8226943e-17
1.8229147e-17
1.8246905e-17
1.8238734e-17
1.8233564e-17
1.8230399e-17
1.8228593e-17
1.8227727e-17
1.8227553e-17
1.8227994e-17
1.8229147e-17
1.8231356e-17
3.561182e-17
3.5595673e-17
3.5585496e-17
3.5579255e-17
3.5575665e-17
3.5573874e-17
3.5573369e-17
3.5573936e-17
3.5575659e-17
3.5578969e-17
3.5595673e-17
3.5579578e-17
3.5569421e-17
3.5563191e-17
3.555961e-17
3.5557834e-17
3.5557358e-17
3.5557992e-17
3.5559884e-17
3.5563691e-17
3.5585496e-17
3.5569421e-17
3.5559279e-17
3.5553061e-17
3.5549494e-17
3.5547738e-17
3.5547298e-17
3.5547998e-17
3.5550009e-17
3.5553984e-17
3.5579255e-17
3.5563191e-17
3.5553061e-17
3.5546856e-17
3.5543303e-17
3.5541566e-17
3.5541157e-17
3.5541905e-17
3.5543982e-17
3.5548023e-17
3.5575665e-17
3.555961e-17
3.5549494e-17
3.5543303e-17
3.5539765e-17
3.5538046e-17
3.5537659e-17
3.5538437e-17
3.554055e-17
3.5544618e-17
3.5573874e-17
3.5557834e-17
3.5547738e-17
3.5541566e-17
3.5538046e-17
3.5536342e-17
3.5535973e-17
3.553677e-17
3.5538901e-17
3.5542982e-17
3.5573369e-17
3.5557358e-17
3.5547298e-17
3.5541157e-17
3.5537659e-17
3.5535973e-17
3.5535617e-17
3.5536426e-17
3.5538567e-17
3.5542655e-17
3.5573936e-17
3.5557992e-17
3.5547998e-17
3.5541905e-17
3.5538437e-17
3.553677e-17
3.5536426e-17
3.5537243e-17
3.5539391e-17
3.5543483e-17
3.5575659e-17
3.5559884e-17
3.5550009e-17
3.5543982e-17
3.554055e-17
3.5538901e-17
3.5538567e-17
3.5539391e-17
3.5541544e-17
3.5545641e-17
3.5578969e-17
3.5563691e-17
3.5553984e-17
3.5548023e-17
3.5544618e-17
3.5542982e-17
3.5542655e-17
3.5543483e-17
3.5545641e-17
3.5549748e-17
7.0110162e-17
7.0079656e-17
7.0060355e-17
7.0048489e-17
7.0041651e-17
7.0038235e-17
7.0037269e-17
7.0038335e-17
7.0041569e-17
7.0047733e-17
7.0079656e-17
7.0049249e-17
7.0029985e-17
7.0018139e-17
7.0011319e-17
7.0007932e-17
7.0007022e-17
7.0008217e-17
7.0011782e-17
7.001891e-17
7.0060355e-17
7.0029985e-17
7.001075e-17
6.9998927e-17
6.9992133e-17
6.9988785e-17
6.9987944e-17
6.9989269e-17
6.9993063e-17
7.0000519e-17
7.0048489e-17
7.0018139e-17
6.9998927e-17
6.9987128e-17
6.9980361e-17
6.9977051e-17
6.997627e-17
6.9977687e-17
6.9981609e-17
6.9989192e-17
7.0041651e-17
7.0011319e-17
6.9992133e-17
6.9980361e-17
6.9973624e-17
6.9970347e-17
6.996961e-17
6.9971086e-17
6.9975076e-17
6.9982713e-17
7.0038235e-17
7.0007932e-17
6.9988785e-17
6.9977051e-17
6.9970347e-17
6.9967102e-17
6.9966398e-17
6.9967909e-17
6.9971936e-17
6.9979598e-17
7.0037269e-17
7.0007022e-17
6.9987944e-17
6.997627e-17
6.996961e-17
6.9966398e-17
6.996572e-17
6.9967254e-17
6.9971301e-17
6.9978975e-17
7.0038335e-17
7.0008217e-17
6.9989269e-17
6.9977687e-17
6.9971086e-17
6.9967909e-17
6.9967254e-17
6.9968806e-17
6.9972866e-17
6.9980548e-17
7.0041569e-17
7.0011782e-17
6.9993063e-17
6.9981609e-17
6.9975076e-17
6.9971936e-17
6.9971301e-17
6.9972866e-17
6.9976935e-17
6.9984626e-17
7.0047733e-17
7.001891e-17
7.0000519e-17
6.9989192e-17
6.9982713e-17
6.9979598e-17
6.9978975e-17
6.9980548e-17
6.9984626e-17
6.9992336e-17
1.3936332e-16
1.3930517e-16
1.3926823e-16
1.3924547e-16
1.3923233e-16
1.3922576e-16
1.3922389e-16
1.3922592e-16
1.3923205e-16
1.3924363e-16
1.3930517e-16
1.392472e-16
1.3921034e-16
1.3918761e-16
1.3917451e-16
1.3916799e-16
1.3916624e-16
1.3916851e-16
1.3917529e-16
1.3918876e-16
1.3926823e-16
1.3921034e-16
1.3917353e-16
1.3915085e-16
1.3913779e-16
1.3913135e-16
1.3912973e-16
1.3913226e-16
1.3913949e-16
1.3915361e-16
1.3924547e-16
1.3918761e-16
1.3915085e-16
1.3912821e-16
1.3911521e-16
1.3910885e-16
1.3910734e-16
1.3911005e-16
1.3911753e-16
1.3913189e-16
1.3923233e-16
1.3917451e-16
1.3913779e-16
1.3911521e-16
1.3910226e-16
1.3909597e-16
1.3909455e-16
1.3909737e-16
1.3910498e-16
1.3911946e-16
1.3922576e-16
1.3916799e-16
1.3913135e-16
1.3910885e-16
1.3909597e-16
1.3908973e-16
1.3908837e-16
1.3909127e-16
1.3909895e-16
1.3911347e-16
1.3922389e-16
1.3916624e-16
1.3912973e-16
1.3910734e-16
1.3909455e-16
1.3908837e-16
1.3908707e-16
1.3909001e-16
1.3909773e-16
1.3911228e-16
1.3922592e-16
1.3916851e-16
1.3913226e-16
1.3911005e-16
1.3909737e-16
1.3909127e-16
1.3909001e-16
1.3909299e-16
1.3910073e-16
1.3911529e-16
1.3923205e-16
1.3917529e-16
1.3913949e-16
1.3911753e-16
1.3910498e-16
1.3909895e-16
1.3909773e-16
1.3910073e-16
1.391085e-16
1.3912307e-16
1.3924363e-16
1.3918876e-16
1.3915361e-16
1.3913189e-16
1.3911946e-16