/*--------------------------------*- C++ -*----------------------------------*\
| =========                 |                                                 |
| \\      /  F ield         | OpenFOAM: The Open Source CFD Toolbox           |
|  \\    /   O peration     | Version:  dev                                   |
|   \\  /    A nd           | Web:      www.OpenFOAM.org                      |
|    \\/     M anipulation  |                                                 |
\*---------------------------------------------------------------------------*/
FoamFile
{
    version     2.0;
    format      ascii;
    class       volScalarField;
    location    "35.995";
    object      A;
}
// * * * * * * * * * * * * * * * * * * * * * * * * * * * * * * * * * * * * * //

dimensions      [0 0 0 0 1 0 0];

internalField   nonuniform List<scalar> 
10000
(
8.5091519e-40
8.4989963e-40
8.4981112e-40
8.4979687e-40
8.4979145e-40
8.4978911e-40
8.4978836e-40
8.4978897e-40
8.4979786e-40
8.4988762e-40
8.4989963e-40
8.4889099e-40
8.4880299e-40
8.4878878e-40
8.4878337e-40
8.4878105e-40
8.4878032e-40
8.4878107e-40
8.4879152e-40
8.4889991e-40
8.4981112e-40
8.4880299e-40
8.4871504e-40
8.4870084e-40
8.4869544e-40
8.4869313e-40
8.4869243e-40
8.4869326e-40
8.4870397e-40
8.4881384e-40
8.4979687e-40
8.4878878e-40
8.4870084e-40
8.4868663e-40
8.4868124e-40
8.4867894e-40
8.4867827e-40
8.4867914e-40
8.4868992e-40
8.4879992e-40
8.4979145e-40
8.4878337e-40
8.4869544e-40
8.4868124e-40
8.4867585e-40
8.4867356e-40
8.4867291e-40
8.4867379e-40
8.4868461e-40
8.4879464e-40
8.4978911e-40
8.4878105e-40
8.4869313e-40
8.4867894e-40
8.4867356e-40
8.4867129e-40
8.4867063e-40
8.4867153e-40
8.4868236e-40
8.487924e-40
8.4978836e-40
8.4878032e-40
8.4869243e-40
8.4867827e-40
8.4867291e-40
8.4867063e-40
8.4866999e-40
8.486709e-40
8.4868173e-40
8.4879177e-40
8.4978897e-40
8.4878107e-40
8.4869326e-40
8.4867914e-40
8.4867379e-40
8.4867153e-40
8.486709e-40
8.4867181e-40
8.4868264e-40
8.4879269e-40
8.4979786e-40
8.4879152e-40
8.4870397e-40
8.4868992e-40
8.4868461e-40
8.4868236e-40
8.4868173e-40
8.4868264e-40
8.4869349e-40
8.4880357e-40
8.4988762e-40
8.4889991e-40
8.4881384e-40
8.4879992e-40
8.4879464e-40
8.487924e-40
8.4879177e-40
8.4879269e-40
8.4880357e-40
8.4891411e-40
3.3550033e-39
3.3512835e-39
3.3509439e-39
3.3508885e-39
3.3508674e-39
3.3508583e-39
3.3508554e-39
3.3508577e-39
3.3508932e-39
3.3512885e-39
3.3512835e-39
3.3475889e-39
3.3472512e-39
3.3471959e-39
3.3471749e-39
3.3471658e-39
3.347163e-39
3.3471659e-39
3.3472075e-39
3.347677e-39
3.3509439e-39
3.3472512e-39
3.3469137e-39
3.3468584e-39
3.3468374e-39
3.3468284e-39
3.3468257e-39
3.3468289e-39
3.3468716e-39
3.3473468e-39
3.3508885e-39
3.3471959e-39
3.3468584e-39
3.3468032e-39
3.3467822e-39
3.3467733e-39
3.3467707e-39
3.346774e-39
3.346817e-39
3.3472927e-39
3.3508674e-39
3.3471749e-39
3.3468374e-39
3.3467822e-39
3.3467612e-39
3.3467523e-39
3.3467497e-39
3.3467532e-39
3.3467963e-39
3.3472722e-39
3.3508583e-39
3.3471658e-39
3.3468284e-39
3.3467733e-39
3.3467523e-39
3.3467434e-39
3.3467409e-39
3.3467444e-39
3.3467875e-39
3.3472634e-39
3.3508554e-39
3.347163e-39
3.3468257e-39
3.3467707e-39
3.3467497e-39
3.3467409e-39
3.3467384e-39
3.3467419e-39
3.346785e-39
3.347261e-39
3.3508577e-39
3.3471659e-39
3.3468289e-39
3.346774e-39
3.3467532e-39
3.3467444e-39
3.3467419e-39
3.3467455e-39
3.3467886e-39
3.3472646e-39
3.3508932e-39
3.3472075e-39
3.3468716e-39
3.346817e-39
3.3467963e-39
3.3467875e-39
3.346785e-39
3.3467886e-39
3.3468318e-39
3.3473079e-39
3.3512885e-39
3.347677e-39
3.3473468e-39
3.3472927e-39
3.3472722e-39
3.3472634e-39
3.347261e-39
3.3472646e-39
3.3473079e-39
3.347786e-39
9.1408309e-39
9.131129e-39
9.1302324e-39
9.1300849e-39
9.1300284e-39
9.1300041e-39
9.1299962e-39
9.1300025e-39
9.1300977e-39
9.1312194e-39
9.131129e-39
9.1214921e-39
9.1206005e-39
9.1204534e-39
9.120397e-39
9.1203728e-39
9.1203653e-39
9.120373e-39
9.1204849e-39
9.1218084e-39
9.1302324e-39
9.1206005e-39
9.1197095e-39
9.1195624e-39
9.1195061e-39
9.1194821e-39
9.1194748e-39
9.1194834e-39
9.119598e-39
9.1209373e-39
9.1300849e-39
9.1204534e-39
9.1195624e-39
9.1194153e-39
9.1193591e-39
9.1193352e-39
9.1193282e-39
9.1193372e-39
9.1194526e-39
9.1207933e-39
9.1300284e-39
9.120397e-39
9.1195061e-39
9.1193591e-39
9.119303e-39
9.1192792e-39
9.1192723e-39
9.1192816e-39
9.1193973e-39
9.1207383e-39
9.1300041e-39
9.1203728e-39
9.1194821e-39
9.1193352e-39
9.1192792e-39
9.1192554e-39
9.1192486e-39
9.119258e-39
9.1193739e-39
9.1207149e-39
9.1299962e-39
9.1203653e-39
9.1194748e-39
9.1193282e-39
9.1192723e-39
9.1192486e-39
9.1192419e-39
9.1192513e-39
9.1193673e-39
9.1207084e-39
9.1300025e-39
9.120373e-39
9.1194834e-39
9.1193372e-39
9.1192816e-39
9.119258e-39
9.1192513e-39
9.1192608e-39
9.1193768e-39
9.1207179e-39
9.1300977e-39
9.1204849e-39
9.119598e-39
9.1194526e-39
9.1193973e-39
9.1193739e-39
9.1193673e-39
9.1193768e-39
9.1194929e-39
9.1208344e-39
9.1312194e-39
9.1218084e-39
9.1209373e-39
9.1207933e-39
9.1207383e-39
9.1207149e-39
9.1207084e-39
9.1207179e-39
9.1208344e-39
9.122182e-39
2.4174978e-38
2.4150232e-38
2.4147935e-38
2.4147555e-38
2.4147409e-38
2.4147346e-38
2.4147325e-38
2.4147341e-38
2.4147582e-38
2.4150442e-38
2.4150232e-38
2.412565e-38
2.4123366e-38
2.4122987e-38
2.4122841e-38
2.4122778e-38
2.4122759e-38
2.4122778e-38
2.4123063e-38
2.4126455e-38
2.4147935e-38
2.4123366e-38
2.4121084e-38
2.4120704e-38
2.4120559e-38
2.4120496e-38
2.4120478e-38
2.4120499e-38
2.4120792e-38
2.4124225e-38
2.4147555e-38
2.4122987e-38
2.4120704e-38
2.4120325e-38
2.412018e-38
2.4120118e-38
2.41201e-38
2.4120123e-38
2.4120417e-38
2.4123854e-38
2.4147409e-38
2.4122841e-38
2.4120559e-38
2.412018e-38
2.4120034e-38
2.4119973e-38
2.4119955e-38
2.4119979e-38
2.4120274e-38
2.4123712e-38
2.4147346e-38
2.4122778e-38
2.4120496e-38
2.4120118e-38
2.4119973e-38
2.4119911e-38
2.4119894e-38
2.4119918e-38
2.4120213e-38
2.4123651e-38
2.4147325e-38
2.4122759e-38
2.4120478e-38
2.41201e-38
2.4119955e-38
2.4119894e-38
2.4119876e-38
2.41199e-38
2.4120196e-38
2.4123634e-38
2.4147341e-38
2.4122778e-38
2.4120499e-38
2.4120123e-38
2.4119979e-38
2.4119918e-38
2.41199e-38
2.4119925e-38
2.412022e-38
2.4123659e-38
2.4147582e-38
2.4123063e-38
2.4120792e-38
2.4120417e-38
2.4120274e-38
2.4120213e-38
2.4120196e-38
2.412022e-38
2.4120516e-38
2.4123956e-38
2.4150442e-38
2.4126455e-38
2.4124225e-38
2.4123854e-38
2.4123712e-38
2.4123651e-38
2.4123634e-38
2.4123659e-38
2.4123956e-38
2.412741e-38
6.4530745e-38
6.4466944e-38
6.4461007e-38
6.4460018e-38
6.4459637e-38
6.4459473e-38
6.4459419e-38
6.4459459e-38
6.4460068e-38
6.4467276e-38
6.4466944e-38
6.4403566e-38
6.4397662e-38
6.4396675e-38
6.4396295e-38
6.4396131e-38
6.439608e-38
6.4396131e-38
6.4396856e-38
6.4405479e-38
6.4461007e-38
6.4397662e-38
6.4391761e-38
6.4390775e-38
6.4390395e-38
6.4390233e-38
6.4390184e-38
6.439024e-38
6.4390985e-38
6.4399718e-38
6.4460018e-38
6.4396675e-38
6.4390775e-38
6.4389789e-38
6.438941e-38
6.4389248e-38
6.4389201e-38
6.438926e-38
6.439001e-38
6.4398753e-38
6.4459637e-38
6.4396295e-38
6.4390395e-38
6.438941e-38
6.4389031e-38
6.438887e-38
6.4388824e-38
6.4388885e-38
6.4389637e-38
6.4398382e-38
6.4459473e-38
6.4396131e-38
6.4390233e-38
6.4389248e-38
6.438887e-38
6.438871e-38
6.4388664e-38
6.4388726e-38
6.4389479e-38
6.4398224e-38
6.4459419e-38
6.439608e-38
6.4390184e-38
6.4389201e-38
6.4388824e-38
6.4388664e-38
6.4388619e-38
6.4388681e-38
6.4389434e-38
6.439818e-38
6.4459459e-38
6.4396131e-38
6.439024e-38
6.438926e-38
6.4388885e-38
6.4388726e-38
6.4388681e-38
6.4388743e-38
6.4389497e-38
6.4398243e-38
6.4460068e-38
6.4396856e-38
6.4390985e-38
6.439001e-38
6.4389637e-38
6.4389479e-38
6.4389434e-38
6.4389497e-38
6.4390251e-38
6.4399e-38
6.4467276e-38
6.4405479e-38
6.4399718e-38
6.4398753e-38
6.4398382e-38
6.4398224e-38
6.439818e-38
6.4398243e-38
6.4399e-38
6.4407788e-38
1.7484504e-37
1.7467808e-37
1.7466251e-37
1.746599e-37
1.7465889e-37
1.7465846e-37
1.7465832e-37
1.7465842e-37
1.7465998e-37
1.7467833e-37
1.7467808e-37
1.7451223e-37
1.7449674e-37
1.7449414e-37
1.7449313e-37
1.744927e-37
1.7449256e-37
1.7449269e-37
1.7449456e-37
1.7451673e-37
1.7466251e-37
1.7449674e-37
1.7448126e-37
1.7447866e-37
1.7447766e-37
1.7447722e-37
1.744771e-37
1.7447724e-37
1.7447916e-37
1.7450163e-37
1.746599e-37
1.7449414e-37
1.7447866e-37
1.7447606e-37
1.7447506e-37
1.7447463e-37
1.744745e-37
1.7447466e-37
1.7447659e-37
1.7449908e-37
1.7465889e-37
1.7449313e-37
1.7447766e-37
1.7447506e-37
1.7447405e-37
1.7447363e-37
1.744735e-37
1.7447366e-37
1.7447561e-37
1.744981e-37
1.7465846e-37
1.744927e-37
1.7447722e-37
1.7447463e-37
1.7447363e-37
1.744732e-37
1.7447308e-37
1.7447324e-37
1.7447519e-37
1.7449769e-37
1.7465832e-37
1.7449256e-37
1.744771e-37
1.744745e-37
1.744735e-37
1.7447308e-37
1.7447296e-37
1.7447312e-37
1.7447507e-37
1.7449757e-37
1.7465842e-37
1.7449269e-37
1.7447724e-37
1.7447466e-37
1.7447366e-37
1.7447324e-37
1.7447312e-37
1.7447329e-37
1.7447523e-37
1.7449773e-37
1.7465998e-37
1.7449456e-37
1.7447916e-37
1.7447659e-37
1.7447561e-37
1.7447519e-37
1.7447507e-37
1.7447523e-37
1.7447718e-37
1.7449969e-37
1.7467833e-37
1.7451673e-37
1.7450163e-37
1.7449908e-37
1.744981e-37
1.7449769e-37
1.7449757e-37
1.7449773e-37
1.7449969e-37
1.7452229e-37
4.8129231e-37
4.8084859e-37
4.8080711e-37
4.8080012e-37
4.8079741e-37
4.8079624e-37
4.8079586e-37
4.8079613e-37
4.8080016e-37
4.8084756e-37
4.8084859e-37
4.8040778e-37
4.8036653e-37
4.8035956e-37
4.8035685e-37
4.8035569e-37
4.8035532e-37
4.8035567e-37
4.8036056e-37
4.8041842e-37
4.8080711e-37
4.8036653e-37
4.803253e-37
4.8031833e-37
4.8031563e-37
4.8031447e-37
4.8031412e-37
4.8031451e-37
4.8031955e-37
4.8037822e-37
4.8080012e-37
4.8035956e-37
4.8031833e-37
4.8031136e-37
4.8030866e-37
4.8030751e-37
4.8030718e-37
4.8030759e-37
4.8031266e-37
4.8037141e-37
4.8079741e-37
4.8035685e-37
4.8031563e-37
4.8030866e-37
4.8030597e-37
4.8030483e-37
4.803045e-37
4.8030492e-37
4.8031001e-37
4.8036877e-37
4.8079624e-37
4.8035569e-37
4.8031447e-37
4.8030751e-37
4.8030483e-37
4.8030369e-37
4.8030336e-37
4.8030379e-37
4.8030889e-37
4.8036765e-37
4.8079586e-37
4.8035532e-37
4.8031412e-37
4.8030718e-37
4.803045e-37
4.8030336e-37
4.8030304e-37
4.8030347e-37
4.8030857e-37
4.8036734e-37
4.8079613e-37
4.8035567e-37
4.8031451e-37
4.8030759e-37
4.8030492e-37
4.8030379e-37
4.8030347e-37
4.803039e-37
4.80309e-37
4.8036777e-37
4.8080016e-37
4.8036056e-37
4.8031955e-37
4.8031266e-37
4.8031001e-37
4.8030889e-37
4.8030857e-37
4.80309e-37
4.8031411e-37
4.803729e-37
4.8084756e-37
4.8041842e-37
4.8037822e-37
4.8037141e-37
4.8036877e-37
4.8036765e-37
4.8036734e-37
4.8036777e-37
4.803729e-37
4.8043194e-37
1.3462161e-36
1.3450183e-36
1.3449061e-36
1.3448871e-36
1.3448797e-36
1.3448765e-36
1.3448754e-36
1.3448761e-36
1.3448868e-36
1.3450111e-36
1.3450183e-36
1.3438283e-36
1.3437167e-36
1.3436977e-36
1.3436904e-36
1.3436872e-36
1.3436862e-36
1.3436871e-36
1.3437001e-36
1.3438536e-36
1.3449061e-36
1.3437167e-36
1.3436052e-36
1.3435862e-36
1.3435788e-36
1.3435757e-36
1.3435747e-36
1.3435758e-36
1.3435892e-36
1.3437449e-36
1.3448871e-36
1.3436977e-36
1.3435862e-36
1.3435672e-36
1.3435599e-36
1.3435567e-36
1.3435558e-36
1.3435569e-36
1.3435705e-36
1.3437263e-36
1.3448797e-36
1.3436904e-36
1.3435788e-36
1.3435599e-36
1.3435525e-36
1.3435494e-36
1.3435485e-36
1.3435497e-36
1.3435632e-36
1.3437191e-36
1.3448765e-36
1.3436872e-36
1.3435757e-36
1.3435567e-36
1.3435494e-36
1.3435463e-36
1.3435454e-36
1.3435466e-36
1.3435601e-36
1.3437161e-36
1.3448754e-36
1.3436862e-36
1.3435747e-36
1.3435558e-36
1.3435485e-36
1.3435454e-36
1.3435445e-36
1.3435457e-36
1.3435593e-36
1.3437152e-36
1.3448761e-36
1.3436871e-36
1.3435758e-36
1.3435569e-36
1.3435497e-36
1.3435466e-36
1.3435457e-36
1.3435469e-36
1.3435605e-36
1.3437164e-36
1.3448868e-36
1.3437001e-36
1.3435892e-36
1.3435705e-36
1.3435632e-36
1.3435601e-36
1.3435593e-36
1.3435605e-36
1.3435741e-36
1.3437301e-36
1.3450111e-36
1.3438536e-36
1.3437449e-36
1.3437263e-36
1.3437191e-36
1.3437161e-36
1.3437152e-36
1.3437164e-36
1.3437301e-36
1.3438867e-36
3.8265486e-36
3.8232642e-36
3.8229558e-36
3.8229033e-36
3.8228828e-36
3.8228739e-36
3.8228711e-36
3.822873e-36
3.8229014e-36
3.8232327e-36
3.8232642e-36
3.8200012e-36
3.8196945e-36
3.8196421e-36
3.8196216e-36
3.8196128e-36
3.8196101e-36
3.8196126e-36
3.8196478e-36
3.8200612e-36
3.8229558e-36
3.8196945e-36
3.8193879e-36
3.8193355e-36
3.8193151e-36
3.8193063e-36
3.8193037e-36
3.8193065e-36
3.8193428e-36
3.8197626e-36
3.8229033e-36
3.8196421e-36
3.8193355e-36
3.8192831e-36
3.8192627e-36
3.819254e-36
3.8192515e-36
3.8192545e-36
3.8192911e-36
3.8197115e-36
3.8228828e-36
3.8196216e-36
3.8193151e-36
3.8192627e-36
3.8192424e-36
3.8192337e-36
3.8192312e-36
3.8192343e-36
3.8192711e-36
3.8196916e-36
3.8228739e-36
3.8196128e-36
3.8193063e-36
3.819254e-36
3.8192337e-36
3.8192251e-36
3.8192226e-36
3.8192258e-36
3.8192626e-36
3.8196831e-36
3.8228711e-36
3.8196101e-36
3.8193037e-36
3.8192515e-36
3.8192312e-36
3.8192226e-36
3.8192202e-36
3.8192234e-36
3.8192602e-36
3.8196807e-36
3.822873e-36
3.8196126e-36
3.8193065e-36
3.8192545e-36
3.8192343e-36
3.8192258e-36
3.8192234e-36
3.8192266e-36
3.8192634e-36
3.8196839e-36
3.8229014e-36
3.8196478e-36
3.8193428e-36
3.8192911e-36
3.8192711e-36
3.8192626e-36
3.8192602e-36
3.8192634e-36
3.8193002e-36
3.8197209e-36
3.8232327e-36
3.8200612e-36
3.8197626e-36
3.8197115e-36
3.8196916e-36
3.8196831e-36
3.8196807e-36
3.8196839e-36
3.8197209e-36
3.8201434e-36
1.105384e-35
1.1044692e-35
1.1043831e-35
1.1043684e-35
1.1043626e-35
1.1043601e-35
1.1043593e-35
1.1043598e-35
1.1043676e-35
1.1044572e-35
1.1044692e-35
1.1035603e-35
1.1034747e-35
1.1034599e-35
1.1034542e-35
1.1034517e-35
1.1034509e-35
1.1034516e-35
1.1034613e-35
1.1035745e-35
1.1043831e-35
1.1034747e-35
1.1033891e-35
1.1033744e-35
1.1033686e-35
1.1033662e-35
1.1033654e-35
1.1033662e-35
1.1033762e-35
1.1034912e-35
1.1043684e-35
1.1034599e-35
1.1033744e-35
1.1033597e-35
1.1033539e-35
1.1033515e-35
1.1033508e-35
1.1033516e-35
1.1033617e-35
1.1034769e-35
1.1043626e-35
1.1034542e-35
1.1033686e-35
1.1033539e-35
1.1033482e-35
1.1033458e-35
1.1033451e-35
1.1033459e-35
1.103356e-35
1.1034713e-35
1.1043601e-35
1.1034517e-35
1.1033662e-35
1.1033515e-35
1.1033458e-35
1.1033433e-35
1.1033426e-35
1.1033435e-35
1.1033536e-35
1.1034689e-35
1.1043593e-35
1.1034509e-35
1.1033654e-35
1.1033508e-35
1.1033451e-35
1.1033426e-35
1.103342e-35
1.1033428e-35
1.103353e-35
1.1034682e-35
1.1043598e-35
1.1034516e-35
1.1033662e-35
1.1033516e-35
1.1033459e-35
1.1033435e-35
1.1033428e-35
1.1033437e-35
1.1033539e-35
1.1034691e-35
1.1043676e-35
1.1034613e-35
1.1033762e-35
1.1033617e-35
1.103356e-35
1.1033536e-35
1.103353e-35
1.1033539e-35
1.103364e-35
1.1034793e-35
1.1044572e-35
1.1035745e-35
1.1034912e-35
1.1034769e-35
1.1034713e-35
1.1034689e-35
1.1034682e-35
1.1034691e-35
1.1034793e-35
1.1035951e-35
3.2452984e-35
3.2427097e-35
3.2424655e-35
3.2424235e-35
3.242407e-35
3.2423999e-35
3.2423976e-35
3.242399e-35
3.2424204e-35
3.2426668e-35
3.2427097e-35
3.2401377e-35
3.2398949e-35
3.2398529e-35
3.2398365e-35
3.2398294e-35
3.2398272e-35
3.2398291e-35
3.2398561e-35
3.2401712e-35
3.2424655e-35
3.2398949e-35
3.2396521e-35
3.2396102e-35
3.2395938e-35
3.2395867e-35
3.2395846e-35
3.2395868e-35
3.2396148e-35
3.2399352e-35
3.2424235e-35
3.2398529e-35
3.2396102e-35
3.2395683e-35
3.2395519e-35
3.2395449e-35
3.2395429e-35
3.2395452e-35
3.2395734e-35
3.2398943e-35
3.242407e-35
3.2398365e-35
3.2395938e-35
3.2395519e-35
3.2395355e-35
3.2395286e-35
3.2395266e-35
3.239529e-35
3.2395573e-35
3.2398783e-35
3.2423999e-35
3.2398294e-35
3.2395867e-35
3.2395449e-35
3.2395286e-35
3.2395216e-35
3.2395196e-35
3.2395221e-35
3.2395504e-35
3.2398715e-35
3.2423976e-35
3.2398272e-35
3.2395846e-35
3.2395429e-35
3.2395266e-35
3.2395196e-35
3.2395177e-35
3.2395202e-35
3.2395485e-35
3.2398696e-35
3.242399e-35
3.2398291e-35
3.2395868e-35
3.2395452e-35
3.239529e-35
3.2395221e-35
3.2395202e-35
3.2395227e-35
3.239551e-35
3.2398722e-35
3.2424204e-35
3.2398561e-35
3.2396148e-35
3.2395734e-35
3.2395573e-35
3.2395504e-35
3.2395485e-35
3.239551e-35
3.2395794e-35
3.2399006e-35
3.2426668e-35
3.2401712e-35
3.2399352e-35
3.2398943e-35
3.2398783e-35
3.2398715e-35
3.2398696e-35
3.2398722e-35
3.2399006e-35
3.2402231e-35
9.6838707e-35
9.6764292e-35
9.6757259e-35
9.6756041e-35
9.6755563e-35
9.6755356e-35
9.6755288e-35
9.6755329e-35
9.6755929e-35
9.676281e-35
9.6764292e-35
9.6690355e-35
9.6683358e-35
9.6682144e-35
9.6681666e-35
9.668146e-35
9.6681396e-35
9.6681452e-35
9.6682218e-35
9.6691134e-35
9.6757259e-35
9.6683358e-35
9.6676365e-35
9.6675151e-35
9.6674675e-35
9.667447e-35
9.6674409e-35
9.6674472e-35
9.6675266e-35
9.668434e-35
9.6756041e-35
9.6682144e-35
9.6675151e-35
9.6673938e-35
9.6673462e-35
9.6673258e-35
9.6673199e-35
9.6673267e-35
9.6674068e-35
9.6683156e-35
9.6755563e-35
9.6681666e-35
9.6674675e-35
9.6673462e-35
9.6672986e-35
9.6672783e-35
9.6672726e-35
9.6672796e-35
9.66736e-35
9.6682691e-35
9.6755356e-35
9.668146e-35
9.667447e-35
9.6673258e-35
9.6672783e-35
9.6672581e-35
9.6672525e-35
9.6672596e-35
9.6673401e-35
9.6682493e-35
9.6755288e-35
9.6681396e-35
9.6674409e-35
9.6673199e-35
9.6672726e-35
9.6672525e-35
9.6672468e-35
9.667254e-35
9.6673346e-35
9.6682438e-35
9.6755329e-35
9.6681452e-35
9.6674472e-35
9.6673267e-35
9.6672796e-35
9.6672596e-35
9.667254e-35
9.6672612e-35
9.6673418e-35
9.6682511e-35
9.6755929e-35
9.6682218e-35
9.6675266e-35
9.6674068e-35
9.66736e-35
9.6673401e-35
9.6673346e-35
9.6673418e-35
9.6674225e-35
9.668332e-35
9.676281e-35
9.6691134e-35
9.668434e-35
9.6683156e-35
9.6682691e-35
9.6682493e-35
9.6682438e-35
9.6682511e-35
9.668332e-35
9.6692452e-35
2.9370341e-34
2.9348609e-34
2.9346551e-34
2.9346193e-34
2.9346052e-34
2.934599e-34
2.9345971e-34
2.9345982e-34
2.9346153e-34
2.9348106e-34
2.9348609e-34
2.9327016e-34
2.9324968e-34
2.9324611e-34
2.932447e-34
2.9324409e-34
2.932439e-34
2.9324407e-34
2.9324628e-34
2.9327192e-34
2.9346551e-34
2.9324968e-34
2.9322922e-34
2.9322565e-34
2.9322424e-34
2.9322364e-34
2.9322345e-34
2.9322364e-34
2.9322593e-34
2.9325205e-34
2.9346193e-34
2.9324611e-34
2.9322565e-34
2.9322208e-34
2.9322067e-34
2.9322007e-34
2.932199e-34
2.9322009e-34
2.9322241e-34
2.9324857e-34
2.9346052e-34
2.932447e-34
2.9322424e-34
2.9322067e-34
2.9321927e-34
2.9321867e-34
2.932185e-34
2.9321871e-34
2.9322103e-34
2.932472e-34
2.934599e-34
2.9324409e-34
2.9322364e-34
2.9322007e-34
2.9321867e-34
2.9321807e-34
2.9321791e-34
2.9321812e-34
2.9322044e-34
2.9324661e-34
2.9345971e-34
2.932439e-34
2.9322345e-34
2.932199e-34
2.932185e-34
2.9321791e-34
2.9321774e-34
2.9321795e-34
2.9322028e-34
2.9324645e-34
2.9345982e-34
2.9324407e-34
2.9322364e-34
2.9322009e-34
2.9321871e-34
2.9321812e-34
2.9321795e-34
2.9321816e-34
2.9322049e-34
2.9324667e-34
2.9346153e-34
2.9324628e-34
2.9322593e-34
2.9322241e-34
2.9322103e-34
2.9322044e-34
2.9322028e-34
2.9322049e-34
2.9322283e-34
2.9324901e-34
2.9348106e-34
2.9327192e-34
2.9325205e-34
2.9324857e-34
2.932472e-34
2.9324661e-34
2.9324645e-34
2.9324667e-34
2.9324901e-34
2.9327529e-34
9.0540418e-34
9.0475942e-34
9.0469822e-34
9.0468752e-34
9.0468329e-34
9.0468146e-34
9.0468086e-34
9.0468121e-34
9.0468616e-34
9.0474243e-34
9.0475942e-34
9.0411875e-34
9.0405787e-34
9.0404719e-34
9.0404297e-34
9.0404115e-34
9.0404058e-34
9.0404106e-34
9.0404754e-34
9.0412251e-34
9.0469822e-34
9.0405787e-34
9.0399702e-34
9.0398635e-34
9.0398213e-34
9.0398032e-34
9.0397978e-34
9.0398033e-34
9.0398707e-34
9.0406349e-34
9.0468752e-34
9.0404719e-34
9.0398635e-34
9.0397568e-34
9.0397147e-34
9.0396967e-34
9.0396915e-34
9.0396974e-34
9.0397654e-34
9.0405309e-34
9.0468329e-34
9.0404297e-34
9.0398213e-34
9.0397147e-34
9.0396727e-34
9.0396548e-34
9.0396497e-34
9.0396558e-34
9.0397241e-34
9.0404898e-34
9.0468146e-34
9.0404115e-34
9.0398032e-34
9.0396967e-34
9.0396548e-34
9.0396369e-34
9.0396319e-34
9.0396381e-34
9.0397065e-34
9.0404723e-34
9.0468086e-34
9.0404058e-34
9.0397978e-34
9.0396915e-34
9.0396497e-34
9.0396319e-34
9.0396269e-34
9.0396332e-34
9.0397017e-34
9.0404675e-34
9.0468121e-34
9.0404106e-34
9.0398033e-34
9.0396974e-34
9.0396558e-34
9.0396381e-34
9.0396332e-34
9.0396395e-34
9.039708e-34
9.0404739e-34
9.0468616e-34
9.0404754e-34
9.0398707e-34
9.0397654e-34
9.0397241e-34
9.0397065e-34
9.0397017e-34
9.039708e-34
9.0397765e-34
9.0405426e-34
9.0474243e-34
9.0412251e-34
9.0406349e-34
9.0405309e-34
9.0404898e-34
9.0404723e-34
9.0404675e-34
9.0404739e-34
9.0405426e-34
9.0413117e-34
2.8369531e-33
2.8350097e-33
2.8348249e-33
2.8347924e-33
2.8347795e-33
2.8347739e-33
2.8347721e-33
2.8347732e-33
2.8347878e-33
2.8349525e-33
2.8350097e-33
2.8330786e-33
2.8328948e-33
2.8328623e-33
2.8328495e-33
2.8328439e-33
2.8328422e-33
2.8328437e-33
2.832863e-33
2.8330858e-33
2.8348249e-33
2.8328948e-33
2.832711e-33
2.8326786e-33
2.8326657e-33
2.8326602e-33
2.8326586e-33
2.8326602e-33
2.8326804e-33
2.8329077e-33
2.8347924e-33
2.8328623e-33
2.8326786e-33
2.8326462e-33
2.8326334e-33
2.8326279e-33
2.8326263e-33
2.8326281e-33
2.8326484e-33
2.8328761e-33
2.8347795e-33
2.8328495e-33
2.8326657e-33
2.8326334e-33
2.8326206e-33
2.8326151e-33
2.8326136e-33
2.8326154e-33
2.8326358e-33
2.8328636e-33
2.8347739e-33
2.8328439e-33
2.8326602e-33
2.8326279e-33
2.8326151e-33
2.8326097e-33
2.8326082e-33
2.83261e-33
2.8326305e-33
2.8328583e-33
2.8347721e-33
2.8328422e-33
2.8326586e-33
2.8326263e-33
2.8326136e-33
2.8326082e-33
2.8326067e-33
2.8326086e-33
2.832629e-33
2.8328568e-33
2.8347732e-33
2.8328437e-33
2.8326602e-33
2.8326281e-33
2.8326154e-33
2.83261e-33
2.8326086e-33
2.8326105e-33
2.8326309e-33
2.8328588e-33
2.8347878e-33
2.832863e-33
2.8326804e-33
2.8326484e-33
2.8326358e-33
2.8326305e-33
2.832629e-33
2.8326309e-33
2.8326514e-33
2.8328793e-33
2.8349525e-33
2.8330858e-33
2.8329077e-33
2.8328761e-33
2.8328636e-33
2.8328583e-33
2.8328568e-33
2.8328588e-33
2.8328793e-33
2.8331081e-33
9.0351468e-33
9.0291962e-33
9.0286291e-33
9.0285289e-33
9.0284892e-33
9.0284719e-33
9.0284663e-33
9.0284694e-33
9.0285131e-33
9.0290033e-33
9.0291962e-33
9.0232832e-33
9.0227189e-33
9.0226189e-33
9.0225793e-33
9.0225621e-33
9.0225568e-33
9.0225612e-33
9.0226198e-33
9.023293e-33
9.0286291e-33
9.0227189e-33
9.022155e-33
9.0220551e-33
9.0220154e-33
9.0219984e-33
9.0219933e-33
9.0219984e-33
9.0220595e-33
9.0227469e-33
9.0285289e-33
9.0226189e-33
9.0220551e-33
9.0219552e-33
9.0219156e-33
9.0218987e-33
9.0218938e-33
9.0218993e-33
9.021961e-33
9.0226496e-33
9.0284892e-33
9.0225793e-33
9.0220154e-33
9.0219156e-33
9.0218761e-33
9.0218592e-33
9.0218545e-33
9.0218601e-33
9.0219221e-33
9.022611e-33
9.0284719e-33
9.0225621e-33
9.0219984e-33
9.0218987e-33
9.0218592e-33
9.0218424e-33
9.0218377e-33
9.0218435e-33
9.0219056e-33
9.0225946e-33
9.0284663e-33
9.0225568e-33
9.0219933e-33
9.0218938e-33
9.0218545e-33
9.0218377e-33
9.0218331e-33
9.0218389e-33
9.0219011e-33
9.0225901e-33
9.0284694e-33
9.0225612e-33
9.0219984e-33
9.0218993e-33
9.0218601e-33
9.0218435e-33
9.0218389e-33
9.0218448e-33
9.0219069e-33
9.022596e-33
9.0285131e-33
9.0226198e-33
9.0220595e-33
9.021961e-33
9.0219221e-33
9.0219056e-33
9.0219011e-33
9.0219069e-33
9.0219691e-33
9.0226584e-33
9.0290033e-33
9.023293e-33
9.0227469e-33
9.0226496e-33
9.022611e-33
9.0225946e-33
9.0225901e-33
9.022596e-33
9.0226584e-33
9.0233502e-33
2.9247127e-32
2.9228618e-32
2.922685e-32
2.9226537e-32
2.9226412e-32
2.9226357e-32
2.922634e-32
2.9226349e-32
2.9226482e-32
2.9227964e-32
2.9228618e-32
2.9210225e-32
2.9208466e-32
2.9208153e-32
2.9208028e-32
2.9207974e-32
2.9207958e-32
2.9207972e-32
2.9208152e-32
2.921022e-32
2.922685e-32
2.9208466e-32
2.9206708e-32
2.9206395e-32
2.9206271e-32
2.9206218e-32
2.9206202e-32
2.9206218e-32
2.9206406e-32
2.9208519e-32
2.9226537e-32
2.9208153e-32
2.9206395e-32
2.9206083e-32
2.9205958e-32
2.9205905e-32
2.920589e-32
2.9205907e-32
2.9206098e-32
2.9208215e-32
2.9226412e-32
2.9208028e-32
2.9206271e-32
2.9205958e-32
2.9205834e-32
2.9205781e-32
2.9205766e-32
2.9205784e-32
2.9205976e-32
2.9208094e-32
2.9226357e-32
2.9207974e-32
2.9206218e-32
2.9205905e-32
2.9205781e-32
2.9205729e-32
2.9205714e-32
2.9205732e-32
2.9205924e-32
2.9208042e-32
2.922634e-32
2.9207958e-32
2.9206202e-32
2.920589e-32
2.9205766e-32
2.9205714e-32
2.9205699e-32
2.9205718e-32
2.920591e-32
2.9208028e-32
2.9226349e-32
2.9207972e-32
2.9206218e-32
2.9205907e-32
2.9205784e-32
2.9205732e-32
2.9205718e-32
2.9205736e-32
2.9205928e-32
2.9208047e-32
2.9226482e-32
2.9208152e-32
2.9206406e-32
2.9206098e-32
2.9205976e-32
2.9205924e-32
2.920591e-32
2.9205928e-32
2.920612e-32
2.9208239e-32
2.9227964e-32
2.921022e-32
2.9208519e-32
2.9208215e-32
2.9208094e-32
2.9208042e-32
2.9208028e-32
2.9208047e-32
2.9208239e-32
2.9210366e-32
9.6223625e-32
9.6165142e-32
9.6159546e-32
9.6158548e-32
9.615815e-32
9.6157977e-32
9.6157921e-32
9.6157951e-32
9.6158361e-32
9.6162912e-32
9.6165142e-32
9.6107025e-32
9.6101457e-32
9.6100461e-32
9.6100064e-32
9.6099892e-32
9.6099839e-32
9.6099882e-32
9.6100448e-32
9.6106905e-32
9.6159546e-32
9.6101457e-32
9.6095893e-32
9.6094897e-32
9.60945e-32
9.609433e-32
9.6094279e-32
9.609433e-32
9.6094921e-32
9.6101526e-32
9.6158548e-32
9.6100461e-32
9.6094897e-32
9.6093902e-32
9.6093506e-32
9.6093336e-32
9.6093288e-32
9.6093342e-32
9.609394e-32
9.6100558e-32
9.615815e-32
9.6100064e-32
9.60945e-32
9.6093506e-32
9.609311e-32
9.6092941e-32
9.6092894e-32
9.609295e-32
9.6093551e-32
9.6100171e-32
9.6157977e-32
9.6099892e-32
9.609433e-32
9.6093336e-32
9.6092941e-32
9.6092773e-32
9.6092726e-32
9.6092784e-32
9.6093385e-32
9.6100007e-32
9.6157921e-32
9.6099839e-32
9.6094279e-32
9.6093288e-32
9.6092894e-32
9.6092726e-32
9.609268e-32
9.6092738e-32
9.6093341e-32
9.6099962e-32
9.6157951e-32
9.6099882e-32
9.609433e-32
9.6093342e-32
9.609295e-32
9.6092784e-32
9.6092738e-32
9.6092797e-32
9.6093399e-32
9.6100021e-32
9.6158361e-32
9.6100448e-32
9.6094921e-32
9.609394e-32
9.6093551e-32
9.6093385e-32
9.6093341e-32
9.6093399e-32
9.6094002e-32
9.6100626e-32
9.6162912e-32
9.6106905e-32
9.6101526e-32
9.6100558e-32
9.6100171e-32
9.6100007e-32
9.6099962e-32
9.6100021e-32
9.6100626e-32
9.6107274e-32
3.2174365e-31
3.2155596e-31
3.2153797e-31
3.2153474e-31
3.2153345e-31
3.2153289e-31
3.2153271e-31
3.2153281e-31
3.2153409e-31
3.2154829e-31
3.2155596e-31
3.2136944e-31
3.2135154e-31
3.2134832e-31
3.2134703e-31
3.2134647e-31
3.213463e-31
3.2134644e-31
3.2134824e-31
3.2136874e-31
3.2153797e-31
3.2135154e-31
3.2133364e-31
3.2133043e-31
3.2132914e-31
3.2132859e-31
3.2132842e-31
3.2132859e-31
3.2133047e-31
3.2135146e-31
3.2153474e-31
3.2134832e-31
3.2133043e-31
3.2132721e-31
3.2132593e-31
3.2132538e-31
3.2132522e-31
3.213254e-31
3.213273e-31
3.2134833e-31
3.2153345e-31
3.2134703e-31
3.2132914e-31
3.2132593e-31
3.2132464e-31
3.213241e-31
3.2132395e-31
3.2132413e-31
3.2132605e-31
3.2134708e-31
3.2153289e-31
3.2134647e-31
3.2132859e-31
3.2132538e-31
3.213241e-31
3.2132355e-31
3.213234e-31
3.2132359e-31
3.2132551e-31
3.2134655e-31
3.2153271e-31
3.213463e-31
3.2132842e-31
3.2132522e-31
3.2132395e-31
3.213234e-31
3.2132325e-31
3.2132344e-31
3.2132537e-31
3.2134641e-31
3.2153281e-31
3.2134644e-31
3.2132859e-31
3.213254e-31
3.2132413e-31
3.2132359e-31
3.2132344e-31
3.2132363e-31
3.2132555e-31
3.213466e-31
3.2153409e-31
3.2134824e-31
3.2133047e-31
3.213273e-31
3.2132605e-31
3.2132551e-31
3.2132537e-31
3.2132555e-31
3.2132748e-31
3.2134853e-31
3.2154829e-31
3.2136874e-31
3.2135146e-31
3.2134833e-31
3.2134708e-31
3.2134655e-31
3.2134641e-31
3.213466e-31
3.2134853e-31
3.2136965e-31
1.0933034e-30
1.0926916e-30
1.0926328e-30
1.0926223e-30
1.092618e-30
1.0926162e-30
1.0926156e-30
1.0926159e-30
1.09262e-30
1.092665e-30
1.0926916e-30
1.0920836e-30
1.0920252e-30
1.0920146e-30
1.0920104e-30
1.0920085e-30
1.092008e-30
1.0920084e-30
1.0920143e-30
1.0920804e-30
1.0926328e-30
1.0920252e-30
1.0919667e-30
1.0919562e-30
1.0919519e-30
1.0919501e-30
1.0919496e-30
1.0919501e-30
1.0919562e-30
1.092024e-30
1.0926223e-30
1.0920146e-30
1.0919562e-30
1.0919456e-30
1.0919414e-30
1.0919396e-30
1.0919391e-30
1.0919397e-30
1.0919458e-30
1.0920138e-30
1.092618e-30
1.0920104e-30
1.0919519e-30
1.0919414e-30
1.0919372e-30
1.0919354e-30
1.0919349e-30
1.0919355e-30
1.0919417e-30
1.0920096e-30
1.0926162e-30
1.0920085e-30
1.0919501e-30
1.0919396e-30
1.0919354e-30
1.0919336e-30
1.0919331e-30
1.0919337e-30
1.0919399e-30
1.0920079e-30
1.0926156e-30
1.092008e-30
1.0919496e-30
1.0919391e-30
1.0919349e-30
1.0919331e-30
1.0919326e-30
1.0919332e-30
1.0919395e-30
1.0920074e-30
1.0926159e-30
1.0920084e-30
1.0919501e-30
1.0919397e-30
1.0919355e-30
1.0919337e-30
1.0919332e-30
1.0919339e-30
1.0919401e-30
1.0920081e-30
1.09262e-30
1.0920143e-30
1.0919562e-30
1.0919458e-30
1.0919417e-30
1.0919399e-30
1.0919395e-30
1.0919401e-30
1.0919463e-30
1.0920143e-30
1.092665e-30
1.0920804e-30
1.092024e-30
1.0920138e-30
1.0920096e-30
1.0920079e-30
1.0920074e-30
1.0920081e-30
1.0920143e-30
1.0920825e-30
3.7751963e-30
3.7731713e-30
3.7729764e-30
3.7729412e-30
3.772927e-30
3.7729208e-30
3.7729189e-30
3.7729199e-30
3.7729332e-30
3.7730781e-30
3.7731713e-30
3.7711588e-30
3.7709649e-30
3.7709297e-30
3.7709155e-30
3.7709094e-30
3.7709075e-30
3.7709091e-30
3.7709283e-30
3.7711452e-30
3.7729764e-30
3.7709649e-30
3.770771e-30
3.7707359e-30
3.7707218e-30
3.7707157e-30
3.7707139e-30
3.7707157e-30
3.7707359e-30
3.7709583e-30
3.7729412e-30
3.7709297e-30
3.7707359e-30
3.7707007e-30
3.7706866e-30
3.7706806e-30
3.7706789e-30
3.7706809e-30
3.7707012e-30
3.7709242e-30
3.772927e-30
3.7709155e-30
3.7707218e-30
3.7706866e-30
3.7706726e-30
3.7706666e-30
3.7706649e-30
3.7706669e-30
3.7706874e-30
3.7709105e-30
3.7729208e-30
3.7709094e-30
3.7707157e-30
3.7706806e-30
3.7706666e-30
3.7706606e-30
3.770659e-30
3.770661e-30
3.7706816e-30
3.7709047e-30
3.7729189e-30
3.7709075e-30
3.7707139e-30
3.7706789e-30
3.7706649e-30
3.770659e-30
3.7706573e-30
3.7706594e-30
3.77068e-30
3.7709031e-30
3.7729199e-30
3.7709091e-30
3.7707157e-30
3.7706809e-30
3.7706669e-30
3.770661e-30
3.7706594e-30
3.7706615e-30
3.7706821e-30
3.7709052e-30
3.7729332e-30
3.7709283e-30
3.7707359e-30
3.7707012e-30
3.7706874e-30
3.7706816e-30
3.77068e-30
3.7706821e-30
3.7707027e-30
3.7709258e-30
3.7730781e-30
3.7711452e-30
3.7709583e-30
3.7709242e-30
3.7709105e-30
3.7709047e-30
3.7709031e-30