/*--------------------------------*- C++ -*----------------------------------*\
| =========                 |                                                 |
| \\      /  F ield         | OpenFOAM: The Open Source CFD Toolbox           |
|  \\    /   O peration     | Version:  dev                                   |
|   \\  /    A nd           | Web:      www.OpenFOAM.org                      |
|    \\/     M anipulation  |                                                 |
\*---------------------------------------------------------------------------*/
FoamFile
{
    version     2.0;
    format      ascii;
    class       volScalarField;
    location    "35.995";
    object      A_0;
}
// * * * * * * * * * * * * * * * * * * * * * * * * * * * * * * * * * * * * * //

dimensions      [0 0 0 0 1 0 0];

internalField   nonuniform List<scalar> 
10000
(
7.9328592e-40
7.9235773e-40
7.9227832e-40
7.9226526e-40
7.9226022e-40
7.9225804e-40
7.9225733e-40
7.9225787e-40
7.9226579e-40
7.9234721e-40
7.9235773e-40
7.9143586e-40
7.913569e-40
7.9134388e-40
7.9133885e-40
7.9133668e-40
7.9133601e-40
7.9133667e-40
7.9134598e-40
7.9144443e-40
7.9227832e-40
7.913569e-40
7.9127798e-40
7.9126497e-40
7.9125994e-40
7.9125779e-40
7.9125714e-40
7.9125788e-40
7.9126742e-40
7.9136718e-40
7.9226526e-40
7.9134388e-40
7.9126497e-40
7.9125196e-40
7.9124694e-40
7.912448e-40
7.9124417e-40
7.9124495e-40
7.9125456e-40
7.9135444e-40
7.9226022e-40
7.9133885e-40
7.9125994e-40
7.9124694e-40
7.9124193e-40
7.9123979e-40
7.9123918e-40
7.9123997e-40
7.9124961e-40
7.9134952e-40
7.9225804e-40
7.9133668e-40
7.9125779e-40
7.912448e-40
7.9123979e-40
7.9123767e-40
7.9123706e-40
7.9123786e-40
7.9124752e-40
7.9134744e-40
7.9225733e-40
7.9133601e-40
7.9125714e-40
7.9124417e-40
7.9123918e-40
7.9123706e-40
7.9123646e-40
7.9123727e-40
7.9124693e-40
7.9134685e-40
7.9225787e-40
7.9133667e-40
7.9125788e-40
7.9124495e-40
7.9123997e-40
7.9123786e-40
7.9123727e-40
7.9123808e-40
7.9124774e-40
7.9134766e-40
7.9226579e-40
7.9134598e-40
7.9126742e-40
7.9125456e-40
7.9124961e-40
7.9124752e-40
7.9124693e-40
7.9124774e-40
7.9125741e-40
7.9135737e-40
7.9234721e-40
7.9144443e-40
7.9136718e-40
7.9135444e-40
7.9134952e-40
7.9134744e-40
7.9134685e-40
7.9134766e-40
7.9135737e-40
7.9145774e-40
3.1290533e-39
3.1256563e-39
3.1253516e-39
3.1253008e-39
3.1252812e-39
3.1252727e-39
3.1252699e-39
3.125272e-39
3.1253037e-39
3.1256637e-39
3.1256563e-39
3.1222822e-39
3.1219792e-39
3.1219286e-39
3.121909e-39
3.1219005e-39
3.1218979e-39
3.1219005e-39
3.1219376e-39
3.1223654e-39
3.1253516e-39
3.1219792e-39
3.1216763e-39
3.1216258e-39
3.1216062e-39
3.1215978e-39
3.1215952e-39
3.1215981e-39
3.1216362e-39
3.1220692e-39
3.1253008e-39
3.1219286e-39
3.1216258e-39
3.1215752e-39
3.1215556e-39
3.1215473e-39
3.1215448e-39
3.1215478e-39
3.1215862e-39
3.1220196e-39
3.1252812e-39
3.121909e-39
3.1216062e-39
3.1215556e-39
3.1215361e-39
3.1215277e-39
3.1215253e-39
3.1215284e-39
3.1215669e-39
3.1220004e-39
3.1252727e-39
3.1219005e-39
3.1215978e-39
3.1215473e-39
3.1215277e-39
3.1215195e-39
3.1215171e-39
3.1215202e-39
3.1215587e-39
3.1219923e-39
3.1252699e-39
3.1218979e-39
3.1215952e-39
3.1215448e-39
3.1215253e-39
3.1215171e-39
3.1215147e-39
3.1215179e-39
3.1215564e-39
3.12199e-39
3.125272e-39
3.1219005e-39
3.1215981e-39
3.1215478e-39
3.1215284e-39
3.1215202e-39
3.1215179e-39
3.1215211e-39
3.1215596e-39
3.1219932e-39
3.1253037e-39
3.1219376e-39
3.1216362e-39
3.1215862e-39
3.1215669e-39
3.1215587e-39
3.1215564e-39
3.1215596e-39
3.1215981e-39
3.1220319e-39
3.1256637e-39
3.1223654e-39
3.1220692e-39
3.1220196e-39
3.1220004e-39
3.1219923e-39
3.12199e-39
3.1219932e-39
3.1220319e-39
3.1224675e-39
8.5307824e-39
8.5219195e-39
8.5211145e-39
8.5209793e-39
8.5209267e-39
8.5209039e-39
8.5208966e-39
8.5209021e-39
8.5209872e-39
8.5220114e-39
8.5219195e-39
8.5131159e-39
8.5123154e-39
8.5121805e-39
8.512128e-39
8.5121054e-39
8.5120983e-39
8.5121052e-39
8.5122052e-39
8.513414e-39
8.5211145e-39
8.5123154e-39
8.5115154e-39
8.5113805e-39
8.5113281e-39
8.5113056e-39
8.5112989e-39
8.5113065e-39
8.511409e-39
8.5126319e-39
8.5209793e-39
8.5121805e-39
8.5113805e-39
8.5112457e-39
8.5111933e-39
8.511171e-39
8.5111644e-39
8.5111725e-39
8.5112757e-39
8.5124998e-39
8.5209267e-39
8.512128e-39
8.5113281e-39
8.5111933e-39
8.511141e-39
8.5111188e-39
8.5111124e-39
8.5111206e-39
8.5112242e-39
8.5124486e-39
8.5209039e-39
8.5121054e-39
8.5113056e-39
8.511171e-39
8.5111188e-39
8.5110966e-39
8.5110902e-39
8.5110986e-39
8.5112023e-39
8.5124268e-39
8.5208966e-39
8.5120983e-39
8.5112989e-39
8.5111644e-39
8.5111124e-39
8.5110902e-39
8.511084e-39
8.5110924e-39
8.5111961e-39
8.5124207e-39
8.5209021e-39
8.5121052e-39
8.5113065e-39
8.5111725e-39
8.5111206e-39
8.5110986e-39
8.5110924e-39
8.5111009e-39
8.5112046e-39
8.5124292e-39
8.5209872e-39
8.5122052e-39
8.511409e-39
8.5112757e-39
8.5112242e-39
8.5112023e-39
8.5111961e-39
8.5112046e-39
8.5113084e-39
8.5125334e-39
8.5220114e-39
8.513414e-39
8.5126319e-39
8.5124998e-39
8.5124486e-39
8.5124268e-39
8.5124207e-39
8.5124292e-39
8.5125334e-39
8.5137638e-39
2.2578432e-38
2.255581e-38
2.2553747e-38
2.2553397e-38
2.2553261e-38
2.2553202e-38
2.2553183e-38
2.2553197e-38
2.2553413e-38
2.2556027e-38
2.255581e-38
2.2533339e-38
2.2531287e-38
2.2530939e-38
2.2530803e-38
2.2530744e-38
2.2530726e-38
2.2530743e-38
2.2530998e-38
2.2534099e-38
2.2553747e-38
2.2531287e-38
2.2529236e-38
2.2528888e-38
2.2528752e-38
2.2528694e-38
2.2528677e-38
2.2528696e-38
2.2528958e-38
2.2532096e-38
2.2553397e-38
2.2530939e-38
2.2528888e-38
2.252854e-38
2.2528404e-38
2.2528347e-38
2.252833e-38
2.252835e-38
2.2528614e-38
2.2531755e-38
2.2553261e-38
2.2530803e-38
2.2528752e-38
2.2528404e-38
2.2528269e-38
2.2528211e-38
2.2528195e-38
2.2528216e-38
2.252848e-38
2.2531622e-38
2.2553202e-38
2.2530744e-38
2.2528694e-38
2.2528347e-38
2.2528211e-38
2.2528154e-38
2.2528138e-38
2.2528159e-38
2.2528423e-38
2.2531566e-38
2.2553183e-38
2.2530726e-38
2.2528677e-38
2.252833e-38
2.2528195e-38
2.2528138e-38
2.2528121e-38
2.2528143e-38
2.2528407e-38
2.253155e-38
2.2553197e-38
2.2530743e-38
2.2528696e-38
2.252835e-38
2.2528216e-38
2.2528159e-38
2.2528143e-38
2.2528165e-38
2.2528429e-38
2.2531572e-38
2.2553413e-38
2.2530998e-38
2.2528958e-38
2.2528614e-38
2.252848e-38
2.2528423e-38
2.2528407e-38
2.2528429e-38
2.2528694e-38
2.2531838e-38
2.2556027e-38
2.2534099e-38
2.2532096e-38
2.2531755e-38
2.2531622e-38
2.2531566e-38
2.253155e-38
2.2531572e-38
2.2531838e-38
2.2534995e-38
6.0316074e-38
6.0257708e-38
6.025237e-38
6.0251461e-38
6.0251106e-38
6.0250952e-38
6.0250902e-38
6.0250938e-38
6.0251483e-38
6.0258076e-38
6.0257708e-38
6.0199728e-38
6.0194419e-38
6.0193513e-38
6.0193158e-38
6.0193005e-38
6.0192957e-38
6.0193002e-38
6.0193652e-38
6.0201541e-38
6.025237e-38
6.0194419e-38
6.0189114e-38
6.0188208e-38
6.0187853e-38
6.0187701e-38
6.0187656e-38
6.0187706e-38
6.0188373e-38
6.0196361e-38
6.0251461e-38
6.0193513e-38
6.0188208e-38
6.0187302e-38
6.0186948e-38
6.0186797e-38
6.0186753e-38
6.0186806e-38
6.0187478e-38
6.0195475e-38
6.0251106e-38
6.0193158e-38
6.0187853e-38
6.0186948e-38
6.0186595e-38
6.0186444e-38
6.0186401e-38
6.0186455e-38
6.0187129e-38
6.0195128e-38
6.0250952e-38
6.0193005e-38
6.0187701e-38
6.0186797e-38
6.0186444e-38
6.0186294e-38
6.0186251e-38
6.0186306e-38
6.0186981e-38
6.0194981e-38
6.0250902e-38
6.0192957e-38
6.0187656e-38
6.0186753e-38
6.0186401e-38
6.0186251e-38
6.0186209e-38
6.0186264e-38
6.018694e-38
6.019494e-38
6.0250938e-38
6.0193002e-38
6.0187706e-38
6.0186806e-38
6.0186455e-38
6.0186306e-38
6.0186264e-38
6.018632e-38
6.0186996e-38
6.0194996e-38
6.0251483e-38
6.0193652e-38
6.0188373e-38
6.0187478e-38
6.0187129e-38
6.0186981e-38
6.018694e-38
6.0186996e-38
6.0187672e-38
6.0195675e-38
6.0258076e-38
6.0201541e-38
6.0196361e-38
6.0195475e-38
6.0195128e-38
6.0194981e-38
6.019494e-38
6.0194996e-38
6.0195675e-38
6.0203712e-38
1.6355552e-37
1.6340266e-37
1.6338865e-37
1.6338625e-37
1.6338531e-37
1.633849e-37
1.6338477e-37
1.6338486e-37
1.6338625e-37
1.6340305e-37
1.6340266e-37
1.6325081e-37
1.6323688e-37
1.6323448e-37
1.6323354e-37
1.6323314e-37
1.6323301e-37
1.6323313e-37
1.632348e-37
1.632551e-37
1.6338865e-37
1.6323688e-37
1.6322295e-37
1.6322055e-37
1.6321962e-37
1.6321921e-37
1.6321909e-37
1.6321922e-37
1.6322094e-37
1.6324151e-37
1.6338625e-37
1.6323448e-37
1.6322055e-37
1.6321816e-37
1.6321723e-37
1.6321682e-37
1.6321671e-37
1.6321685e-37
1.6321858e-37
1.6323917e-37
1.6338531e-37
1.6323354e-37
1.6321962e-37
1.6321723e-37
1.6321629e-37
1.6321589e-37
1.6321578e-37
1.6321592e-37
1.6321766e-37
1.6323825e-37
1.633849e-37
1.6323314e-37
1.6321921e-37
1.6321682e-37
1.6321589e-37
1.6321549e-37
1.6321538e-37
1.6321552e-37
1.6321727e-37
1.6323786e-37
1.6338477e-37
1.6323301e-37
1.6321909e-37
1.6321671e-37
1.6321578e-37
1.6321538e-37
1.6321527e-37
1.6321541e-37
1.6321716e-37
1.6323775e-37
1.6338486e-37
1.6323313e-37
1.6321922e-37
1.6321685e-37
1.6321592e-37
1.6321552e-37
1.6321541e-37
1.6321556e-37
1.632173e-37
1.632379e-37
1.6338625e-37
1.632348e-37
1.6322094e-37
1.6321858e-37
1.6321766e-37
1.6321727e-37
1.6321716e-37
1.632173e-37
1.6321905e-37
1.6323965e-37
1.6340305e-37
1.632551e-37
1.6324151e-37
1.6323917e-37
1.6323825e-37
1.6323786e-37
1.6323775e-37
1.632379e-37
1.6323965e-37
1.6326035e-37
4.5057949e-37
4.5017293e-37
4.5013557e-37
4.5012914e-37
4.5012661e-37
4.5012551e-37
4.5012515e-37
4.5012539e-37
4.5012901e-37
4.5017243e-37
4.5017293e-37
4.4976904e-37
4.4973188e-37
4.4972547e-37
4.4972294e-37
4.4972185e-37
4.4972151e-37
4.4972182e-37
4.4972621e-37
4.4977922e-37
4.5013557e-37
4.4973188e-37
4.4969474e-37
4.4968833e-37
4.4968581e-37
4.4968472e-37
4.496844e-37
4.4968474e-37
4.4968926e-37
4.4974301e-37
4.5012914e-37
4.4972547e-37
4.4968833e-37
4.4968192e-37
4.496794e-37
4.4967832e-37
4.4967801e-37
4.4967837e-37
4.4968293e-37
4.4973674e-37
4.5012661e-37
4.4972294e-37
4.4968581e-37
4.496794e-37
4.4967688e-37
4.4967581e-37
4.496755e-37
4.4967588e-37
4.4968045e-37
4.4973428e-37
4.5012551e-37
4.4972185e-37
4.4968472e-37
4.4967832e-37
4.4967581e-37
4.4967474e-37
4.4967444e-37
4.4967482e-37
4.496794e-37
4.4973323e-37
4.5012515e-37
4.4972151e-37
4.496844e-37
4.4967801e-37
4.496755e-37
4.4967444e-37
4.4967413e-37
4.4967452e-37
4.496791e-37
4.4973293e-37
4.5012539e-37
4.4972182e-37
4.4968474e-37
4.4967837e-37
4.4967588e-37
4.4967482e-37
4.4967452e-37
4.4967491e-37
4.4967949e-37
4.4973333e-37
4.5012901e-37
4.4972621e-37
4.4968926e-37
4.4968293e-37
4.4968045e-37
4.496794e-37
4.496791e-37
4.4967949e-37
4.4968407e-37
4.4973793e-37
4.5017243e-37
4.4977922e-37
4.4974301e-37
4.4973674e-37
4.4973428e-37
4.4973323e-37
4.4973293e-37
4.4973333e-37
4.4973793e-37
4.4979201e-37
1.2613415e-36
1.2602432e-36
1.260142e-36
1.2601245e-36
1.2601176e-36
1.2601146e-36
1.2601136e-36
1.2601143e-36
1.2601238e-36
1.2602378e-36
1.2602432e-36
1.259152e-36
1.2590514e-36
1.2590339e-36
1.259027e-36
1.259024e-36
1.2590231e-36
1.2590239e-36
1.2590356e-36
1.2591763e-36
1.260142e-36
1.2590514e-36
1.2589508e-36
1.2589334e-36
1.2589265e-36
1.2589235e-36
1.2589226e-36
1.2589235e-36
1.2589356e-36
1.2590783e-36
1.2601245e-36
1.2590339e-36
1.2589334e-36
1.2589159e-36
1.258909e-36
1.2589061e-36
1.2589052e-36
1.2589062e-36
1.2589183e-36
1.2590613e-36
1.2601176e-36
1.259027e-36
1.2589265e-36
1.258909e-36
1.2589021e-36
1.2588992e-36
1.2588984e-36
1.2588994e-36
1.2589116e-36
1.2590545e-36
1.2601146e-36
1.259024e-36
1.2589235e-36
1.2589061e-36
1.2588992e-36
1.2588963e-36
1.2588955e-36
1.2588965e-36
1.2589087e-36
1.2590517e-36
1.2601136e-36
1.2590231e-36
1.2589226e-36
1.2589052e-36
1.2588984e-36
1.2588955e-36
1.2588946e-36
1.2588957e-36
1.2589079e-36
1.2590509e-36
1.2601143e-36
1.2590239e-36
1.2589235e-36
1.2589062e-36
1.2588994e-36
1.2588965e-36
1.2588957e-36
1.2588967e-36
1.2589089e-36
1.2590519e-36
1.2601238e-36
1.2590356e-36
1.2589356e-36
1.2589183e-36
1.2589116e-36
1.2589087e-36
1.2589079e-36
1.2589089e-36
1.2589212e-36
1.2590642e-36
1.2602378e-36
1.2591763e-36
1.2590783e-36
1.2590613e-36
1.2590545e-36
1.2590517e-36
1.2590509e-36
1.2590519e-36
1.2590642e-36
1.2592078e-36
3.5882715e-36
3.5852574e-36
3.5849791e-36
3.5849307e-36
3.5849115e-36
3.5849032e-36
3.5849005e-36
3.5849022e-36
3.5849277e-36
3.5852316e-36
3.5852574e-36
3.5822628e-36
3.581986e-36
3.5819377e-36
3.5819186e-36
3.5819103e-36
3.5819077e-36
3.58191e-36
3.5819416e-36
3.582321e-36
3.5849791e-36
3.581986e-36
3.5817094e-36
3.5816611e-36
3.581642e-36
3.5816338e-36
3.5816313e-36
3.5816339e-36
3.5816665e-36
3.5820516e-36
3.5849307e-36
3.5819377e-36
3.5816611e-36
3.5816128e-36
3.5815937e-36
3.5815856e-36
3.5815832e-36
3.5815859e-36
3.5816188e-36
3.5820045e-36
3.5849115e-36
3.5819186e-36
3.581642e-36
3.5815937e-36
3.5815747e-36
3.5815666e-36
3.5815642e-36
3.581567e-36
3.5816e-36
3.5819858e-36
3.5849032e-36
3.5819103e-36
3.5816338e-36
3.5815856e-36
3.5815666e-36
3.5815585e-36
3.5815562e-36
3.581559e-36
3.5815921e-36
3.5819779e-36
3.5849005e-36
3.5819077e-36
3.5816313e-36
3.5815832e-36
3.5815642e-36
3.5815562e-36
3.5815539e-36
3.5815567e-36
3.5815898e-36
3.5819757e-36
3.5849022e-36
3.58191e-36
3.5816339e-36
3.5815859e-36
3.581567e-36
3.581559e-36
3.5815567e-36
3.5815596e-36
3.5815927e-36
3.5819786e-36
3.5849277e-36
3.5819416e-36
3.5816665e-36
3.5816188e-36
3.5816e-36
3.5815921e-36
3.5815898e-36
3.5815927e-36
3.5816258e-36
3.5820118e-36
3.5852316e-36
3.582321e-36
3.5820516e-36
3.5820045e-36
3.5819858e-36
3.5819779e-36
3.5819757e-36
3.5819786e-36
3.5820118e-36
3.5823994e-36
1.0374234e-35
1.0365832e-35
1.0365054e-35
1.0364918e-35
1.0364864e-35
1.0364841e-35
1.0364833e-35
1.0364838e-35
1.0364907e-35
1.036573e-35
1.0365832e-35
1.0357484e-35
1.035671e-35
1.0356575e-35
1.0356521e-35
1.0356497e-35
1.035649e-35
1.0356496e-35
1.0356583e-35
1.0357623e-35
1.0365054e-35
1.035671e-35
1.0355937e-35
1.0355802e-35
1.0355748e-35
1.0355725e-35
1.0355718e-35
1.0355725e-35
1.0355815e-35
1.0356871e-35
1.0364918e-35
1.0356575e-35
1.0355802e-35
1.0355666e-35
1.0355612e-35
1.0355589e-35
1.0355583e-35
1.035559e-35
1.0355681e-35
1.0356739e-35
1.0364864e-35
1.0356521e-35
1.0355748e-35
1.0355612e-35
1.0355559e-35
1.0355536e-35
1.0355529e-35
1.0355537e-35
1.0355628e-35
1.0356686e-35
1.0364841e-35
1.0356497e-35
1.0355725e-35
1.0355589e-35
1.0355536e-35
1.0355513e-35
1.0355506e-35
1.0355514e-35
1.0355605e-35
1.0356664e-35
1.0364833e-35
1.035649e-35
1.0355718e-35
1.0355583e-35
1.0355529e-35
1.0355506e-35
1.03555e-35
1.0355508e-35
1.0355599e-35
1.0356657e-35
1.0364838e-35
1.0356496e-35
1.0355725e-35
1.035559e-35
1.0355537e-35
1.0355514e-35
1.0355508e-35
1.0355516e-35
1.0355607e-35
1.0356665e-35
1.0364907e-35
1.0356583e-35
1.0355815e-35
1.0355681e-35
1.0355628e-35
1.0355605e-35
1.0355599e-35
1.0355607e-35
1.0355698e-35
1.0356757e-35
1.036573e-35
1.0357623e-35
1.0356871e-35
1.0356739e-35
1.0356686e-35
1.0356664e-35
1.0356657e-35
1.0356665e-35
1.0356757e-35
1.035782e-35
3.0483646e-35
3.045985e-35
3.0457643e-35
3.0457255e-35
3.04571e-35
3.0457033e-35
3.0457012e-35
3.0457025e-35
3.0457217e-35
3.0459481e-35
3.045985e-35
3.0436207e-35
3.0434012e-35
3.0433625e-35
3.043347e-35
3.0433404e-35
3.0433383e-35
3.04334e-35
3.0433643e-35
3.043654e-35
3.0457643e-35
3.0434012e-35
3.0431818e-35
3.0431431e-35
3.0431277e-35
3.0431211e-35
3.0431191e-35
3.0431211e-35
3.0431462e-35
3.0434407e-35
3.0457255e-35
3.0433625e-35
3.0431431e-35
3.0431044e-35
3.043089e-35
3.0430824e-35
3.0430805e-35
3.0430826e-35
3.043108e-35
3.0434029e-35
3.04571e-35
3.043347e-35
3.0431277e-35
3.043089e-35
3.0430736e-35
3.0430671e-35
3.0430652e-35
3.0430674e-35
3.0430929e-35
3.0433879e-35
3.0457033e-35
3.0433404e-35
3.0431211e-35
3.0430824e-35
3.0430671e-35
3.0430605e-35
3.0430587e-35
3.0430609e-35
3.0430864e-35
3.0433815e-35
3.0457012e-35
3.0433383e-35
3.0431191e-35
3.0430805e-35
3.0430652e-35
3.0430587e-35
3.0430569e-35
3.0430591e-35
3.0430846e-35
3.0433797e-35
3.0457025e-35
3.04334e-35
3.0431211e-35
3.0430826e-35
3.0430674e-35
3.0430609e-35
3.0430591e-35
3.0430614e-35
3.0430869e-35
3.043382e-35
3.0457217e-35
3.0433643e-35
3.0431462e-35
3.043108e-35
3.0430929e-35
3.0430864e-35
3.0430846e-35
3.0430869e-35
3.0431125e-35
3.0434076e-35
3.0459481e-35
3.043654e-35
3.0434407e-35
3.0434029e-35
3.0433879e-35
3.0433815e-35
3.0433797e-35
3.043382e-35
3.0434076e-35
3.043704e-35
9.1040628e-35
9.0972165e-35
9.0965802e-35
9.0964676e-35
9.0964227e-35
9.0964032e-35
9.0963969e-35
9.0964006e-35
9.0964546e-35
9.0970873e-35
9.0972165e-35
9.0904141e-35
9.0897811e-35
9.0896688e-35
9.089624e-35
9.0896046e-35
9.0895985e-35
9.0896036e-35
9.0896726e-35
9.0904928e-35
9.0965802e-35
9.0897811e-35
9.0891485e-35
9.0890362e-35
9.0889915e-35
9.0889722e-35
9.0889664e-35
9.0889722e-35
9.0890437e-35
9.0898782e-35
9.0964676e-35
9.0896688e-35
9.0890362e-35
9.088924e-35
9.0888793e-35
9.0888602e-35
9.0888546e-35
9.0888607e-35
9.0889329e-35
9.0897687e-35
9.0964227e-35
9.089624e-35
9.0889915e-35
9.0888793e-35
9.0888347e-35
9.0888156e-35
9.0888102e-35
9.0888165e-35
9.088889e-35
9.089725e-35
9.0964032e-35
9.0896046e-35
9.0889722e-35
9.0888602e-35
9.0888156e-35
9.0887966e-35
9.0887912e-35
9.0887977e-35
9.0888703e-35
9.0897064e-35
9.0963969e-35
9.0895985e-35
9.0889664e-35
9.0888546e-35
9.0888102e-35
9.0887912e-35
9.0887859e-35
9.0887924e-35
9.0888651e-35
9.0897013e-35
9.0964006e-35
9.0896036e-35
9.0889722e-35
9.0888607e-35
9.0888165e-35
9.0887977e-35
9.0887924e-35
9.088799e-35
9.0888717e-35
9.0897079e-35
9.0964546e-35
9.0896726e-35
9.0890437e-35
9.0889329e-35
9.088889e-35
9.0888703e-35
9.0888651e-35
9.0888717e-35
9.0889444e-35
9.0897808e-35
9.0970873e-35
9.0904928e-35
9.0898782e-35
9.0897687e-35
9.089725e-35
9.0897064e-35
9.0897013e-35
9.0897079e-35
9.0897808e-35
9.0906206e-35
2.7635909e-34
2.7615898e-34
2.7614034e-34
2.7613703e-34
2.761357e-34
2.7613513e-34
2.7613494e-34
2.7613505e-34
2.7613659e-34
2.7615455e-34
2.7615898e-34
2.7596015e-34
2.7594161e-34
2.759383e-34
2.7593698e-34
2.7593641e-34
2.7593623e-34
2.7593637e-34
2.7593837e-34
2.7596198e-34
2.7614034e-34
2.7594161e-34
2.7592308e-34
2.7591977e-34
2.7591845e-34
2.7591788e-34
2.7591771e-34
2.7591788e-34
2.7591995e-34
2.7594398e-34
2.7613703e-34
2.759383e-34
2.7591977e-34
2.7591647e-34
2.7591515e-34
2.7591458e-34
2.7591442e-34
2.759146e-34
2.7591669e-34
2.7594076e-34
2.761357e-34
2.7593698e-34
2.7591845e-34
2.7591515e-34
2.7591383e-34
2.7591327e-34
2.7591311e-34
2.7591329e-34
2.7591539e-34
2.7593947e-34
2.7613513e-34
2.7593641e-34
2.7591788e-34
2.7591458e-34
2.7591327e-34
2.759127e-34
2.7591255e-34
2.7591274e-34
2.7591484e-34
2.7593892e-34
2.7613494e-34
2.7593623e-34
2.7591771e-34
2.7591442e-34
2.7591311e-34
2.7591255e-34
2.7591239e-34
2.7591258e-34
2.7591468e-34
2.7593877e-34
2.7613505e-34
2.7593637e-34
2.7591788e-34
2.759146e-34
2.7591329e-34
2.7591274e-34
2.7591258e-34
2.7591277e-34
2.7591488e-34
2.7593897e-34
2.7613659e-34
2.7593837e-34
2.7591995e-34
2.7591669e-34
2.7591539e-34
2.7591484e-34
2.7591468e-34
2.7591488e-34
2.7591698e-34
2.7594108e-34
2.7615455e-34
2.7596198e-34
2.7594398e-34
2.7594076e-34
2.7593947e-34
2.7593892e-34
2.7593877e-34
2.7593897e-34
2.7594108e-34
2.7596527e-34
8.5268817e-34
8.5209395e-34
8.5203849e-34
8.5202857e-34
8.520246e-34
8.5202287e-34
8.5202231e-34
8.5202262e-34
8.5202709e-34
8.5207891e-34
8.5209395e-34
8.5150352e-34
8.5144833e-34
8.5143844e-34
8.5143447e-34
8.5143275e-34
8.5143222e-34
8.5143265e-34
8.514385e-34
8.5150758e-34
8.5203849e-34
8.5144833e-34
8.5139318e-34
8.5138329e-34
8.5137933e-34
8.5137762e-34
8.5137711e-34
8.5137761e-34
8.5138369e-34
8.5145408e-34
8.5202857e-34
8.5143844e-34
8.5138329e-34
8.5137341e-34
8.5136945e-34
8.5136775e-34
8.5136726e-34
8.513678e-34
8.5137394e-34
8.5144445e-34
8.520246e-34
8.5143447e-34
8.5137933e-34
8.5136945e-34
8.513655e-34
8.5136381e-34
8.5136333e-34
8.5136388e-34
8.5137005e-34
8.5144059e-34
8.5202287e-34
8.5143275e-34
8.5137762e-34
8.5136775e-34
8.5136381e-34
8.5136213e-34
8.5136165e-34
8.5136222e-34
8.513684e-34
8.5143894e-34
8.5202231e-34
8.5143222e-34
8.5137711e-34
8.5136726e-34
8.5136333e-34
8.5136165e-34
8.5136119e-34
8.5136175e-34
8.5136794e-34
8.5143849e-34
8.5202262e-34
8.5143265e-34
8.5137761e-34
8.513678e-34
8.5136388e-34
8.5136222e-34
8.5136175e-34
8.5136232e-34
8.5136851e-34
8.5143906e-34
8.5202709e-34
8.514385e-34
8.5138369e-34
8.5137394e-34
8.5137005e-34
8.513684e-34
8.5136794e-34
8.5136851e-34
8.513747e-34
8.5144527e-34
8.5207891e-34
8.5150758e-34
8.5145408e-34
8.5144445e-34
8.5144059e-34
8.5143894e-34
8.5143849e-34
8.5143906e-34
8.5144527e-34
8.5151612e-34
2.6741594e-33
2.6723668e-33
2.6721992e-33
2.672169e-33
2.6721569e-33
2.6721517e-33
2.6721499e-33
2.6721509e-33
2.672164e-33
2.6723159e-33
2.6723668e-33
2.6705856e-33
2.6704188e-33
2.6703887e-33
2.6703766e-33
2.6703714e-33
2.6703697e-33
2.6703711e-33
2.6703885e-33
2.670594e-33
2.6721992e-33
2.6704188e-33
2.670252e-33
2.670222e-33
2.6702099e-33
2.6702047e-33
2.6702032e-33
2.6702047e-33
2.6702228e-33
2.6704324e-33
2.672169e-33
2.6703887e-33
2.670222e-33
2.6701919e-33
2.6701799e-33
2.6701747e-33
2.6701732e-33
2.6701748e-33
2.6701932e-33
2.6704031e-33
2.6721569e-33
2.6703766e-33
2.6702099e-33
2.6701799e-33
2.6701678e-33
2.6701627e-33
2.6701612e-33
2.6701629e-33
2.6701814e-33
2.6703914e-33
2.6721517e-33
2.6703714e-33
2.6702047e-33
2.6701747e-33
2.6701627e-33
2.6701576e-33
2.6701561e-33
2.6701578e-33
2.6701763e-33
2.6703864e-33
2.6721499e-33
2.6703697e-33
2.6702032e-33
2.6701732e-33
2.6701612e-33
2.6701561e-33
2.6701547e-33
2.6701564e-33
2.6701749e-33
2.670385e-33
2.6721509e-33
2.6703711e-33
2.6702047e-33
2.6701748e-33
2.6701629e-33
2.6701578e-33
2.6701564e-33
2.6701582e-33
2.6701767e-33
2.6703867e-33
2.672164e-33
2.6703885e-33
2.6702228e-33
2.6701932e-33
2.6701814e-33
2.6701763e-33
2.6701749e-33
2.6701767e-33
2.6701952e-33
2.6704053e-33
2.6723159e-33
2.670594e-33
2.6704324e-33
2.6704031e-33
2.6703914e-33
2.6703864e-33
2.670385e-33
2.6703867e-33
2.6704053e-33
2.6706162e-33
8.5243667e-33
8.518873e-33
8.518358e-33
8.518265e-33
8.5182276e-33
8.5182113e-33
8.518206e-33
8.5182088e-33
8.5182482e-33
8.5187005e-33
8.518873e-33
8.5134139e-33
8.5129015e-33
8.5128087e-33
8.5127713e-33
8.5127551e-33
8.5127501e-33
8.5127541e-33
8.5128071e-33
8.5134285e-33
8.518358e-33
8.5129015e-33
8.5123894e-33
8.5122967e-33
8.5122593e-33
8.5122432e-33
8.5122384e-33
8.5122431e-33
8.5122983e-33
8.5129326e-33
8.518265e-33
8.5128087e-33
8.5122967e-33
8.5122039e-33
8.5121667e-33
8.5121507e-33
8.5121461e-33
8.512151e-33
8.5122069e-33
8.5128423e-33
8.5182276e-33
8.5127713e-33
8.5122593e-33
8.5121667e-33
8.5121294e-33
8.5121135e-33
8.512109e-33
8.5121142e-33
8.5121702e-33
8.5128059e-33
8.5182113e-33
8.5127551e-33
8.5122432e-33
8.5121507e-33
8.5121135e-33
8.5120976e-33
8.5120932e-33
8.5120985e-33
8.5121547e-33
8.5127904e-33
8.518206e-33
8.5127501e-33
8.5122384e-33
8.5121461e-33
8.512109e-33
8.5120932e-33
8.5120888e-33
8.5120941e-33
8.5121504e-33
8.5127861e-33
8.5182088e-33
8.5127541e-33
8.5122431e-33
8.512151e-33
8.5121142e-33
8.5120985e-33
8.5120941e-33
8.5120995e-33
8.5121557e-33
8.5127915e-33
8.5182482e-33
8.5128071e-33
8.5122983e-33
8.5122069e-33
8.5121702e-33
8.5121547e-33
8.5121504e-33
8.5121557e-33
8.512212e-33
8.512848e-33
8.5187005e-33
8.5134285e-33
8.5129326e-33
8.5128423e-33
8.5128059e-33
8.5127904e-33
8.5127861e-33
8.5127915e-33
8.512848e-33
8.5134863e-33
2.761889e-32
2.7601786e-32
2.760018e-32
2.7599888e-32
2.759977e-32
2.7599719e-32
2.7599703e-32
2.7599711e-32
2.7599831e-32
2.76012e-32
2.7601786e-32
2.758479e-32
2.7583191e-32
2.7582901e-32
2.7582783e-32
2.7582732e-32
2.7582716e-32
2.7582729e-32
2.7582892e-32
2.7584803e-32
2.760018e-32
2.7583191e-32
2.7581594e-32
2.7581303e-32
2.7581186e-32
2.7581135e-32
2.758112e-32
2.7581135e-32
2.7581305e-32
2.7583257e-32
2.7599888e-32
2.7582901e-32
2.7581303e-32
2.7581012e-32
2.7580895e-32
2.7580845e-32
2.7580831e-32
2.7580846e-32
2.7581019e-32
2.7582974e-32
2.759977e-32
2.7582783e-32
2.7581186e-32
2.7580895e-32
2.7580778e-32
2.7580728e-32
2.7580714e-32
2.758073e-32
2.7580904e-32
2.758286e-32
2.7599719e-32
2.7582732e-32
2.7581135e-32
2.7580845e-32
2.7580728e-32
2.7580678e-32
2.7580664e-32
2.7580681e-32
2.7580855e-32
2.7582811e-32
2.7599703e-32
2.7582716e-32
2.758112e-32
2.7580831e-32
2.7580714e-32
2.7580664e-32
2.7580651e-32
2.7580667e-32
2.7580841e-32
2.7582798e-32
2.7599711e-32
2.7582729e-32
2.7581135e-32
2.7580846e-32
2.758073e-32
2.7580681e-32
2.7580667e-32
2.7580684e-32
2.7580858e-32
2.7582814e-32
2.7599831e-32
2.7582892e-32
2.7581305e-32
2.7581019e-32
2.7580904e-32
2.7580855e-32
2.7580841e-32
2.7580858e-32
2.7581032e-32
2.7582989e-32
2.76012e-32
2.7584803e-32
2.7583257e-32
2.7582974e-32
2.758286e-32
2.7582811e-32
2.7582798e-32
2.7582814e-32
2.7582989e-32
2.7584953e-32
9.0950498e-32
9.0896407e-32
9.0891317e-32
9.0890388e-32
9.0890012e-32
9.0889849e-32
9.0889796e-32
9.0889823e-32
9.0890194e-32
9.08944e-32
9.0896407e-32
9.0842656e-32
9.083759e-32
9.0836663e-32
9.0836288e-32
9.0836126e-32
9.0836075e-32
9.0836115e-32
9.0836627e-32
9.0842598e-32
9.0891317e-32
9.083759e-32
9.0832527e-32
9.0831601e-32
9.0831226e-32
9.0831065e-32
9.0831017e-32
9.0831063e-32
9.0831599e-32
9.0837704e-32
9.0890388e-32
9.0836663e-32
9.0831601e-32
9.0830675e-32
9.0830301e-32
9.0830141e-32
9.0830095e-32
9.0830145e-32
9.0830687e-32
9.0836803e-32
9.0890012e-32
9.0836288e-32
9.0831226e-32
9.0830301e-32
9.0829928e-32
9.0829768e-32
9.0829723e-32
9.0829775e-32
9.083032e-32
9.0836439e-32
9.0889849e-32
9.0836126e-32
9.0831065e-32
9.0830141e-32
9.0829768e-32
9.0829609e-32
9.0829565e-32
9.0829617e-32
9.0830163e-32
9.0836283e-32
9.0889796e-32
9.0836075e-32
9.0831017e-32
9.0830095e-32
9.0829723e-32
9.0829565e-32
9.0829521e-32
9.0829574e-32
9.0830121e-32
9.0836241e-32
9.0889823e-32
9.0836115e-32
9.0831063e-32
9.0830145e-32
9.0829775e-32
9.0829617e-32
9.0829574e-32
9.0829628e-32
9.0830174e-32
9.0836295e-32
9.0890194e-32
9.0836627e-32
9.0831599e-32
9.0830687e-32
9.083032e-32
9.0830163e-32
9.0830121e-32
9.0830174e-32
9.0830721e-32
9.0836843e-32
9.08944e-32
9.0842598e-32
9.0837704e-32
9.0836803e-32
9.0836439e-32
9.0836283e-32
9.0836241e-32
9.0836295e-32
9.0836843e-32
9.0842987e-32
3.0439529e-31
3.0422154e-31
3.0420515e-31
3.0420215e-31
3.0420093e-31
3.042004e-31
3.0420023e-31
3.0420032e-31
3.0420148e-31
3.0421462e-31
3.0422154e-31
3.0404887e-31
3.0403256e-31
3.0402957e-31
3.0402835e-31
3.0402783e-31
3.0402766e-31
3.0402779e-31
3.0402942e-31
3.0404839e-31
3.0420515e-31
3.0403256e-31
3.0401627e-31
3.0401327e-31
3.0401206e-31
3.0401154e-31
3.0401138e-31
3.0401153e-31
3.0401324e-31
3.0403265e-31
3.0420215e-31
3.0402957e-31
3.0401327e-31
3.0401028e-31
3.0400907e-31
3.0400855e-31
3.040084e-31
3.0400856e-31
3.0401029e-31
3.0402974e-31
3.0420093e-31
3.0402835e-31
3.0401206e-31
3.0400907e-31
3.0400786e-31
3.0400734e-31
3.0400719e-31
3.0400736e-31
3.040091e-31
3.0402856e-31
3.042004e-31
3.0402783e-31
3.0401154e-31
3.0400855e-31
3.0400734e-31
3.0400682e-31
3.0400668e-31
3.0400685e-31
3.0400859e-31
3.0402806e-31
3.0420023e-31
3.0402766e-31
3.0401138e-31
3.040084e-31
3.0400719e-31
3.0400668e-31
3.0400654e-31
3.0400671e-31
3.0400846e-31
3.0402792e-31
3.0420032e-31
3.0402779e-31
3.0401153e-31
3.0400856e-31
3.0400736e-31
3.0400685e-31
3.0400671e-31
3.0400688e-31
3.0400863e-31
3.040281e-31
3.0420148e-31
3.0402942e-31
3.0401324e-31
3.0401029e-31
3.040091e-31
3.0400859e-31
3.0400846e-31
3.0400863e-31
3.0401038e-31
3.0402985e-31
3.0421462e-31
3.0404839e-31
3.0403265e-31
3.0402974e-31
3.0402856e-31
3.0402806e-31
3.0402792e-31
3.040281e-31
3.0402985e-31
3.0404939e-31
1.0353266e-30
1.0347597e-30
1.0347062e-30
1.0346963e-30
1.0346923e-30
1.0346906e-30
1.03469e-30
1.0346903e-30
1.034694e-30
1.0347356e-30
1.0347597e-30
1.0341964e-30
1.0341431e-30
1.0341332e-30
1.0341292e-30
1.0341275e-30
1.034127e-30
1.0341274e-30
1.0341327e-30
1.0341939e-30
1.0347062e-30
1.0341431e-30
1.0340898e-30
1.03408e-30
1.034076e-30
1.0340743e-30
1.0340737e-30
1.0340742e-30
1.0340798e-30
1.0341425e-30
1.0346963e-30
1.0341332e-30
1.03408e-30
1.0340701e-30
1.0340662e-30
1.0340644e-30
1.034064e-30
1.0340645e-30
1.0340701e-30
1.034133e-30
1.0346923e-30
1.0341292e-30
1.034076e-30
1.0340662e-30
1.0340622e-30
1.0340605e-30
1.03406e-30
1.0340605e-30
1.0340662e-30
1.0341291e-30
1.0346906e-30
1.0341275e-30
1.0340743e-30
1.0340644e-30
1.0340605e-30
1.0340588e-30
1.0340583e-30
1.0340589e-30
1.0340645e-30
1.0341274e-30
1.03469e-30
1.034127e-30
1.0340737e-30
1.034064e-30
1.03406e-30
1.0340583e-30
1.0340578e-30
1.0340584e-30
1.0340641e-30
1.034127e-30
1.0346903e-30
1.0341274e-30
1.0340742e-30
1.0340645e-30
1.0340605e-30
1.0340589e-30
1.0340584e-30
1.034059e-30
1.0340646e-30
1.0341276e-30
1.034694e-30
1.0341327e-30
1.0340798e-30
1.0340701e-30
1.0340662e-30
1.0340645e-30
1.0340641e-30
1.0340646e-30
1.0340703e-30
1.0341333e-30
1.0347356e-30
1.0341939e-30
1.0341425e-30
1.034133e-30
1.0341291e-30
1.0341274e-30
1.034127e-30
1.0341276e-30
1.0341333e-30
1.0341964e-30
3.5784015e-30
3.5765234e-30
3.5763456e-30
3.5763127e-30
3.5762993e-30
3.5762934e-30
3.5762915e-30
3.5762925e-30
3.5763046e-30
3.5764388e-30
3.5765234e-30
3.5746568e-30
3.5744799e-30
3.5744471e-30
3.5744337e-30
3.5744279e-30
3.5744261e-30
3.5744275e-30
3.5744449e-30
3.5746461e-30
3.5763456e-30
3.5744799e-30
3.574303e-30
3.5742702e-30
3.5742569e-30
3.5742511e-30
3.5742494e-30
3.5742511e-30
3.5742694e-30
3.5744756e-30
3.5763127e-30
3.5744471e-30
3.5742702e-30
3.5742374e-30
3.5742241e-30
3.5742184e-30
3.5742168e-30
3.5742185e-30
3.5742371e-30
3.5744437e-30
3.5762993e-30
3.5744337e-30
3.5742569e-30
3.5742241e-30
3.5742108e-30
3.5742051e-30
3.5742035e-30
3.5742054e-30
3.574224e-30
3.5744307e-30
3.5762934e-30
3.5744279e-30
3.5742511e-30
3.5742184e-30
3.5742051e-30
3.5741994e-30
3.5741979e-30
3.5741997e-30
3.5742184e-30
3.5744252e-30
3.5762915e-30
3.5744261e-30
3.5742494e-30
3.5742168e-30
3.5742035e-30
3.5741979e-30
3.5741963e-30
3.5741982e-30
3.5742169e-30
3.5744237e-30
3.5762925e-30
3.5744275e-30
3.5742511e-30
3.5742185e-30
3.5742054e-30
3.5741997e-30
3.5741982e-30
3.5742001e-30
3.5742189e-30
3.5744257e-30
3.5763046e-30
3.5744449e-30
3.5742694e-30
3.5742371e-30
3.574224e-30
3.5742184e-30
3.5742169e-30
3.5742189e-30
3.5742376e-30
3.5744444e-30
3.5764388e-30
3.5746461e-30
3.5744756e-30
3.5744437e-30
3.5744307e-30
3.5744252e-30
3.5744237e-30
3.5744257e-30