/*--------------------------------*- C++ -*----------------------------------*\
| =========                 |                                                 |
| \\      /  F ield         | OpenFOAM: The Open Source CFD Toolbox           |
|  \\    /   O peration     | Version:  dev                                   |
|   \\  /    A nd           | Web:      www.OpenFOAM.org                      |
|    \\/     M anipulation  |                                                 |
\*---------------------------------------------------------------------------*/
FoamFile
{
    version     2.0;
    format      ascii;
    class       volScalarField;
    location    "48.995";
    object      A;
}
// * * * * * * * * * * * * * * * * * * * * * * * * * * * * * * * * * * * * * //

dimensions      [0 0 0 0 1 0 0];

internalField   nonuniform List<scalar> 
10000
(
2.4805749e-33
2.4752446e-33
2.4732074e-33
2.4725149e-33
2.472312e-33
2.4722636e-33
2.4722716e-33
2.4723454e-33
2.472594e-33
2.4732676e-33
2.4752446e-33
2.4699435e-33
2.4679152e-33
2.4672254e-33
2.4670233e-33
2.4669756e-33
2.4669855e-33
2.4670669e-33
2.4673421e-33
2.4681042e-33
2.4732074e-33
2.4679152e-33
2.4658909e-33
2.4652024e-33
2.4650009e-33
2.4649537e-33
2.4649652e-33
2.4650519e-33
2.4653414e-33
2.4661296e-33
2.4725149e-33
2.4672254e-33
2.4652024e-33
2.4645145e-33
2.4643132e-33
2.4642663e-33
2.4642786e-33
2.4643677e-33
2.4646624e-33
2.4654579e-33
2.472312e-33
2.4670233e-33
2.4650009e-33
2.4643132e-33
2.464112e-33
2.4640652e-33
2.4640779e-33
2.4641677e-33
2.464464e-33
2.4652613e-33
2.4722636e-33
2.4669756e-33
2.4649537e-33
2.4642663e-33
2.4640652e-33
2.4640185e-33
2.4640313e-33
2.4641213e-33
2.464418e-33
2.4652158e-33
2.4722716e-33
2.4669855e-33
2.4649652e-33
2.4642786e-33
2.4640779e-33
2.4640313e-33
2.4640441e-33
2.4641342e-33
2.464431e-33
2.4652289e-33
2.4723454e-33
2.4670669e-33
2.4650519e-33
2.4643677e-33
2.4641677e-33
2.4641213e-33
2.4641342e-33
2.4642243e-33
2.4645213e-33
2.4653193e-33
2.472594e-33
2.4673421e-33
2.4653414e-33
2.4646624e-33
2.464464e-33
2.464418e-33
2.464431e-33
2.4645213e-33
2.4648185e-33
2.4656172e-33
2.4732676e-33
2.4681042e-33
2.4661296e-33
2.4654579e-33
2.4652613e-33
2.4652158e-33
2.4652289e-33
2.4653193e-33
2.4656172e-33
2.4664184e-33
9.0295986e-33
9.01092e-33
9.0036084e-33
9.0011176e-33
9.0003875e-33
9.0002133e-33
9.0002414e-33
9.0005055e-33
9.0013968e-33
9.0039153e-33
9.01092e-33
8.9923417e-33
8.9850613e-33
8.98258e-33
8.9818529e-33
8.9816811e-33
8.9817164e-33
8.9820078e-33
8.9829957e-33
8.9858377e-33
9.0036084e-33
8.9850613e-33
8.9777949e-33
8.9753186e-33
8.9745933e-33
8.9744234e-33
8.9744646e-33
8.9747754e-33
8.975815e-33
8.9787517e-33
9.0011176e-33
8.98258e-33
8.9753186e-33
8.9728444e-33
8.9721199e-33
8.971951e-33
8.9719951e-33
8.9723143e-33
8.973373e-33
8.9763361e-33
9.0003875e-33
8.9818529e-33
8.9745933e-33
8.9721199e-33
8.9713958e-33
8.9712273e-33
8.9712724e-33
8.9715945e-33
8.972659e-33
8.9756288e-33
9.0002133e-33
8.9816811e-33
8.9744234e-33
8.971951e-33
8.9712273e-33
8.971059e-33
8.9711046e-33
8.9714274e-33
8.9724934e-33
8.9754648e-33
9.0002414e-33
8.9817164e-33
8.9744646e-33
8.9719951e-33
8.9712724e-33
8.9711046e-33
8.9711503e-33
8.9714735e-33
8.9725399e-33
8.9755117e-33
9.0005055e-33
8.9820078e-33
8.9747754e-33
8.9723143e-33
8.9715945e-33
8.9714274e-33
8.9714735e-33
8.9717968e-33
8.9728636e-33
8.9758361e-33
9.0013968e-33
8.9829957e-33
8.975815e-33
8.973373e-33
8.972659e-33
8.9724934e-33
8.9725399e-33
8.9728636e-33
8.9739314e-33
8.9769062e-33
9.0039153e-33
8.9858377e-33
8.9787517e-33
8.9763361e-33
8.9756288e-33
8.9754648e-33
8.9755117e-33
8.9758361e-33
8.9769062e-33
8.9798904e-33
2.1555898e-32
2.1512736e-32
2.1495676e-32
2.1489852e-32
2.1488143e-32
2.1487735e-32
2.1487799e-32
2.1488411e-32
2.1490476e-32
2.1496492e-32
2.1512736e-32
2.1469803e-32
2.1452815e-32
2.1447012e-32
2.144531e-32
2.1444908e-32
2.1444989e-32
2.1445665e-32
2.144796e-32
2.1454746e-32
2.1495676e-32
2.1452815e-32
2.1435859e-32
2.1430068e-32
2.142837e-32
2.1427972e-32
2.1428067e-32
2.142879e-32
2.1431208e-32
2.1438218e-32
2.1489852e-32
2.1447012e-32
2.1430068e-32
2.1424282e-32
2.1422586e-32
2.1422191e-32
2.1422293e-32
2.1423035e-32
2.1425499e-32
2.1432572e-32
2.1488143e-32
2.144531e-32
2.142837e-32
2.1422586e-32
2.1420891e-32
2.1420497e-32
2.1420601e-32
2.142135e-32
2.1423827e-32
2.1430917e-32
2.1487735e-32
2.1444908e-32
2.1427972e-32
2.1422191e-32
2.1420497e-32
2.1420102e-32
2.1420208e-32
2.1420959e-32
2.1423439e-32
2.1430532e-32
2.1487799e-32
2.1444989e-32
2.1428067e-32
2.1422293e-32
2.1420601e-32
2.1420208e-32
2.1420314e-32
2.1421065e-32
2.1423547e-32
2.1430641e-32
2.1488411e-32
2.1445665e-32
2.142879e-32
2.1423035e-32
2.142135e-32
2.1420959e-32
2.1421065e-32
2.1421818e-32
2.14243e-32
2.1431396e-32
2.1490476e-32
2.144796e-32
2.1431208e-32
2.1425499e-32
2.1423827e-32
2.1423439e-32
2.1423547e-32
2.14243e-32
2.1426785e-32
2.1433886e-32
2.1496492e-32
2.1454746e-32
2.1438218e-32
2.1432572e-32
2.1430917e-32
2.1430532e-32
2.1430641e-32
2.1431396e-32
2.1433886e-32
2.144101e-32
4.8816527e-32
4.8721873e-32
4.8684272e-32
4.867141e-32
4.8667632e-32
4.8666728e-32
4.8666865e-32
4.8668199e-32
4.8672697e-32
4.8685855e-32
4.8721873e-32
4.8627715e-32
4.859027e-32
4.8577455e-32
4.8573692e-32
4.85728e-32
4.8572976e-32
4.8574456e-32
4.857947e-32
4.8594366e-32
4.8684272e-32
4.859027e-32
4.8552895e-32
4.8540106e-32
4.8536352e-32
4.853547e-32
4.8535677e-32
4.8537261e-32
4.8542552e-32
4.8557955e-32
4.867141e-32
4.8577455e-32
4.8540106e-32
4.8527328e-32
4.8523578e-32
4.8522701e-32
4.8522924e-32
4.8524552e-32
4.8529945e-32
4.8545489e-32
4.8667632e-32
4.8573692e-32
4.8536352e-32
4.8523578e-32
4.851983e-32
4.8518955e-32
4.8519184e-32
4.8520827e-32
4.8526251e-32
4.8541831e-32
4.8666728e-32
4.85728e-32
4.853547e-32
4.8522701e-32
4.8518955e-32
4.8518082e-32
4.8518313e-32
4.8519961e-32
4.8525392e-32
4.8540981e-32
4.8666865e-32
4.8572976e-32
4.8535677e-32
4.8522924e-32
4.8519184e-32
4.8518313e-32
4.8518545e-32
4.8520194e-32
4.8525628e-32
4.8541219e-32
4.8668199e-32
4.8574456e-32
4.8537261e-32
4.8524552e-32
4.8520827e-32
4.8519961e-32
4.8520194e-32
4.8521844e-32
4.852728e-32
4.8542874e-32
4.8672697e-32
4.857947e-32
4.8542552e-32
4.8529945e-32
4.8526251e-32
4.8525392e-32
4.8525628e-32
4.852728e-32
4.8532721e-32
4.8548327e-32
4.8685855e-32
4.8594366e-32
4.8557955e-32
4.8545489e-32
4.8541831e-32
4.8540981e-32
4.8541219e-32
4.8542874e-32
4.8548327e-32
4.8563983e-32
1.1061681e-31
1.1040916e-31
1.1032639e-31
1.1029802e-31
1.1028968e-31
1.1028768e-31
1.1028797e-31
1.1029088e-31
1.1030063e-31
1.1032905e-31
1.1040916e-31
1.102026e-31
1.1012016e-31
1.1009189e-31
1.1008358e-31
1.1008161e-31
1.1008199e-31
1.1008522e-31
1.1009614e-31
1.1012848e-31
1.1032639e-31
1.1012016e-31
1.1003787e-31
1.1000966e-31
1.1000137e-31
1.0999942e-31
1.0999987e-31
1.1000334e-31
1.1001488e-31
1.1004836e-31
1.1029802e-31
1.1009189e-31
1.1000966e-31
1.0998148e-31
1.099732e-31
1.0997126e-31
1.0997174e-31
1.0997531e-31
1.0998708e-31
1.1002088e-31
1.1028968e-31
1.1008358e-31
1.1000137e-31
1.099732e-31
1.0996492e-31
1.0996299e-31
1.0996349e-31
1.0996709e-31
1.0997893e-31
1.100128e-31
1.1028768e-31
1.1008161e-31
1.0999942e-31
1.0997126e-31
1.0996299e-31
1.0996106e-31
1.0996156e-31
1.0996517e-31
1.0997703e-31
1.1001092e-31
1.1028797e-31
1.1008199e-31
1.0999987e-31
1.0997174e-31
1.0996349e-31
1.0996156e-31
1.0996207e-31
1.0996568e-31
1.0997754e-31
1.1001144e-31
1.1029088e-31
1.1008522e-31
1.1000334e-31
1.0997531e-31
1.0996709e-31
1.0996517e-31
1.0996568e-31
1.0996929e-31
1.0998116e-31
1.1001507e-31
1.1030063e-31
1.1009614e-31
1.1001488e-31
1.0998708e-31
1.0997893e-31
1.0997703e-31
1.0997754e-31
1.0998116e-31
1.0999304e-31
1.1002697e-31
1.1032905e-31
1.1012848e-31
1.1004836e-31
1.1002088e-31
1.100128e-31
1.1001092e-31
1.1001144e-31
1.1001507e-31
1.1002697e-31
1.1006102e-31
2.5342996e-31
2.5296958e-31
2.5278549e-31
2.5272229e-31
2.5270368e-31
2.5269921e-31
2.5269985e-31
2.5270623e-31
2.5272758e-31
2.5278937e-31
2.5296958e-31
2.5251155e-31
2.523282e-31
2.5226523e-31
2.5224669e-31
2.5224229e-31
2.5224312e-31
2.5225025e-31
2.5227425e-31
2.5234496e-31
2.5278549e-31
2.523282e-31
2.5214519e-31
2.5208234e-31
2.5206385e-31
2.5205949e-31
2.5206048e-31
2.5206814e-31
2.5209356e-31
2.5216687e-31
2.5272229e-31
2.5226523e-31
2.5208234e-31
2.5201954e-31
2.5200107e-31
2.5199674e-31
2.5199781e-31
2.520057e-31
2.5203164e-31
2.5210568e-31
2.5270368e-31
2.5224669e-31
2.5206385e-31
2.5200107e-31
2.5198261e-31
2.5197829e-31
2.5197939e-31
2.5198735e-31
2.5201345e-31
2.5208767e-31
2.5269921e-31
2.5224229e-31
2.5205949e-31
2.5199674e-31
2.5197829e-31
2.5197397e-31
2.5197508e-31
2.5198307e-31
2.5200921e-31
2.5208348e-31
2.5269985e-31
2.5224312e-31
2.5206048e-31
2.5199781e-31
2.5197939e-31
2.5197508e-31
2.519762e-31
2.5198419e-31
2.5201034e-31
2.5208462e-31
2.5270623e-31
2.5225025e-31
2.5206814e-31
2.520057e-31
2.5198735e-31
2.5198307e-31
2.5198419e-31
2.5199219e-31
2.5201835e-31
2.5209265e-31
2.5272758e-31
2.5227425e-31
2.5209356e-31
2.5203164e-31
2.5201345e-31
2.5200921e-31
2.5201034e-31
2.5201835e-31
2.5204453e-31
2.5211889e-31
2.5278937e-31
2.5234496e-31
2.5216687e-31
2.5210568e-31
2.5208767e-31
2.5208348e-31
2.5208462e-31
2.5209265e-31
2.5211889e-31
2.5219347e-31
5.8831024e-31
5.8727641e-31
5.868618e-31
5.8671924e-31
5.866772e-31
5.8666709e-31
5.8666848e-31
5.8668268e-31
5.8673e-31
5.8686593e-31
5.8727641e-31
5.8624781e-31
5.8583485e-31
5.8569278e-31
5.8565091e-31
5.8564094e-31
5.8564277e-31
5.856587e-31
5.8571214e-31
5.8586866e-31
5.868618e-31
5.8583485e-31
5.8542264e-31
5.8528085e-31
5.8523907e-31
5.8522922e-31
5.8523142e-31
5.8524857e-31
5.8530526e-31
5.8546779e-31
5.8671924e-31
5.8569278e-31
5.8528085e-31
5.8513916e-31
5.8509744e-31
5.8508764e-31
5.8509003e-31
5.851077e-31
5.851656e-31
5.853298e-31
5.866772e-31
5.8565091e-31
5.8523907e-31
5.8509744e-31
5.8505574e-31
5.8504597e-31
5.8504842e-31
5.8506627e-31
5.8512453e-31
5.8528915e-31
5.8666709e-31
5.8564094e-31
5.8522922e-31
5.8508764e-31
5.8504597e-31
5.8503621e-31
5.8503869e-31
5.8505659e-31
5.8511494e-31
5.8527967e-31
5.8666848e-31
5.8564277e-31
5.8523142e-31
5.8509003e-31
5.8504842e-31
5.8503869e-31
5.8504118e-31
5.850591e-31
5.8511748e-31
5.8528223e-31
5.8668268e-31
5.856587e-31
5.8524857e-31
5.851077e-31
5.8506627e-31
5.8505659e-31
5.850591e-31
5.8507703e-31
5.8513543e-31
5.8530021e-31
5.8673e-31
5.8571214e-31
5.8530526e-31
5.851656e-31
5.8512453e-31
5.8511494e-31
5.8511748e-31
5.8513543e-31
5.8519388e-31
5.8535878e-31
5.8686593e-31
5.8586866e-31
5.8546779e-31
5.853298e-31
5.8528915e-31
5.8527967e-31
5.8528223e-31
5.8530021e-31
5.8535878e-31
5.855242e-31
1.3844424e-30
1.38209e-30
1.3811439e-30
1.380818e-30
1.3807218e-30
1.3806986e-30
1.3807017e-30
1.3807338e-30
1.38084e-30
1.381143e-30
1.38209e-30
1.3797494e-30
1.3788069e-30
1.3784822e-30
1.3783864e-30
1.3783635e-30
1.3783676e-30
1.3784037e-30
1.3785243e-30
1.3788754e-30
1.3811439e-30
1.3788069e-30
1.3778662e-30
1.3775421e-30
1.3774465e-30
1.3774239e-30
1.3774289e-30
1.3774678e-30
1.377596e-30
1.3779611e-30
1.380818e-30
1.3784822e-30
1.3775421e-30
1.3772182e-30
1.3771227e-30
1.3771003e-30
1.3771057e-30
1.3771458e-30
1.3772768e-30
1.3776458e-30
1.3807218e-30
1.3783864e-30
1.3774465e-30
1.3771227e-30
1.3770273e-30
1.3770049e-30
1.3770105e-30
1.377051e-30
1.3771828e-30
1.3775529e-30
1.3806986e-30
1.3783635e-30
1.3774239e-30
1.3771003e-30
1.3770049e-30
1.3769826e-30
1.3769882e-30
1.3770289e-30
1.3771609e-30
1.3775312e-30
1.3807017e-30
1.3783676e-30
1.3774289e-30
1.3771057e-30
1.3770105e-30
1.3769882e-30
1.3769938e-30
1.3770345e-30
1.3771666e-30
1.377537e-30
1.3807338e-30
1.3784037e-30
1.3774678e-30
1.3771458e-30
1.377051e-30
1.3770289e-30
1.3770345e-30
1.3770753e-30
1.3772074e-30
1.3775778e-30
1.38084e-30
1.3785243e-30
1.377596e-30
1.3772768e-30
1.3771828e-30
1.3771609e-30
1.3771666e-30
1.3772074e-30
1.3773397e-30
1.3777103e-30
1.381143e-30
1.3788754e-30
1.3779611e-30
1.3776458e-30
1.3775529e-30
1.3775312e-30
1.377537e-30
1.3775778e-30
1.3777103e-30
1.3780821e-30
3.3031533e-30
3.2977287e-30
3.2955409e-30
3.2947861e-30
3.2945631e-30
3.2945092e-30
3.2945161e-30
3.2945894e-30
3.2948313e-30
3.2955155e-30
3.2977287e-30
3.292331e-30
3.2901516e-30
3.2893994e-30
3.2891771e-30
3.2891241e-30
3.2891334e-30
3.2892162e-30
3.289492e-30
3.2902903e-30
3.2955409e-30
3.2901516e-30
3.2879761e-30
3.2872253e-30
3.2870036e-30
3.2869511e-30
3.2869625e-30
3.287052e-30
3.2873458e-30
3.2881774e-30
3.2947861e-30
3.2893994e-30
3.2872253e-30
3.286475e-30
3.2862536e-30
3.2862015e-30
3.2862139e-30
3.2863063e-30
3.2866067e-30
3.2874475e-30
3.2945631e-30
3.2891771e-30
3.2870036e-30
3.2862536e-30
3.2860323e-30
3.2859803e-30
3.2859931e-30
3.2860865e-30
3.2863888e-30
3.287232e-30
3.2945092e-30
3.2891241e-30
3.2869511e-30
3.2862015e-30
3.2859803e-30
3.2859284e-30
3.2859413e-30
3.286035e-30
3.2863378e-30
3.2871816e-30
3.2945161e-30
3.2891334e-30
3.2869625e-30
3.2862139e-30
3.2859931e-30
3.2859413e-30
3.2859542e-30
3.286048e-30
3.286351e-30
3.2871949e-30
3.2945894e-30
3.2892162e-30
3.287052e-30
3.2863063e-30
3.2860865e-30
3.286035e-30
3.286048e-30
3.2861418e-30
3.286445e-30
3.287289e-30
3.2948313e-30
3.289492e-30
3.2873458e-30
3.2866067e-30
3.2863888e-30
3.2863378e-30
3.286351e-30
3.286445e-30
3.2867484e-30
3.287593e-30
3.2955155e-30
3.2902903e-30
3.2881774e-30
3.2874475e-30
3.287232e-30
3.2871816e-30
3.2871949e-30
3.287289e-30
3.287593e-30
3.2884402e-30
7.9910431e-30
7.9783652e-30
7.973238e-30
7.9714662e-30
7.9709421e-30
7.9708153e-30
7.9708309e-30
7.9710008e-30
7.9715592e-30
7.9731256e-30
7.9783652e-30
7.9657496e-30
7.9606417e-30
7.9588759e-30
7.9583536e-30
7.9582287e-30
7.9582502e-30
7.958443e-30
7.9590824e-30
7.960923e-30
7.973238e-30
7.9606417e-30
7.955543e-30
7.9537804e-30
7.9532594e-30
7.953136e-30
7.9531624e-30
7.9533712e-30
7.9540537e-30
7.955974e-30
7.9714662e-30
7.9588759e-30
7.9537804e-30
7.9520192e-30
7.9514988e-30
7.9513761e-30
7.9514049e-30
7.9516207e-30
7.9523191e-30
7.9542616e-30
7.9709421e-30
7.9583536e-30
7.9532594e-30
7.9514988e-30
7.9509787e-30
7.9508564e-30
7.9508861e-30
7.9511041e-30
7.9518073e-30
7.9537555e-30
7.9708153e-30
7.9582287e-30
7.953136e-30
7.9513761e-30
7.9508564e-30
7.9507342e-30
7.9507643e-30
7.950983e-30
7.9516875e-30
7.9536369e-30
7.9708309e-30
7.9582502e-30
7.9531624e-30
7.9514049e-30
7.9508861e-30
7.9507643e-30
7.9507945e-30
7.9510134e-30
7.9517182e-30
7.953668e-30
7.9710008e-30
7.958443e-30
7.9533712e-30
7.9516207e-30
7.9511041e-30
7.950983e-30
7.9510134e-30
7.9512325e-30
7.9519376e-30
7.9538878e-30
7.9715592e-30
7.9590824e-30
7.9540537e-30
7.9523191e-30
7.9518073e-30
7.9516875e-30
7.9517182e-30
7.9519376e-30
7.9526432e-30
7.9545948e-30
7.9731256e-30
7.960923e-30
7.955974e-30
7.9542616e-30
7.9537555e-30
7.9536369e-30
7.953668e-30
7.9538878e-30
7.9545948e-30
7.9565521e-30
1.9603163e-29
1.9573132e-29
1.9560954e-29
1.9556739e-29
1.955549e-29
1.9555188e-29
1.9555224e-29
1.9555623e-29
1.955693e-29
1.9560565e-29
1.9573132e-29
1.9543247e-29
1.9531114e-29
1.9526913e-29
1.9525669e-29
1.9525371e-29
1.9525422e-29
1.9525876e-29
1.952738e-29
1.9531682e-29
1.9560954e-29
1.9531114e-29
1.9519003e-29
1.9514809e-29
1.9513568e-29
1.9513274e-29
1.9513336e-29
1.951383e-29
1.9515438e-29
1.9519935e-29
1.9556739e-29
1.9526913e-29
1.9514809e-29
1.9510619e-29
1.950938e-29
1.9509087e-29
1.9509155e-29
1.9509666e-29
1.9511313e-29
1.9515863e-29
1.955549e-29
1.9525669e-29
1.9513568e-29
1.950938e-29
1.9508141e-29
1.9507849e-29
1.9507919e-29
1.9508436e-29
1.9510094e-29
1.9514658e-29
1.9555188e-29
1.9525371e-29
1.9513274e-29
1.9509087e-29
1.9507849e-29
1.9507558e-29
1.9507629e-29
1.9508147e-29
1.9509808e-29
1.9514376e-29
1.9555224e-29
1.9525422e-29
1.9513336e-29
1.9509155e-29
1.9507919e-29
1.9507629e-29
1.95077e-29
1.9508219e-29
1.9509881e-29
1.9514449e-29
1.9555623e-29
1.9525876e-29
1.951383e-29
1.9509666e-29
1.9508436e-29
1.9508147e-29
1.9508219e-29
1.9508738e-29
1.95104e-29
1.9514969e-29
1.955693e-29
1.952738e-29
1.9515438e-29
1.9511313e-29
1.9510094e-29
1.9509808e-29
1.9509881e-29
1.95104e-29
1.9512065e-29
1.9516637e-29
1.9560565e-29
1.9531682e-29
1.9519935e-29
1.9515863e-29
1.9514658e-29
1.9514376e-29
1.9514449e-29
1.9514969e-29
1.9516637e-29
1.9521222e-29
4.8766211e-29
4.8694108e-29
4.8664791e-29
4.8654629e-29
4.8651615e-29
4.8650885e-29
4.8650969e-29
4.865192e-29
4.8655018e-29
4.8663571e-29
4.8694108e-29
4.8622352e-29
4.8593143e-29
4.8583013e-29
4.8580011e-29
4.8579291e-29
4.857941e-29
4.8580498e-29
4.8584082e-29
4.8594281e-29
4.8664791e-29
4.8593143e-29
4.8563985e-29
4.8553873e-29
4.8550878e-29
4.8550166e-29
4.8550315e-29
4.8551499e-29
4.8555341e-29
4.8566018e-29
4.8654629e-29
4.8583013e-29
4.8553873e-29
4.8543769e-29
4.8540777e-29
4.8540071e-29
4.8540234e-29
4.8541459e-29
4.8545396e-29
4.8556206e-29
4.8651615e-29
4.8580011e-29
4.8550878e-29
4.8540777e-29
4.8537787e-29
4.8537083e-29
4.8537251e-29
4.853849e-29
4.8542456e-29
4.8553299e-29
4.8650885e-29
4.8579291e-29
4.8550166e-29
4.8540071e-29
4.8537083e-29
4.8536379e-29
4.8536549e-29
4.8537793e-29
4.8541766e-29
4.8552617e-29
4.8650969e-29
4.857941e-29
4.8550315e-29
4.8540234e-29
4.8537251e-29
4.8536549e-29
4.853672e-29
4.8537965e-29
4.854194e-29
4.8552793e-29
4.865192e-29
4.8580498e-29
4.8551499e-29
4.8541459e-29
4.853849e-29
4.8537793e-29
4.8537965e-29
4.8539211e-29
4.8543187e-29
4.8554043e-29
4.8655018e-29
4.8584082e-29
4.8555341e-29
4.8545396e-29
4.8542456e-29
4.8541766e-29
4.854194e-29
4.8543187e-29
4.8547167e-29
4.855803e-29
4.8663571e-29
4.8594281e-29
4.8566018e-29
4.8556206e-29
4.8553299e-29
4.8552617e-29
4.8552793e-29
4.8554043e-29
4.855803e-29
4.8568924e-29
1.2302688e-28
1.2285141e-28
1.2277988e-28
1.2275504e-28
1.2274767e-28
1.2274588e-28
1.2274608e-28
1.2274838e-28
1.2275583e-28
1.2277623e-28
1.2285141e-28
1.2267678e-28
1.226055e-28
1.2258074e-28
1.225734e-28
1.2257164e-28
1.2257192e-28
1.2257456e-28
1.2258323e-28
1.2260774e-28
1.2277988e-28
1.226055e-28
1.2253435e-28
1.2250964e-28
1.2250231e-28
1.2250057e-28
1.2250093e-28
1.2250381e-28
1.2251311e-28
1.2253882e-28
1.2275504e-28
1.2258074e-28
1.2250964e-28
1.2248494e-28
1.2247762e-28
1.2247589e-28
1.2247629e-28
1.2247927e-28
1.2248882e-28
1.2251486e-28
1.2274767e-28
1.225734e-28
1.2250231e-28
1.2247762e-28
1.2247031e-28
1.2246858e-28
1.2246899e-28
1.2247201e-28
1.2248163e-28
1.2250775e-28
1.2274588e-28
1.2257164e-28
1.2250057e-28
1.2247589e-28
1.2246858e-28
1.2246686e-28
1.2246727e-28
1.224703e-28
1.2247994e-28
1.2250608e-28
1.2274608e-28
1.2257192e-28
1.2250093e-28
1.2247629e-28
1.2246899e-28
1.2246727e-28
1.2246769e-28
1.2247072e-28
1.2248036e-28
1.2250651e-28
1.2274838e-28
1.2257456e-28
1.2250381e-28
1.2247927e-28
1.2247201e-28
1.224703e-28
1.2247072e-28
1.2247375e-28
1.224834e-28
1.2250955e-28
1.2275583e-28
1.2258323e-28
1.2251311e-28
1.2248882e-28
1.2248163e-28
1.2247994e-28
1.2248036e-28
1.224834e-28
1.2249305e-28
1.2251922e-28
1.2277623e-28
1.2260774e-28
1.2253882e-28
1.2251486e-28
1.2250775e-28
1.2250608e-28
1.2250651e-28
1.2250955e-28
1.2251922e-28
1.2254547e-28
3.1476228e-28
3.1432942e-28
3.1415251e-28
3.14091e-28
3.1407272e-28
3.1406828e-28
3.1406875e-28
3.1407438e-28
3.1409255e-28
3.1414189e-28
3.1432942e-28
3.1389861e-28
3.1372233e-28
3.1366101e-28
3.136428e-28
3.1363842e-28
3.1363912e-28
3.1364561e-28
3.1366685e-28
3.1372661e-28
3.1415251e-28
3.1372233e-28
3.1354635e-28
3.1348514e-28
3.1346697e-28
3.1346264e-28
3.1346353e-28
3.1347063e-28
3.134935e-28
3.1355628e-28
3.14091e-28
3.1366101e-28
3.1348514e-28
3.1342397e-28
3.1340582e-28
3.1340153e-28
3.134025e-28
3.1340987e-28
3.1343334e-28
3.1349696e-28
3.1407272e-28
3.136428e-28
3.1346697e-28
3.1340582e-28
3.1338769e-28
3.133834e-28
3.1338441e-28
3.1339186e-28
3.1341551e-28
3.1347935e-28
3.1406828e-28
3.1363842e-28
3.1346264e-28
3.1340153e-28
3.133834e-28
3.1337913e-28
3.1338015e-28
3.1338762e-28
3.1341132e-28
3.1347521e-28
3.1406875e-28
3.1363912e-28
3.1346353e-28
3.134025e-28
3.1338441e-28
3.1338015e-28
3.1338118e-28
3.1338866e-28
3.1341237e-28
3.1347627e-28
3.1407438e-28
3.1364561e-28
3.1347063e-28
3.1340987e-28
3.1339186e-28
3.1338762e-28
3.1338866e-28
3.1339615e-28
3.1341987e-28
3.1348378e-28
3.1409255e-28
3.1366685e-28
3.134935e-28
3.1343334e-28
3.1341551e-28
3.1341132e-28
3.1341237e-28
3.1341987e-28
3.134436e-28
3.1350756e-28
3.1414189e-28
3.1372661e-28
3.1355628e-28
3.1349696e-28
3.1347935e-28
3.1347521e-28
3.1347627e-28
3.1348378e-28
3.1350756e-28
3.1357169e-28
8.1672497e-28
8.1564266e-28
8.1519919e-28
8.1504476e-28
8.1499883e-28
8.1498765e-28
8.1498881e-28
8.150028e-28
8.1504772e-28
8.1516868e-28
8.1564266e-28
8.145654e-28
8.1412349e-28
8.1396954e-28
8.1392377e-28
8.1391275e-28
8.1391449e-28
8.1393069e-28
8.1398349e-28
8.1413124e-28
8.1519919e-28
8.1412349e-28
8.1368233e-28
8.1352864e-28
8.1348298e-28
8.134721e-28
8.1347432e-28
8.1349207e-28
8.1354906e-28
8.1370456e-28
8.1504476e-28
8.1396954e-28
8.1352864e-28
8.1337508e-28
8.1332947e-28
8.1331866e-28
8.133211e-28
8.1333953e-28
8.1339806e-28
8.1355572e-28
8.1499883e-28
8.1392377e-28
8.1348298e-28
8.1332947e-28
8.1328388e-28
8.1327311e-28
8.1327564e-28
8.1329429e-28
8.1335328e-28
8.1351149e-28
8.1498765e-28
8.1391275e-28
8.134721e-28
8.1331866e-28
8.1327311e-28
8.1326236e-28
8.1326492e-28
8.1328363e-28
8.1334274e-28
8.1350109e-28
8.1498881e-28
8.1391449e-28
8.1347432e-28
8.133211e-28
8.1327564e-28
8.1326492e-28
8.1326749e-28
8.1328623e-28
8.1334537e-28
8.1350374e-28
8.150028e-28
8.1393069e-28
8.1349207e-28
8.1333953e-28
8.1329429e-28
8.1328363e-28
8.1328623e-28
8.1330498e-28
8.1336414e-28
8.1352255e-28
8.1504772e-28
8.1398349e-28
8.1354906e-28
8.1339806e-28
8.1335328e-28
8.1334274e-28
8.1334537e-28
8.1336414e-28
8.1342335e-28
8.1358186e-28
8.1516868e-28
8.1413124e-28
8.1370456e-28
8.1355572e-28
8.1351149e-28
8.1350109e-28
8.1350374e-28
8.1352255e-28
8.1358186e-28
8.137408e-28
2.1492326e-27
2.1464895e-27
2.1453628e-27
2.1449698e-27
2.1448529e-27
2.1448243e-27
2.1448272e-27
2.1448624e-27
2.1449751e-27
2.1452758e-27
2.1464895e-27
2.1437591e-27
2.1426363e-27
2.1422445e-27
2.1421279e-27
2.1420998e-27
2.1421042e-27
2.1421452e-27
2.1422783e-27
2.1426488e-27
2.1453628e-27
2.1426363e-27
2.1415153e-27
2.1411242e-27
2.1410079e-27
2.1409802e-27
2.1409858e-27
2.1410308e-27
2.1411748e-27
2.1415655e-27
2.1449698e-27
2.1422445e-27
2.1411242e-27
2.1407335e-27
2.1406173e-27
2.1405898e-27
2.140596e-27
2.1406427e-27
2.1407907e-27
2.141187e-27
2.1448529e-27
2.1421279e-27
2.1410079e-27
2.1406173e-27
2.1405012e-27
2.1404737e-27
2.1404802e-27
2.1405275e-27
2.1406767e-27
2.1410744e-27
2.1448243e-27
2.1420998e-27
2.1409802e-27
2.1405898e-27
2.1404737e-27
2.1404463e-27
2.1404528e-27
2.1405004e-27
2.1406499e-27
2.1410479e-27
2.1448272e-27
2.1421042e-27
2.1409858e-27
2.140596e-27
2.1404802e-27
2.1404528e-27
2.1404594e-27
2.1405069e-27
2.1406565e-27
2.1410547e-27
2.1448624e-27
2.1421452e-27
2.1410308e-27
2.1406427e-27
2.1405275e-27
2.1405004e-27
2.1405069e-27
2.1405546e-27
2.1407042e-27
2.1411024e-27
2.1449751e-27
2.1422783e-27
2.1411748e-27
2.1407907e-27
2.1406767e-27
2.1406499e-27
2.1406565e-27
2.1407042e-27
2.140854e-27
2.1412524e-27
2.1452758e-27
2.1426488e-27
2.1415655e-27
2.141187e-27
2.1410744e-27
2.1410479e-27
2.1410547e-27
2.1411024e-27
2.1412524e-27
2.1416519e-27
5.7359344e-27
5.7288876e-27
5.725986e-27
5.7249727e-27
5.7246707e-27
5.724597e-27
5.7246042e-27
5.7246942e-27
5.7249805e-27
5.7257385e-27
5.7288876e-27
5.721873e-27
5.7189813e-27
5.717971e-27
5.7176701e-27
5.7175975e-27
5.7176086e-27
5.7177138e-27
5.7180542e-27
5.7189962e-27
5.725986e-27
5.7189813e-27
5.7160944e-27
5.7150859e-27
5.7147857e-27
5.714714e-27
5.7147284e-27
5.7148442e-27
5.7152132e-27
5.7162085e-27
5.7249727e-27
5.717971e-27
5.7150859e-27
5.7140781e-27
5.7137782e-27
5.7137071e-27
5.713723e-27
5.7138434e-27
5.714223e-27
5.7152331e-27
5.7246707e-27
5.7176701e-27
5.7147857e-27
5.7137782e-27
5.7134785e-27
5.7134076e-27
5.7134241e-27
5.713546e-27
5.7139288e-27
5.7149427e-27
5.724597e-27
5.7175975e-27
5.714714e-27
5.7137071e-27
5.7134076e-27
5.7133368e-27
5.7133535e-27
5.7134759e-27
5.7138595e-27
5.7148742e-27
5.7246042e-27
5.7176086e-27
5.7147284e-27
5.713723e-27
5.7134241e-27
5.7133535e-27
5.7133704e-27
5.7134929e-27
5.7138767e-27
5.7148917e-27
5.7246942e-27
5.7177138e-27
5.7148442e-27
5.7138434e-27
5.713546e-27
5.7134759e-27
5.7134929e-27
5.7136155e-27
5.7139995e-27
5.7150146e-27
5.7249805e-27
5.7180542e-27
5.7152132e-27
5.714223e-27
5.7139288e-27
5.7138595e-27
5.7138767e-27
5.7139995e-27
5.7143837e-27
5.7153995e-27
5.7257385e-27
5.7189962e-27
5.7162085e-27
5.7152331e-27
5.7149427e-27
5.7148742e-27
5.7148917e-27
5.7150146e-27
5.7153995e-27
5.716418e-27
1.5524991e-26
1.5506642e-26
1.5499069e-26
1.5496421e-26
1.5495631e-26
1.5495438e-26
1.5495456e-26
1.5495689e-26
1.5496427e-26
1.5498365e-26
1.5506642e-26
1.5488377e-26
1.548083e-26
1.5478189e-26
1.5477402e-26
1.5477211e-26
1.547724e-26
1.5477514e-26
1.5478397e-26
1.5480826e-26
1.5499069e-26
1.548083e-26
1.5473294e-26
1.5470658e-26
1.5469873e-26
1.5469685e-26
1.5469723e-26
1.5470025e-26
1.5470984e-26
1.5473556e-26
1.5496421e-26
1.5478189e-26
1.5470658e-26
1.5468024e-26
1.546724e-26
1.5467053e-26
1.5467095e-26
1.5467409e-26
1.5468397e-26
1.5471008e-26
1.5495631e-26
1.5477402e-26
1.5469873e-26
1.546724e-26
1.5466455e-26
1.546627e-26
1.5466313e-26
1.5466631e-26
1.5467627e-26
1.5470249e-26
1.5495438e-26
1.5477211e-26
1.5469685e-26
1.5467053e-26
1.546627e-26
1.5466084e-26
1.5466128e-26
1.5466448e-26
1.5467446e-26
1.547007e-26
1.5495456e-26
1.547724e-26
1.5469723e-26
1.5467095e-26
1.5466313e-26
1.5466128e-26
1.5466172e-26
1.5466492e-26
1.5467491e-26
1.5470115e-26
1.5495689e-26
1.5477514e-26
1.5470025e-26
1.5467409e-26
1.5466631e-26
1.5466448e-26
1.5466492e-26
1.5466813e-26
1.5467812e-26
1.5470437e-26
1.5496427e-26
1.5478397e-26
1.5470984e-26
1.5468397e-26
1.5467627e-26
1.5467446e-26
1.5467491e-26
1.5467812e-26
1.5468811e-26
1.5471438e-26
1.5498365e-26
1.5480826e-26
1.5473556e-26
1.5471008e-26
1.5470249e-26
1.547007e-26
1.5470115e-26
1.5470437e-26
1.5471438e-26
1.5474071e-26
4.2614011e-26
4.256559e-26
4.2545559e-26
4.2538544e-26
4.2536449e-26
4.2535937e-26
4.2535984e-26
4.2536596e-26
4.2538526e-26
4.2543546e-26
4.256559e-26
4.2517387e-26
4.2497422e-26
4.2490427e-26
4.248834e-26
4.2487835e-26
4.2487911e-26
4.2488633e-26
4.2490954e-26
4.2497308e-26
4.2545559e-26
4.2497422e-26
4.2477489e-26
4.2470507e-26
4.2468424e-26
4.2467926e-26
4.2468026e-26
4.2468824e-26
4.2471353e-26
4.2478093e-26
4.2538544e-26
4.2490427e-26
4.2470507e-26
4.2463529e-26
4.2461449e-26
4.2460955e-26
4.2461065e-26
4.2461897e-26
4.2464502e-26
4.2471349e-26
4.2536449e-26
4.248834e-26
4.2468424e-26
4.2461449e-26
4.245937e-26
4.2458877e-26
4.2458992e-26
4.2459835e-26
4.2462463e-26
4.2469338e-26
4.2535937e-26
4.2487835e-26
4.2467926e-26
4.2460955e-26
4.2458877e-26
4.2458386e-26
4.2458502e-26
4.2459349e-26
4.2461982e-26
4.2468863e-26
4.2535984e-26
4.2487911e-26
4.2468026e-26
4.2461065e-26
4.2458992e-26
4.2458502e-26
4.2458619e-26
4.2459467e-26
4.2462101e-26
4.2468985e-26
4.2536596e-26
4.2488633e-26
4.2468824e-26
4.2461897e-26
4.2459835e-26
4.2459349e-26
4.2459467e-26
4.2460315e-26
4.246295e-26
4.2469835e-26
4.2538526e-26
4.2490954e-26
4.2471353e-26
4.2464502e-26
4.2462463e-26
4.2461982e-26
4.2462101e-26
4.246295e-26
4.2465588e-26
4.2472477e-26
4.2543546e-26
4.2497308e-26
4.2478093e-26
4.2471349e-26
4.2469338e-26
4.2468863e-26
4.2468985e-26
4.2469835e-26
4.2472477e-26
4.2479382e-26
1.1861749e-25
1.1848799e-25
1.1843429e-25
1.1841546e-25
1.1840984e-25
1.1840846e-25
1.1840858e-25
1.1841021e-25
1.1841533e-25
1.1842852e-25
1.1848799e-25
1.1835907e-25
1.1830555e-25
1.1828677e-25
1.1828116e-25
1.1827981e-25
1.1828001e-25
1.1828194e-25
1.1828813e-25
1.1830498e-25
1.1843429e-25
1.1830555e-25
1.1825211e-25
1.1823337e-25
1.1822778e-25
1.1822644e-25
1.182267e-25
1.1822885e-25
1.182356e-25
1.1825352e-25
1.1841546e-25
1.1828677e-25
1.1823337e-25
1.1821464e-25
1.1820905e-25
1.1820772e-25
1.1820802e-25
1.1821025e-25
1.1821722e-25
1.1823543e-25
1.1840984e-25
1.1828116e-25
1.1822778e-25
1.1820905e-25
1.1820347e-25
1.1820214e-25
1.1820245e-25
1.1820472e-25
1.1821175e-25
1.1823003e-25
1.1840846e-25
1.1827981e-25
1.1822644e-25
1.1820772e-25
1.1820214e-25
1.1820082e-25
1.1820113e-25
1.1820341e-25
1.1821045e-25
1.1822876e-25
1.1840858e-25
1.1828001e-25
1.182267e-25
1.1820802e-25
1.1820245e-25
1.1820113e-25
1.1820145e-25
1.1820373e-25
1.1821078e-25
1.1822908e-25
1.1841021e-25
1.1828194e-25
1.1822885e-25
1.1821025e-25
1.1820472e-25
1.1820341e-25
1.1820373e-25
1.18206e-25
1.1821306e-25
1.1823137e-25
1.1841533e-25
1.1828813e-25
1.182356e-25
1.1821722e-25
1.1821175e-25
1.1821045e-25
1.1821078e-25
1.1821306e-25
1.1822011e-25
1.1823844e-25
1.1842852e-25
1.1830498e-25
1.1825352e-25
1.1823543e-25
1.1823003e-25
1.1822876e-25
1.1822908e-25
1.1823137e-25
1.1823844e-25
1.182568e-25
3.348075e-25
3.3445653e-25
3.3431069e-25
3.3425948e-25
3.3424416e-25
3.342404e-25
3.3424073e-25
3.3424514e-25
3.3425887e-25
3.3429401e-25
3.3445653e-25
3.3410712e-25
3.3396174e-25
3.3391068e-25
3.3389541e-25
3.3389171e-25
3.3389226e-25
3.338975e-25
3.3391423e-25
3.3395957e-25
3.3431069e-25
3.3396174e-25
3.338166e-25
3.3376562e-25
3.3375039e-25
3.3374674e-25
3.3374747e-25
3.3375329e-25
3.3377161e-25
3.338199e-25
3.3425948e-25
3.3391068e-25
3.3376562e-25
3.3371467e-25
3.3369946e-25
3.3369584e-25
3.3369666e-25
3.3370273e-25
3.3372163e-25
3.3377074e-25
3.3424416e-25
3.3389541e-25
3.3375039e-25
3.3369946e-25
3.3368425e-25
3.3368065e-25
3.3368149e-25
3.3368766e-25
3.3370673e-25
3.3375605e-25
3.342404e-25
3.3389171e-25
3.3374674e-25
3.3369584e-25
3.3368065e-25
3.3367705e-25
3.3367791e-25
3.336841e-25
3.3370321e-25
3.3375258e-25
3.3424073e-25
3.3389226e-25
3.3374747e-25
3.3369666e-25
3.3368149e-25
3.3367791e-25
3.3367877e-25
3.3368497e-25
3.337041e-25
3.3375348e-25
3.3424514e-25
3.338975e-25
3.3375329e-25
3.3370273e-25
3.3368766e-25
3.336841e-25
3.3368497e-25
3.3369117e-25
3.337103e-25
3.3375969e-25
3.3425887e-25
3.3391423e-25
3.3377161e-25
3.3372163e-25
3.3370673e-25
3.3370321e-25
3.337041e-25
3.337103e-25
3.3372945e-25
3.3377887e-25
3.3429401e-25
3.3395957e-25
3.338199e-25
3.3377074e-25
3.3375605e-25
3.3375258e-25
3.3375348e-25
3.3375969e-25
3.3377887e-25