/*--------------------------------*- C++ -*----------------------------------*\
| =========                 |                                                 |
| \\      /  F ield         | OpenFOAM: The Open Source CFD Toolbox           |
|  \\    /   O peration     | Version:  dev                                   |
|   \\  /    A nd           | Web:      www.OpenFOAM.org                      |
|    \\/     M anipulation  |                                                 |
\*---------------------------------------------------------------------------*/
FoamFile
{
    version     2.0;
    format      ascii;
    class       volScalarField;
    location    "48.995";
    object      A_0;
}
// * * * * * * * * * * * * * * * * * * * * * * * * * * * * * * * * * * * * * //

dimensions      [0 0 0 0 1 0 0];

internalField   nonuniform List<scalar> 
10000
(
2.3667387e-33
2.3616484e-33
2.3597061e-33
2.3590471e-33
2.3588545e-33
2.3588087e-33
2.3588163e-33
2.3588865e-33
2.3591234e-33
2.359766e-33
2.3616484e-33
2.356586e-33
2.3546522e-33
2.3539958e-33
2.353804e-33
2.3537588e-33
2.3537682e-33
2.3538457e-33
2.3541079e-33
2.3548351e-33
2.3597061e-33
2.3546522e-33
2.3527221e-33
2.352067e-33
2.3518757e-33
2.351831e-33
2.351842e-33
2.3519245e-33
2.3522003e-33
2.3529524e-33
2.3590471e-33
2.3539958e-33
2.352067e-33
2.3514125e-33
2.3512214e-33
2.3511769e-33
2.3511887e-33
2.3512734e-33
2.3515542e-33
2.3523132e-33
2.3588545e-33
2.353804e-33
2.3518757e-33
2.3512214e-33
2.3510304e-33
2.3509861e-33
2.3509981e-33
2.3510835e-33
2.3513658e-33
2.3521266e-33
2.3588087e-33
2.3537588e-33
2.351831e-33
2.3511769e-33
2.3509861e-33
2.3509418e-33
2.3509539e-33
2.3510396e-33
2.3513223e-33
2.3520835e-33
2.3588163e-33
2.3537682e-33
2.351842e-33
2.3511887e-33
2.3509981e-33
2.3509539e-33
2.3509661e-33
2.3510518e-33
2.3513346e-33
2.352096e-33
2.3588865e-33
2.3538457e-33
2.3519245e-33
2.3512734e-33
2.3510835e-33
2.3510396e-33
2.3510518e-33
2.3511376e-33
2.3514205e-33
2.352182e-33
2.3591234e-33
2.3541079e-33
2.3522003e-33
2.3515542e-33
2.3513658e-33
2.3513223e-33
2.3513346e-33
2.3514205e-33
2.3517037e-33
2.3524658e-33
2.359766e-33
2.3548351e-33
2.3529524e-33
2.3523132e-33
2.3521266e-33
2.3520835e-33
2.352096e-33
2.352182e-33
2.3524658e-33
2.3532303e-33
8.6172062e-33
8.5993646e-33
8.5923917e-33
8.5900213e-33
8.589328e-33
8.589163e-33
8.5891898e-33
8.5894411e-33
8.5902905e-33
8.5926938e-33
8.5993646e-33
8.581619e-33
8.5746759e-33
8.5723146e-33
8.5716241e-33
8.5714613e-33
8.5714949e-33
8.5717722e-33
8.5727138e-33
8.5754262e-33
8.5923917e-33
8.5746759e-33
8.5677463e-33
8.5653897e-33
8.5647009e-33
8.5645399e-33
8.5645792e-33
8.5648749e-33
8.5658658e-33
8.5686686e-33
8.5900213e-33
8.5723146e-33
8.5653897e-33
8.563035e-33
8.562347e-33
8.5621869e-33
8.5622289e-33
8.5625326e-33
8.5635417e-33
8.5663696e-33
8.589328e-33
8.5716241e-33
8.5647009e-33
8.562347e-33
8.5616594e-33
8.5614998e-33
8.5615428e-33
8.5618492e-33
8.5628637e-33
8.565698e-33
8.589163e-33
8.5714613e-33
8.5645399e-33
8.5621869e-33
8.5614998e-33
8.5613403e-33
8.5613837e-33
8.5616909e-33
8.5627068e-33
8.5655426e-33
8.5891898e-33
8.5714949e-33
8.5645792e-33
8.5622289e-33
8.5615428e-33
8.5613837e-33
8.5614273e-33
8.5617347e-33
8.562751e-33
8.5655873e-33
8.5894411e-33
8.5717722e-33
8.5648749e-33
8.5625326e-33
8.5618492e-33
8.5616909e-33
8.5617347e-33
8.5620423e-33
8.563059e-33
8.5658959e-33
8.5902905e-33
8.5727138e-33
8.5658658e-33
8.5635417e-33
8.5628637e-33
8.5627068e-33
8.562751e-33
8.563059e-33
8.5640767e-33
8.5669158e-33
8.5926938e-33
8.5754262e-33
8.5686686e-33
8.5663696e-33
8.565698e-33
8.5655426e-33
8.5655873e-33
8.5658959e-33
8.5669158e-33
8.5697639e-33
2.0579516e-32
2.0538272e-32
2.0521996e-32
2.0516452e-32
2.0514828e-32
2.0514441e-32
2.0514502e-32
2.0515084e-32
2.0517054e-32
2.0522796e-32
2.0538272e-32
2.0497247e-32
2.048104e-32
2.0475516e-32
2.0473899e-32
2.0473517e-32
2.0473595e-32
2.0474238e-32
2.0476427e-32
2.0482905e-32
2.0521996e-32
2.048104e-32
2.0464863e-32
2.0459351e-32
2.0457738e-32
2.045736e-32
2.0457451e-32
2.0458139e-32
2.0460444e-32
2.0467138e-32
2.0516452e-32
2.0475516e-32
2.0459351e-32
2.0453842e-32
2.0452231e-32
2.0451856e-32
2.0451953e-32
2.045266e-32
2.0455009e-32
2.0461762e-32
2.0514828e-32
2.0473899e-32
2.0457738e-32
2.0452231e-32
2.0450621e-32
2.0450247e-32
2.0450346e-32
2.0451059e-32
2.0453421e-32
2.0460189e-32
2.0514441e-32
2.0473517e-32
2.045736e-32
2.0451856e-32
2.0450247e-32
2.0449873e-32
2.0449973e-32
2.0450688e-32
2.0453053e-32
2.0459825e-32
2.0514502e-32
2.0473595e-32
2.0457451e-32
2.0451953e-32
2.0450346e-32
2.0449973e-32
2.0450074e-32
2.045079e-32
2.0453156e-32
2.0459929e-32
2.0515084e-32
2.0474238e-32
2.0458139e-32
2.045266e-32
2.0451059e-32
2.0450688e-32
2.045079e-32
2.0451506e-32
2.0453873e-32
2.0460647e-32
2.0517054e-32
2.0476427e-32
2.0460444e-32
2.0455009e-32
2.0453421e-32
2.0453053e-32
2.0453156e-32
2.0453873e-32
2.0456242e-32
2.0463021e-32
2.0522796e-32
2.0482905e-32
2.0467138e-32
2.0461762e-32
2.0460189e-32
2.0459825e-32
2.0459929e-32
2.0460647e-32
2.0463021e-32
2.0469823e-32
4.6627499e-32
4.6537009e-32
4.6501121e-32
4.648887e-32
4.6485279e-32
4.6484422e-32
4.6484553e-32
4.6485823e-32
4.6490112e-32
4.650268e-32
4.6537009e-32
4.6446994e-32
4.6411253e-32
4.6399048e-32
4.6395472e-32
4.6394626e-32
4.6394793e-32
4.6396203e-32
4.6400986e-32
4.6415215e-32
4.6501121e-32
4.6411253e-32
4.6375581e-32
4.63634e-32
4.6359832e-32
4.6358995e-32
4.6359193e-32
4.6360701e-32
4.6365748e-32
4.6380461e-32
4.648887e-32
4.6399048e-32
4.63634e-32
4.6351228e-32
4.6347664e-32
4.6346833e-32
4.6347045e-32
4.6348596e-32
4.635374e-32
4.6368588e-32
4.6485279e-32
4.6395472e-32
4.6359832e-32
4.6347664e-32
4.6344103e-32
4.6343273e-32
4.6343491e-32
4.6345056e-32
4.635023e-32
4.6365111e-32
4.6484422e-32
4.6394626e-32
4.6358995e-32
4.6346833e-32
4.6343273e-32
4.6342445e-32
4.6342665e-32
4.6344234e-32
4.6349415e-32
4.6364305e-32
4.6484553e-32
4.6394793e-32
4.6359193e-32
4.6347045e-32
4.6343491e-32
4.6342665e-32
4.6342886e-32
4.6344456e-32
4.6349639e-32
4.6364531e-32
4.6485823e-32
4.6396203e-32
4.6360701e-32
4.6348596e-32
4.6345056e-32
4.6344234e-32
4.6344456e-32
4.6346028e-32
4.6351213e-32
4.6366108e-32
4.6490112e-32
4.6400986e-32
4.6365748e-32
4.635374e-32
4.635023e-32
4.6349415e-32
4.6349639e-32
4.6351213e-32
4.6356403e-32
4.6371309e-32
4.650268e-32
4.6415215e-32
4.6380461e-32
4.6368588e-32
4.6365111e-32
4.6364305e-32
4.6364531e-32
4.6366108e-32
4.6371309e-32
4.6386263e-32
1.057103e-31
1.0551168e-31
1.0543264e-31
1.0540561e-31
1.0539767e-31
1.0539577e-31
1.0539606e-31
1.0539882e-31
1.0540813e-31
1.0543528e-31
1.0551168e-31
1.053141e-31
1.0523538e-31
1.0520844e-31
1.0520054e-31
1.0519867e-31
1.0519903e-31
1.0520211e-31
1.0521253e-31
1.0524344e-31
1.0543264e-31
1.0523538e-31
1.051568e-31
1.0512992e-31
1.0512204e-31
1.0512019e-31
1.0512062e-31
1.0512392e-31
1.0513493e-31
1.0516693e-31
1.0540561e-31
1.0520844e-31
1.0512992e-31
1.0510306e-31
1.0509519e-31
1.0509335e-31
1.0509381e-31
1.0509721e-31
1.0510844e-31
1.0514074e-31
1.0539767e-31
1.0520054e-31
1.0512204e-31
1.0509519e-31
1.0508732e-31
1.0508548e-31
1.0508596e-31
1.0508939e-31
1.0510069e-31
1.0513306e-31
1.0539577e-31
1.0519867e-31
1.0512019e-31
1.0509335e-31
1.0508548e-31
1.0508365e-31
1.0508413e-31
1.0508757e-31
1.0509888e-31
1.0513128e-31
1.0539606e-31
1.0519903e-31
1.0512062e-31
1.0509381e-31
1.0508596e-31
1.0508413e-31
1.0508461e-31
1.0508805e-31
1.0509937e-31
1.0513177e-31
1.0539882e-31
1.0520211e-31
1.0512392e-31
1.0509721e-31
1.0508939e-31
1.0508757e-31
1.0508805e-31
1.050915e-31
1.0510282e-31
1.0513523e-31
1.0540813e-31
1.0521253e-31
1.0513493e-31
1.0510844e-31
1.0510069e-31
1.0509888e-31
1.0509937e-31
1.0510282e-31
1.0511416e-31
1.0514659e-31
1.0543528e-31
1.0524344e-31
1.0516693e-31
1.0514074e-31
1.0513306e-31
1.0513128e-31
1.0513177e-31
1.0513523e-31
1.0514659e-31
1.0517912e-31
2.4231575e-31
2.4187516e-31
2.4169927e-31
2.4163902e-31
2.4162132e-31
2.4161707e-31
2.4161768e-31
2.4162376e-31
2.4164414e-31
2.4170321e-31
2.4187516e-31
2.4143684e-31
2.4126165e-31
2.4120161e-31
2.4118398e-31
2.4117979e-31
2.4118059e-31
2.4118738e-31
2.412103e-31
2.4127792e-31
2.4169927e-31
2.4126165e-31
2.4108679e-31
2.4102687e-31
2.4100928e-31
2.4100514e-31
2.4100609e-31
2.4101339e-31
2.4103766e-31
2.4110776e-31
2.4163902e-31
2.4120161e-31
2.4102687e-31
2.40967e-31
2.4094942e-31
2.4094531e-31
2.4094633e-31
2.4095385e-31
2.4097862e-31
2.4104941e-31
2.4162132e-31
2.4118398e-31
2.4100928e-31
2.4094942e-31
2.4093186e-31
2.4092776e-31
2.4092881e-31
2.409364e-31
2.4096132e-31
2.4103229e-31
2.4161707e-31
2.4117979e-31
2.4100514e-31
2.4094531e-31
2.4092776e-31
2.4092367e-31
2.4092472e-31
2.4093234e-31
2.4095729e-31
2.410283e-31
2.4161768e-31
2.4118059e-31
2.4100609e-31
2.4094633e-31
2.4092881e-31
2.4092472e-31
2.4092579e-31
2.4093341e-31
2.4095837e-31
2.410294e-31
2.4162376e-31
2.4118738e-31
2.4101339e-31
2.4095385e-31
2.409364e-31
2.4093234e-31
2.4093341e-31
2.4094103e-31
2.4096601e-31
2.4103704e-31
2.4164414e-31
2.412103e-31
2.4103766e-31
2.4097862e-31
2.4096132e-31
2.4095729e-31
2.4095837e-31
2.4096601e-31
2.4099101e-31
2.4106209e-31
2.4170321e-31
2.4127792e-31
2.4110776e-31
2.4104941e-31
2.4103229e-31
2.410283e-31
2.410294e-31
2.4103704e-31
2.4106209e-31
2.4113341e-31
5.6280987e-31
5.6181997e-31
5.6142363e-31
5.6128763e-31
5.6124762e-31
5.6123801e-31
5.6123934e-31
5.6125288e-31
5.6129809e-31
5.614281e-31
5.6181997e-31
5.6083509e-31
5.6044032e-31
5.6030479e-31
5.6026494e-31
5.6025546e-31
5.6025722e-31
5.6027241e-31
5.6032346e-31
5.604732e-31
5.6142363e-31
5.6044032e-31
5.6004627e-31
5.59911e-31
5.5987125e-31
5.5986188e-31
5.5986399e-31
5.5988034e-31
5.5993451e-31
5.6008999e-31
5.6128763e-31
5.6030479e-31
5.59911e-31
5.5977584e-31
5.5973613e-31
5.5972683e-31
5.597291e-31
5.5974596e-31
5.5980127e-31
5.5995835e-31
5.6124762e-31
5.6026494e-31
5.5987125e-31
5.5973613e-31
5.5969644e-31
5.5968716e-31
5.596895e-31
5.5970652e-31
5.5976218e-31
5.5991966e-31
5.6123801e-31
5.6025546e-31
5.5986188e-31
5.5972683e-31
5.5968716e-31
5.5967789e-31
5.5968026e-31
5.5969733e-31
5.5975307e-31
5.5991065e-31
5.6123934e-31
5.6025722e-31
5.5986399e-31
5.597291e-31
5.596895e-31
5.5968026e-31
5.5968263e-31
5.5969972e-31
5.5975549e-31
5.599131e-31
5.6125288e-31
5.6027241e-31
5.5988034e-31
5.5974596e-31
5.5970652e-31
5.5969733e-31
5.5969972e-31
5.5971682e-31
5.5977261e-31
5.5993025e-31
5.6129809e-31
5.6032346e-31
5.5993451e-31
5.5980127e-31
5.5976218e-31
5.5975307e-31
5.5975549e-31
5.5977261e-31
5.5982844e-31
5.599862e-31
5.614281e-31
5.604732e-31
5.6008999e-31
5.5995835e-31
5.5991966e-31
5.5991065e-31
5.599131e-31
5.5993025e-31
5.599862e-31
5.6014444e-31
1.3251506e-30
1.3228969e-30
1.321992e-30
1.321681e-30
1.3215894e-30
1.3215674e-30
1.3215703e-30
1.3216009e-30
1.3217024e-30
1.3219923e-30
1.3228969e-30
1.3206546e-30
1.3197532e-30
1.3194432e-30
1.319352e-30
1.3193303e-30
1.3193342e-30
1.3193686e-30
1.3194839e-30
1.3198199e-30
1.321992e-30
1.3197532e-30
1.3188535e-30
1.3185441e-30
1.318453e-30
1.3184316e-30
1.3184363e-30
1.3184735e-30
1.318596e-30
1.3189455e-30
1.321681e-30
1.3194432e-30
1.3185441e-30
1.318235e-30
1.318144e-30
1.3181227e-30
1.3181278e-30
1.3181661e-30
1.3182913e-30
1.3186446e-30
1.3215894e-30
1.319352e-30
1.318453e-30
1.318144e-30
1.3180531e-30
1.3180319e-30
1.3180372e-30
1.3180759e-30
1.3182018e-30
1.318556e-30
1.3215674e-30
1.3193303e-30
1.3184316e-30
1.3181227e-30
1.3180319e-30
1.3180106e-30
1.318016e-30
1.3180548e-30
1.318181e-30
1.3185354e-30
1.3215703e-30
1.3193342e-30
1.3184363e-30
1.3181278e-30
1.3180372e-30
1.318016e-30
1.3180214e-30
1.3180602e-30
1.3181865e-30
1.3185409e-30
1.3216009e-30
1.3193686e-30
1.3184735e-30
1.3181661e-30
1.3180759e-30
1.3180548e-30
1.3180602e-30
1.3180991e-30
1.3182254e-30
1.3185799e-30
1.3217024e-30
1.3194839e-30
1.318596e-30
1.3182913e-30
1.3182018e-30
1.318181e-30
1.3181865e-30
1.3182254e-30
1.3183518e-30
1.3187066e-30
1.3219923e-30
1.3198199e-30
1.3189455e-30
1.3186446e-30
1.318556e-30
1.3185354e-30
1.3185409e-30
1.3185799e-30
1.3187066e-30
1.3190624e-30
3.163424e-30
3.1582242e-30
3.1561305e-30
3.1554097e-30
3.1551972e-30
3.155146e-30
3.1551526e-30
3.1552225e-30
3.1554539e-30
3.156109e-30
3.1582242e-30
3.1530503e-30
3.1509647e-30
3.1502463e-30
3.1500345e-30
3.1499841e-30
3.149993e-30
3.1500721e-30
3.1503358e-30
3.1511004e-30
3.1561305e-30
3.1509647e-30
3.1488828e-30
3.1481657e-30
3.1479545e-30
3.1479046e-30
3.1479155e-30
3.148001e-30
3.1482819e-30
3.1490783e-30
3.1554097e-30
3.1502463e-30
3.1481657e-30
3.1474493e-30
3.1472383e-30
3.1471887e-30
3.1472006e-30
3.1472888e-30
3.147576e-30
3.1483813e-30
3.1551972e-30
3.1500345e-30
3.1479545e-30
3.1472383e-30
3.1470274e-30
3.146978e-30
3.1469902e-30
3.1470793e-30
3.1473685e-30
3.148176e-30
3.155146e-30
3.1499841e-30
3.1479046e-30
3.1471887e-30
3.146978e-30
3.1469286e-30
3.1469409e-30
3.1470304e-30
3.14732e-30
3.148128e-30
3.1551526e-30
3.149993e-30
3.1479155e-30
3.1472006e-30
3.1469902e-30
3.1469409e-30
3.1469533e-30
3.1470428e-30
3.1473326e-30
3.1481408e-30
3.1552225e-30
3.1500721e-30
3.148001e-30
3.1472888e-30
3.1470793e-30
3.1470304e-30
3.1470428e-30
3.1471324e-30
3.1474223e-30
3.1482306e-30
3.1554539e-30
3.1503358e-30
3.1482819e-30
3.147576e-30
3.1473685e-30
3.14732e-30
3.1473326e-30
3.1474223e-30
3.1477124e-30
3.1485213e-30
3.156109e-30
3.1511004e-30
3.1490783e-30
3.1483813e-30
3.148176e-30
3.148128e-30
3.1481408e-30
3.1482306e-30
3.1485213e-30
3.1493326e-30
7.6572655e-30
7.6451063e-30
7.640197e-30
7.638504e-30
7.6380043e-30
7.6378837e-30
7.6378987e-30
7.6380609e-30
7.6385951e-30
7.6400958e-30
7.6451063e-30
7.6330069e-30
7.6281162e-30
7.6264289e-30
7.625931e-30
7.6258121e-30
7.6258328e-30
7.6260169e-30
7.6266287e-30
7.6283924e-30
7.640197e-30
7.6281162e-30
7.6232341e-30
7.62155e-30
7.6210533e-30
7.6209358e-30
7.6209611e-30
7.6211605e-30
7.6218137e-30
7.6236537e-30
7.638504e-30
7.6264289e-30
7.62155e-30
7.6198671e-30
7.619371e-30
7.6192543e-30
7.6192818e-30
7.6194879e-30
7.6201562e-30
7.6220175e-30
7.6380043e-30
7.625931e-30
7.6210533e-30
7.619371e-30
7.6188751e-30
7.6187587e-30
7.6187871e-30
7.6189954e-30
7.6196683e-30
7.621535e-30
7.6378837e-30
7.6258121e-30
7.6209358e-30
7.6192543e-30
7.6187587e-30
7.6186426e-30
7.6186713e-30
7.6188802e-30
7.6195542e-30
7.6214222e-30
7.6378987e-30
7.6258328e-30
7.6209611e-30
7.6192818e-30
7.6187871e-30
7.6186713e-30
7.6187001e-30
7.6189093e-30
7.6195836e-30
7.6214519e-30
7.6380609e-30
7.6260169e-30
7.6211605e-30
7.6194879e-30
7.6189954e-30
7.6188802e-30
7.6189093e-30
7.6191185e-30
7.6197931e-30
7.6216618e-30
7.6385951e-30
7.6266287e-30
7.6218137e-30
7.6201562e-30
7.6196683e-30
7.6195542e-30
7.6195836e-30
7.6197931e-30
7.6204683e-30
7.6223382e-30
7.6400958e-30
7.6283924e-30
7.6236537e-30
7.6220175e-30
7.621535e-30
7.6214222e-30
7.6214519e-30
7.6216618e-30
7.6223382e-30
7.6242137e-30
1.8794949e-29
1.8766131e-29
1.8754464e-29
1.8750434e-29
1.8749243e-29
1.8748956e-29
1.874899e-29
1.8749371e-29
1.8750622e-29
1.8754107e-29
1.8766131e-29
1.8737453e-29
1.8725829e-29
1.8721813e-29
1.8720626e-29
1.8720343e-29
1.8720391e-29
1.8720825e-29
1.8722265e-29
1.872639e-29
1.8754464e-29
1.8725829e-29
1.8714226e-29
1.8710217e-29
1.8709033e-29
1.8708753e-29
1.8708813e-29
1.8709284e-29
1.8710824e-29
1.8715135e-29
1.8750434e-29
1.8721813e-29
1.8710217e-29
1.8706211e-29
1.8705029e-29
1.870475e-29
1.8704815e-29
1.8705303e-29
1.870688e-29
1.8711242e-29
1.8749243e-29
1.8720626e-29
1.8709033e-29
1.8705029e-29
1.8703847e-29
1.8703569e-29
1.8703636e-29
1.870413e-29
1.8705717e-29
1.8710093e-29
1.8748956e-29
1.8720343e-29
1.8708753e-29
1.870475e-29
1.8703569e-29
1.8703292e-29
1.870336e-29
1.8703855e-29
1.8705445e-29
1.8709824e-29
1.874899e-29
1.8720391e-29
1.8708813e-29
1.8704815e-29
1.8703636e-29
1.870336e-29
1.8703428e-29
1.8703924e-29
1.8705515e-29
1.8709895e-29
1.8749371e-29
1.8720825e-29
1.8709284e-29
1.8705303e-29
1.870413e-29
1.8703855e-29
1.8703924e-29
1.8704419e-29
1.8706011e-29
1.8710392e-29
1.8750622e-29
1.8722265e-29
1.8710824e-29
1.870688e-29
1.8705717e-29
1.8705445e-29
1.8705515e-29
1.8706011e-29
1.8707604e-29
1.8711988e-29
1.8754107e-29
1.872639e-29
1.8715135e-29
1.8711242e-29
1.8710093e-29
1.8709824e-29
1.8709895e-29
1.8710392e-29
1.8711988e-29
1.8716384e-29
4.6782349e-29
4.6713118e-29
4.6685015e-29
4.6675293e-29
4.6672418e-29
4.6671722e-29
4.6671802e-29
4.6672712e-29
4.6675679e-29
4.6683882e-29
4.6713118e-29
4.664422e-29
4.6616221e-29
4.6606531e-29
4.6603665e-29
4.6602979e-29
4.6603094e-29
4.6604134e-29
4.6607567e-29
4.6617351e-29
4.6685015e-29
4.6616221e-29
4.658827e-29
4.6578598e-29
4.6575739e-29
4.6575061e-29
4.6575204e-29
4.6576336e-29
4.6580016e-29
4.6590258e-29
4.6675293e-29
4.6606531e-29
4.6578598e-29
4.6568932e-29
4.6566077e-29
4.6565404e-29
4.656556e-29
4.6566732e-29
4.6570503e-29
4.6580872e-29
4.6672418e-29
4.6603665e-29
4.6575739e-29
4.6566077e-29
4.6563223e-29
4.6562552e-29
4.6562713e-29
4.6563898e-29
4.6567697e-29
4.6578098e-29
4.6671722e-29
4.6602979e-29
4.6575061e-29
4.6565404e-29
4.6562552e-29
4.6561882e-29
4.6562045e-29
4.6563234e-29
4.6567039e-29
4.6577449e-29
4.6671802e-29
4.6603094e-29
4.6575204e-29
4.656556e-29
4.6562713e-29
4.6562045e-29
4.6562208e-29
4.6563399e-29
4.6567206e-29
4.6577617e-29
4.6672712e-29
4.6604134e-29
4.6576336e-29
4.6566732e-29
4.6563898e-29
4.6563234e-29
4.6563399e-29
4.656459e-29
4.6568399e-29
4.6578812e-29
4.6675679e-29
4.6607567e-29
4.6580016e-29
4.6570503e-29
4.6567697e-29
4.6567039e-29
4.6567206e-29
4.6568399e-29
4.6572211e-29
4.6582631e-29
4.6683882e-29
4.6617351e-29
4.6590258e-29
4.6580872e-29
4.6578098e-29
4.6577449e-29
4.6577617e-29
4.6578812e-29
4.6582631e-29
4.6593081e-29
1.180903e-28
1.1792172e-28
1.1785311e-28
1.1782934e-28
1.178223e-28
1.178206e-28
1.1782079e-28
1.1782298e-28
1.1783012e-28
1.178497e-28
1.1792172e-28
1.1775394e-28
1.1768558e-28
1.1766189e-28
1.1765487e-28
1.1765319e-28
1.1765347e-28
1.1765599e-28
1.176643e-28
1.1768783e-28
1.1785311e-28
1.1768558e-28
1.1761734e-28
1.1759369e-28
1.1758669e-28
1.1758503e-28
1.1758537e-28
1.1758813e-28
1.1759705e-28
1.1762173e-28
1.1782934e-28
1.1766189e-28
1.1759369e-28
1.1757005e-28
1.1756306e-28
1.1756141e-28
1.1756179e-28
1.1756465e-28
1.175738e-28
1.1759879e-28
1.178223e-28
1.1765487e-28
1.1758669e-28
1.1756306e-28
1.1755608e-28
1.1755443e-28
1.1755482e-28
1.1755771e-28
1.1756693e-28
1.17592e-28
1.178206e-28
1.1765319e-28
1.1758503e-28
1.1756141e-28
1.1755443e-28
1.1755279e-28
1.1755319e-28
1.1755608e-28
1.1756532e-28
1.1759041e-28
1.1782079e-28
1.1765347e-28
1.1758537e-28
1.1756179e-28
1.1755482e-28
1.1755319e-28
1.1755359e-28
1.1755649e-28
1.1756572e-28
1.1759082e-28
1.1782298e-28
1.1765599e-28
1.1758813e-28
1.1756465e-28
1.1755771e-28
1.1755608e-28
1.1755649e-28
1.1755939e-28
1.1756863e-28
1.1759373e-28
1.1783012e-28
1.176643e-28
1.1759705e-28
1.175738e-28
1.1756693e-28
1.1756532e-28
1.1756572e-28
1.1756863e-28
1.1757788e-28
1.17603e-28
1.178497e-28
1.1768783e-28
1.1762173e-28
1.1759879e-28
1.17592e-28
1.1759041e-28
1.1759082e-28
1.1759373e-28
1.17603e-28
1.1762819e-28
3.0230914e-28
3.0189305e-28
3.0172327e-28
3.0166436e-28
3.016469e-28
3.0164266e-28
3.0164312e-28
3.016485e-28
3.0166592e-28
3.017133e-28
3.0189305e-28
3.0147892e-28
3.0130975e-28
3.0125102e-28
3.0123362e-28
3.0122944e-28
3.0123011e-28
3.0123633e-28
3.012567e-28
3.013141e-28
3.0172327e-28
3.0130975e-28
3.0114086e-28
3.0108224e-28
3.0106488e-28
3.0106075e-28
3.010616e-28
3.010684e-28
3.0109033e-28
3.0115063e-28
3.0166436e-28
3.0125102e-28
3.0108224e-28
3.0102366e-28
3.0100632e-28
3.0100222e-28
3.0100316e-28
3.0101021e-28
3.0103271e-28
3.0109382e-28
3.016469e-28
3.0123362e-28
3.0106488e-28
3.0100632e-28
3.0098899e-28
3.009849e-28
3.0098587e-28
3.00993e-28
3.0101568e-28
3.0107699e-28
3.0164266e-28
3.0122944e-28
3.0106075e-28
3.0100222e-28
3.009849e-28
3.0098083e-28
3.0098181e-28
3.0098896e-28
3.0101169e-28
3.0107304e-28
3.0164312e-28
3.0123011e-28
3.010616e-28
3.0100316e-28
3.0098587e-28
3.0098181e-28
3.0098279e-28
3.0098995e-28
3.0101269e-28
3.0107406e-28
3.016485e-28
3.0123633e-28
3.010684e-28
3.0101021e-28
3.00993e-28
3.0098896e-28
3.0098995e-28
3.0099712e-28
3.0101987e-28
3.0108125e-28
3.0166592e-28
3.012567e-28
3.0109033e-28
3.0103271e-28
3.0101568e-28
3.0101169e-28
3.0101269e-28
3.0101987e-28
3.0104263e-28
3.0110405e-28
3.017133e-28
3.013141e-28
3.0115063e-28
3.0109382e-28
3.0107699e-28
3.0107304e-28
3.0107406e-28
3.0108125e-28
3.0110405e-28
3.0116564e-28
7.8487777e-28
7.8383674e-28
7.8341089e-28
7.8326292e-28
7.8321901e-28
7.8320833e-28
7.8320945e-28
7.8322285e-28
7.8326594e-28
7.8338216e-28
7.8383674e-28
7.8280057e-28
7.8237623e-28
7.8222871e-28
7.8218495e-28
7.8217444e-28
7.8217611e-28
7.8219163e-28
7.822423e-28
7.8238428e-28
7.8341089e-28
7.8237623e-28
7.819526e-28
7.8180534e-28
7.8176169e-28
7.8175131e-28
7.8175343e-28
7.8177043e-28
7.8182512e-28
7.8197456e-28
7.8326292e-28
7.8222871e-28
7.8180534e-28
7.8165819e-28
7.8161458e-28
7.8160428e-28
7.8160662e-28
7.8162426e-28
7.8168043e-28
7.8183193e-28
7.8321901e-28
7.8218495e-28
7.8176169e-28
7.8161458e-28
7.81571e-28
7.8156073e-28
7.8156315e-28
7.8158101e-28
7.8163761e-28
7.8178965e-28
7.8320833e-28
7.8217444e-28
7.8175131e-28
7.8160428e-28
7.8156073e-28
7.8155047e-28
7.8155292e-28
7.8157084e-28
7.8162756e-28
7.8177972e-28
7.8320945e-28
7.8217611e-28
7.8175343e-28
7.8160662e-28
7.8156315e-28
7.8155292e-28
7.8155538e-28
7.8157333e-28
7.8163007e-28
7.8178227e-28
7.8322285e-28
7.8219163e-28
7.8177043e-28
7.8162426e-28
7.8158101e-28
7.8157084e-28
7.8157333e-28
7.8159129e-28
7.8164805e-28
7.8180027e-28
7.8326594e-28
7.822423e-28
7.8182512e-28
7.8168043e-28
7.8163761e-28
7.8162756e-28
7.8163007e-28
7.8164805e-28
7.8170486e-28
7.8185718e-28
7.8338216e-28
7.8238428e-28
7.8197456e-28
7.8183193e-28
7.8178965e-28
7.8177972e-28
7.8178227e-28
7.8180027e-28
7.8185718e-28
7.8200991e-28
2.0666664e-27
2.0640263e-27
2.0629437e-27
2.062567e-27
2.0624551e-27
2.0624278e-27
2.0624306e-27
2.0624644e-27
2.0625725e-27
2.0628615e-27
2.0640263e-27
2.0613985e-27
2.0603196e-27
2.059944e-27
2.0598325e-27
2.0598057e-27
2.0598099e-27
2.0598492e-27
2.059977e-27
2.0603332e-27
2.0629437e-27
2.0603196e-27
2.0592426e-27
2.0588677e-27
2.0587564e-27
2.0587299e-27
2.0587353e-27
2.0587784e-27
2.0589167e-27
2.0592923e-27
2.062567e-27
2.059944e-27
2.0588677e-27
2.058493e-27
2.0583819e-27
2.0583556e-27
2.0583615e-27
2.0584063e-27
2.0585484e-27
2.0589294e-27
2.0624551e-27
2.0598325e-27
2.0587564e-27
2.0583819e-27
2.0582708e-27
2.0582446e-27
2.0582507e-27
2.0582961e-27
2.0584394e-27
2.0588217e-27
2.0624278e-27
2.0598057e-27
2.0587299e-27
2.0583556e-27
2.0582446e-27
2.0582184e-27
2.0582246e-27
2.0582702e-27
2.0584137e-27
2.0587964e-27
2.0624306e-27
2.0598099e-27
2.0587353e-27
2.0583615e-27
2.0582507e-27
2.0582246e-27
2.0582309e-27
2.0582765e-27
2.0584201e-27
2.0588029e-27
2.0624644e-27
2.0598492e-27
2.0587784e-27
2.0584063e-27
2.0582961e-27
2.0582702e-27
2.0582765e-27
2.0583221e-27
2.0584658e-27
2.0588487e-27
2.0625725e-27
2.059977e-27
2.0589167e-27
2.0585484e-27
2.0584394e-27
2.0584137e-27
2.0584201e-27
2.0584658e-27
2.0586096e-27
2.0589927e-27
2.0628615e-27
2.0603332e-27
2.0592923e-27
2.0589294e-27
2.0588217e-27
2.0587964e-27
2.0588029e-27
2.0588487e-27
2.0589927e-27
2.0593768e-27
5.5189319e-27
5.5121457e-27
5.5093561e-27
5.508384e-27
5.5080949e-27
5.5080245e-27
5.5080314e-27
5.5081177e-27
5.5083927e-27
5.5091218e-27
5.5121457e-27
5.5053905e-27
5.5026105e-27
5.5016413e-27
5.5013532e-27
5.5012839e-27
5.5012946e-27
5.5013954e-27
5.5017225e-27
5.5026288e-27
5.5093561e-27
5.5026105e-27
5.4998351e-27
5.4988675e-27
5.4985801e-27
5.4985117e-27
5.4985255e-27
5.4986365e-27
5.4989911e-27
5.4999487e-27
5.508384e-27
5.5016413e-27
5.4988675e-27
5.4979007e-27
5.4976136e-27
5.4975456e-27
5.497561e-27
5.4976764e-27
5.4980411e-27
5.4990129e-27
5.5080949e-27
5.5013532e-27
5.4985801e-27
5.4976136e-27
5.4973267e-27
5.497259e-27
5.4972748e-27
5.4973918e-27
5.4977595e-27
5.4987349e-27
5.5080245e-27
5.5012839e-27
5.4985117e-27
5.4975456e-27
5.497259e-27
5.4971913e-27
5.4972074e-27
5.4973248e-27
5.4976932e-27
5.4986695e-27
5.5080314e-27
5.5012946e-27
5.4985255e-27
5.497561e-27
5.4972748e-27
5.4972074e-27
5.4972236e-27
5.4973411e-27
5.4977098e-27
5.4986863e-27
5.5081177e-27
5.5013954e-27
5.4986365e-27
5.4976764e-27
5.4973918e-27
5.4973248e-27
5.4973411e-27
5.4974586e-27
5.4978275e-27
5.4988042e-27
5.5083927e-27
5.5017225e-27
5.4989911e-27
5.4980411e-27
5.4977595e-27
5.4976932e-27
5.4977098e-27
5.4978275e-27
5.4981966e-27
5.4991739e-27
5.5091218e-27
5.5026288e-27
5.4999487e-27
5.4990129e-27
5.4987349e-27
5.4986695e-27
5.4986863e-27
5.4988042e-27
5.4991739e-27
5.5001537e-27
1.4946836e-26
1.4929155e-26
1.492187e-26
1.4919327e-26
1.4918571e-26
1.4918386e-26
1.4918404e-26
1.4918628e-26
1.4919337e-26
1.4921201e-26
1.4929155e-26
1.4911555e-26
1.4904294e-26
1.4901759e-26
1.4901005e-26
1.4900823e-26
1.4900851e-26
1.4901114e-26
1.4901962e-26
1.4904301e-26
1.492187e-26
1.4904294e-26
1.4897045e-26
1.4894515e-26
1.4893762e-26
1.4893583e-26
1.4893619e-26
1.4893909e-26
1.4894831e-26
1.4897307e-26
1.4919327e-26
1.4901759e-26
1.4894515e-26
1.4891986e-26
1.4891235e-26
1.4891057e-26
1.4891097e-26
1.4891398e-26
1.4892347e-26
1.4894861e-26
1.4918571e-26
1.4901005e-26
1.4893762e-26
1.4891235e-26
1.4890484e-26
1.4890306e-26
1.4890348e-26
1.4890653e-26
1.489161e-26
1.4894134e-26
1.4918386e-26
1.4900823e-26
1.4893583e-26
1.4891057e-26
1.4890306e-26
1.4890129e-26
1.4890171e-26
1.4890478e-26
1.4891437e-26
1.4893963e-26
1.4918404e-26
1.4900851e-26
1.4893619e-26
1.4891097e-26
1.4890348e-26
1.4890171e-26
1.4890213e-26
1.489052e-26
1.489148e-26
1.4894007e-26
1.4918628e-26
1.4901114e-26
1.4893909e-26
1.4891398e-26
1.4890653e-26
1.4890478e-26
1.489052e-26
1.4890828e-26
1.4891788e-26
1.4894315e-26
1.4919337e-26
1.4901962e-26
1.4894831e-26
1.4892347e-26
1.489161e-26
1.4891437e-26
1.489148e-26
1.4891788e-26
1.4892749e-26
1.4895277e-26
1.4921201e-26
1.4904301e-26
1.4897307e-26
1.4894861e-26
1.4894134e-26
1.4893963e-26
1.4894007e-26
1.4894315e-26
1.4895277e-26
1.4897812e-26
4.1052583e-26
4.1005896e-26
4.0986614e-26
4.0979876e-26
4.0977868e-26
4.0977378e-26
4.0977424e-26
4.0978011e-26
4.0979867e-26
4.0984701e-26
4.1005896e-26
4.0959418e-26
4.09402e-26
4.0933482e-26
4.0931481e-26
4.0930998e-26
4.0931072e-26
4.0931765e-26
4.0933997e-26
4.0940118e-26
4.0986614e-26
4.09402e-26
4.0921014e-26
4.0914306e-26
4.091231e-26
4.0911834e-26
4.091193e-26
4.0912697e-26
4.0915129e-26
4.0921622e-26
4.0979876e-26
4.0933482e-26
4.0914306e-26
4.0907604e-26
4.090561e-26
4.0905138e-26
4.0905244e-26
4.0906043e-26
4.0908548e-26
4.0915144e-26
4.0977868e-26
4.0931481e-26
4.091231e-26
4.090561e-26
4.0903618e-26
4.0903147e-26
4.0903257e-26
4.0904067e-26
4.0906594e-26
4.0913216e-26
4.0977378e-26
4.0930998e-26
4.0911834e-26
4.0905138e-26
4.0903147e-26
4.0902677e-26
4.0902788e-26
4.0903601e-26
4.0906134e-26
4.0912762e-26
4.0977424e-26
4.0931072e-26
4.091193e-26
4.0905244e-26
4.0903257e-26
4.0902788e-26
4.0902901e-26
4.0903714e-26
4.0906249e-26
4.0912879e-26
4.0978011e-26
4.0931765e-26
4.0912697e-26
4.0906043e-26
4.0904067e-26
4.0903601e-26
4.0903714e-26
4.0904529e-26
4.0907064e-26
4.0913695e-26
4.0979867e-26
4.0933997e-26
4.0915129e-26
4.0908548e-26
4.0906594e-26
4.0906134e-26
4.0906249e-26
4.0907064e-26
4.0909601e-26
4.0916236e-26
4.0984701e-26
4.0940118e-26
4.0921622e-26
4.0915144e-26
4.0913216e-26
4.0912762e-26
4.0912879e-26
4.0913695e-26
4.0916236e-26
4.0922888e-26
1.1434313e-25
1.1421818e-25
1.1416647e-25
1.1414837e-25
1.1414297e-25
1.1414165e-25
1.1414177e-25
1.1414334e-25
1.1414826e-25
1.1416097e-25
1.1421818e-25
1.140938e-25
1.1404225e-25
1.1402421e-25
1.1401883e-25
1.1401753e-25
1.1401772e-25
1.1401958e-25
1.1402554e-25
1.1404178e-25
1.1416647e-25
1.1404225e-25
1.1399079e-25
1.1397277e-25
1.139674e-25
1.1396612e-25
1.1396638e-25
1.1396844e-25
1.1397494e-25
1.1399221e-25
1.1414837e-25
1.1402421e-25
1.1397277e-25
1.1395477e-25
1.1394941e-25
1.1394814e-25
1.1394842e-25
1.1395057e-25
1.1395727e-25
1.1397483e-25
1.1414297e-25
1.1401883e-25
1.139674e-25
1.1394941e-25
1.1394405e-25
1.1394278e-25
1.1394308e-25
1.1394526e-25
1.1395202e-25
1.1396965e-25
1.1414165e-25
1.1401753e-25
1.1396612e-25
1.1394814e-25
1.1394278e-25
1.1394152e-25
1.1394182e-25
1.1394401e-25
1.1395079e-25
1.1396843e-25
1.1414177e-25
1.1401772e-25
1.1396638e-25
1.1394842e-25
1.1394308e-25
1.1394182e-25
1.1394213e-25
1.1394431e-25
1.139511e-25
1.1396874e-25
1.1414334e-25
1.1401958e-25
1.1396844e-25
1.1395057e-25
1.1394526e-25
1.1394401e-25
1.1394431e-25
1.139465e-25
1.1395329e-25
1.1397094e-25
1.1414826e-25
1.1402554e-25
1.1397494e-25
1.1395727e-25
1.1395202e-25
1.1395079e-25
1.139511e-25
1.1395329e-25
1.1396008e-25
1.1397774e-25
1.1416097e-25
1.1404178e-25
1.1399221e-25
1.1397483e-25
1.1396965e-25
1.1396843e-25
1.1396874e-25
1.1397094e-25
1.1397774e-25
1.1399544e-25
3.2294819e-25
3.2260936e-25
3.2246879e-25
3.2241954e-25
3.2240484e-25
3.2240125e-25
3.2240157e-25
3.224058e-25
3.2241902e-25
3.224529e-25
3.2260936e-25
3.2227203e-25
3.2213192e-25
3.220828e-25
3.2206815e-25
3.2206461e-25
3.2206514e-25
3.2207018e-25
3.2208629e-25
3.2213002e-25
3.2246879e-25
3.2213192e-25
3.2199203e-25
3.21943e-25
3.2192838e-25
3.2192489e-25
3.2192559e-25
3.2193119e-25
3.2194883e-25
3.2199541e-25
3.2241954e-25
3.220828e-25
3.21943e-25
3.21894e-25
3.218794e-25
3.2187594e-25
3.2187672e-25
3.2188256e-25
3.2190076e-25
3.2194813e-25
3.2240484e-25
3.2206815e-25
3.2192838e-25
3.218794e-25
3.2186481e-25
3.2186136e-25
3.2186217e-25
3.218681e-25
3.2188646e-25
3.2193403e-25
3.2240125e-25
3.2206461e-25
3.2192489e-25
3.2187594e-25
3.2186136e-25
3.2185791e-25
3.2185874e-25
3.2186469e-25
3.218831e-25
3.2193071e-25
3.2240157e-25
3.2206514e-25
3.2192559e-25
3.2187672e-25
3.2186217e-25
3.2185874e-25
3.2185957e-25
3.2186552e-25
3.2188395e-25
3.2193157e-25
3.224058e-25
3.2207018e-25
3.2193119e-25
3.2188256e-25
3.218681e-25
3.2186469e-25
3.2186552e-25
3.2187148e-25
3.2188991e-25
3.2193755e-25
3.2241902e-25
3.2208629e-25
3.2194883e-25
3.2190076e-25
3.2188646e-25
3.218831e-25
3.2188395e-25
3.2188991e-25
3.2190835e-25
3.2195602e-25
3.224529e-25
3.2213002e-25
3.2199541e-25
3.2194813e-25
3.2193403e-25
3.2193071e-25
3.2193157e-25
3.2193755e-25
3.2195602e-25