/*--------------------------------*- C++ -*----------------------------------*\
| =========                 |                                                 |
| \\      /  F ield         | OpenFOAM: The Open Source CFD Toolbox           |
|  \\    /   O peration     | Version:  dev                                   |
|   \\  /    A nd           | Web:      www.OpenFOAM.org                      |
|    \\/     M anipulation  |                                                 |
\*---------------------------------------------------------------------------*/
FoamFile
{
    version     2.0;
    format      ascii;
    class       volScalarField;
    location    "7";
    object      A;
}
// * * * * * * * * * * * * * * * * * * * * * * * * * * * * * * * * * * * * * //

dimensions      [0 0 0 0 1 0 0];

internalField   nonuniform List<scalar> 
10000
(
8.2196842e-82
8.2145019e-82
8.2131541e-82
8.2128847e-82
8.2128418e-82
8.2128362e-82
8.2128357e-82
8.2128367e-82
8.2128422e-82
8.2128712e-82
8.2145019e-82
8.209325e-82
8.2079785e-82
8.2077093e-82
8.2076664e-82
8.2076608e-82
8.2076605e-82
8.2076627e-82
8.2076748e-82
8.2077341e-82
8.2131541e-82
8.2079785e-82
8.2066323e-82
8.2063632e-82
8.2063203e-82
8.2063148e-82
8.2063145e-82
8.2063172e-82
8.2063317e-82
8.2063975e-82
8.2128847e-82
8.2077093e-82
8.2063632e-82
8.2060941e-82
8.2060512e-82
8.2060457e-82
8.2060455e-82
8.2060482e-82
8.2060632e-82
8.2061302e-82
8.2128418e-82
8.2076664e-82
8.2063203e-82
8.2060512e-82
8.2060084e-82
8.2060028e-82
8.2060026e-82
8.2060054e-82
8.2060205e-82
8.2060876e-82
8.2128362e-82
8.2076608e-82
8.2063148e-82
8.2060457e-82
8.2060028e-82
8.2059972e-82
8.2059971e-82
8.2059999e-82
8.2060149e-82
8.2060821e-82
8.2128357e-82
8.2076605e-82
8.2063145e-82
8.2060455e-82
8.2060026e-82
8.2059971e-82
8.2059969e-82
8.2059997e-82
8.2060147e-82
8.2060819e-82
8.2128367e-82
8.2076627e-82
8.2063172e-82
8.2060482e-82
8.2060054e-82
8.2059999e-82
8.2059997e-82
8.2060025e-82
8.2060175e-82
8.2060847e-82
8.2128422e-82
8.2076748e-82
8.2063317e-82
8.2060632e-82
8.2060205e-82
8.2060149e-82
8.2060147e-82
8.2060175e-82
8.2060326e-82
8.2060998e-82
8.2128712e-82
8.2077341e-82
8.2063975e-82
8.2061302e-82
8.2060876e-82
8.2060821e-82
8.2060819e-82
8.2060847e-82
8.2060998e-82
8.206167e-82
7.5121562e-81
7.507543e-81
7.5063386e-81
7.5060977e-81
7.5060593e-81
7.5060543e-81
7.5060538e-81
7.5060547e-81
7.5060597e-81
7.5060865e-81
7.507543e-81
7.5029345e-81
7.5017312e-81
7.5014905e-81
7.5014521e-81
7.5014471e-81
7.5014469e-81
7.5014488e-81
7.5014597e-81
7.5015139e-81
7.5063386e-81
7.5017312e-81
7.5005281e-81
7.5002875e-81
7.5002492e-81
7.5002442e-81
7.500244e-81
7.5002464e-81
7.5002594e-81
7.5003195e-81
7.5060977e-81
7.5014905e-81
7.5002875e-81
7.5000469e-81
7.5000086e-81
7.5000036e-81
7.5000034e-81
7.5000059e-81
7.5000194e-81
7.5000805e-81
7.5060593e-81
7.5014521e-81
7.5002492e-81
7.5000086e-81
7.4999703e-81
7.4999653e-81
7.4999651e-81
7.4999676e-81
7.4999812e-81
7.5000425e-81
7.5060543e-81
7.5014471e-81
7.5002442e-81
7.5000036e-81
7.4999653e-81
7.4999603e-81
7.4999601e-81
7.4999627e-81
7.4999762e-81
7.5000375e-81
7.5060538e-81
7.5014469e-81
7.500244e-81
7.5000034e-81
7.4999651e-81
7.4999601e-81
7.49996e-81
7.4999625e-81
7.4999761e-81
7.5000374e-81
7.5060547e-81
7.5014488e-81
7.5002464e-81
7.5000059e-81
7.4999676e-81
7.4999627e-81
7.4999625e-81
7.499965e-81
7.4999786e-81
7.5000399e-81
7.5060597e-81
7.5014597e-81
7.5002594e-81
7.5000194e-81
7.4999812e-81
7.4999762e-81
7.4999761e-81
7.4999786e-81
7.4999922e-81
7.5000535e-81
7.5060865e-81
7.5015139e-81
7.5003195e-81
7.5000805e-81
7.5000425e-81
7.5000375e-81
7.5000374e-81
7.5000399e-81
7.5000535e-81
7.5001148e-81
6.1962345e-80
6.1925329e-80
6.1915651e-80
6.1913715e-80
6.1913406e-80
6.1913366e-80
6.1913362e-80
6.1913369e-80
6.1913409e-80
6.1913621e-80
6.1925329e-80
6.188835e-80
6.1878681e-80
6.1876746e-80
6.1876438e-80
6.1876398e-80
6.1876396e-80
6.1876412e-80
6.18765e-80
6.1876935e-80
6.1915651e-80
6.1878681e-80
6.1869014e-80
6.186708e-80
6.1866772e-80
6.1866732e-80
6.1866731e-80
6.186675e-80
6.1866856e-80
6.1867339e-80
6.1913715e-80
6.1876746e-80
6.186708e-80
6.1865146e-80
6.1864838e-80
6.1864798e-80
6.1864797e-80
6.1864817e-80
6.1864926e-80
6.1865418e-80
6.1913406e-80
6.1876438e-80
6.1866772e-80
6.1864838e-80
6.186453e-80
6.186449e-80
6.1864489e-80
6.1864509e-80
6.1864619e-80
6.1865112e-80
6.1913366e-80
6.1876398e-80
6.1866732e-80
6.1864798e-80
6.186449e-80
6.186445e-80
6.1864449e-80
6.1864469e-80
6.1864579e-80
6.1865072e-80
6.1913362e-80
6.1876396e-80
6.1866731e-80
6.1864797e-80
6.1864489e-80
6.1864449e-80
6.1864448e-80
6.1864468e-80
6.1864578e-80
6.1865071e-80
6.1913369e-80
6.1876412e-80
6.186675e-80
6.1864817e-80
6.1864509e-80
6.1864469e-80
6.1864468e-80
6.1864489e-80
6.1864599e-80
6.1865092e-80
6.1913409e-80
6.18765e-80
6.1866856e-80
6.1864926e-80
6.1864619e-80
6.1864579e-80
6.1864578e-80
6.1864599e-80
6.1864709e-80
6.1865202e-80
6.1913621e-80
6.1876935e-80
6.1867339e-80
6.1865418e-80
6.1865112e-80
6.1865072e-80
6.1865071e-80
6.1865092e-80
6.1865202e-80
6.1865695e-80
5.2373046e-79
5.2342625e-79
5.2334662e-79
5.2333068e-79
5.2332814e-79
5.2332781e-79
5.2332778e-79
5.2332784e-79
5.2332816e-79
5.2332986e-79
5.2342625e-79
5.2312235e-79
5.2304278e-79
5.2302685e-79
5.2302432e-79
5.2302399e-79
5.2302397e-79
5.230241e-79
5.2302483e-79
5.230284e-79
5.2334662e-79
5.2304278e-79
5.2296324e-79
5.2294731e-79
5.2294478e-79
5.2294445e-79
5.2294444e-79
5.229446e-79
5.2294547e-79
5.2294944e-79
5.2333068e-79
5.2302685e-79
5.2294731e-79
5.2293139e-79
5.2292886e-79
5.2292853e-79
5.2292852e-79
5.2292869e-79
5.2292959e-79
5.2293363e-79
5.2332814e-79
5.2302432e-79
5.2294478e-79
5.2292886e-79
5.2292632e-79
5.2292599e-79
5.2292598e-79
5.2292615e-79
5.2292706e-79
5.2293111e-79
5.2332781e-79
5.2302399e-79
5.2294445e-79
5.2292853e-79
5.2292599e-79
5.2292566e-79
5.2292565e-79
5.2292582e-79
5.2292673e-79
5.2293078e-79
5.2332778e-79
5.2302397e-79
5.2294444e-79
5.2292852e-79
5.2292598e-79
5.2292565e-79
5.2292564e-79
5.2292581e-79
5.2292672e-79
5.2293077e-79
5.2332784e-79
5.230241e-79
5.229446e-79
5.2292869e-79
5.2292615e-79
5.2292582e-79
5.2292581e-79
5.2292598e-79
5.229269e-79
5.2293094e-79
5.2332816e-79
5.2302483e-79
5.2294547e-79
5.2292959e-79
5.2292706e-79
5.2292673e-79
5.2292672e-79
5.229269e-79
5.2292781e-79
5.2293186e-79
5.2332986e-79
5.230284e-79
5.2294944e-79
5.2293363e-79
5.2293111e-79
5.2293078e-79
5.2293077e-79
5.2293094e-79
5.2293186e-79
5.2293591e-79
4.5443287e-78
4.5417634e-78
4.5410911e-78
4.5409564e-78
4.540935e-78
4.5409322e-78
4.5409319e-78
4.5409324e-78
4.5409352e-78
4.5409492e-78
4.5417634e-78
4.5392006e-78
4.5385288e-78
4.5383943e-78
4.5383729e-78
4.5383701e-78
4.5383699e-78
4.538371e-78
4.5383773e-78
4.5384073e-78
4.5410911e-78
4.5385288e-78
4.5378572e-78
4.5377227e-78
4.5377013e-78
4.5376985e-78
4.5376984e-78
4.5376998e-78
4.5377073e-78
4.5377407e-78
4.5409564e-78
4.5383943e-78
4.5377227e-78
4.5375882e-78
4.5375668e-78
4.537564e-78
4.5375639e-78
4.5375654e-78
4.5375731e-78
4.5376072e-78
4.540935e-78
4.5383729e-78
4.5377013e-78
4.5375668e-78
4.5375454e-78
4.5375426e-78
4.5375425e-78
4.537544e-78
4.5375518e-78
4.5375859e-78
4.5409322e-78
4.5383701e-78
4.5376985e-78
4.537564e-78
4.5375426e-78
4.5375398e-78
4.5375397e-78
4.5375412e-78
4.537549e-78
4.5375831e-78
4.5409319e-78
4.5383699e-78
4.5376984e-78
4.5375639e-78
4.5375425e-78
4.5375397e-78
4.5375397e-78
4.5375411e-78
4.5375489e-78
4.537583e-78
4.5409324e-78
4.538371e-78
4.5376998e-78
4.5375654e-78
4.537544e-78
4.5375412e-78
4.5375411e-78
4.5375426e-78
4.5375504e-78
4.5375845e-78
4.5409352e-78
4.5383773e-78
4.5377073e-78
4.5375731e-78
4.5375518e-78
4.537549e-78
4.5375489e-78
4.5375504e-78
4.5375581e-78
4.5375923e-78
4.5409492e-78
4.5384073e-78
4.5377407e-78
4.5376072e-78
4.5375859e-78
4.5375831e-78
4.537583e-78
4.5375845e-78
4.5375923e-78
4.5376264e-78
4.0476919e-77
4.0454722e-77
4.0448898e-77
4.0447731e-77
4.0447545e-77
4.044752e-77
4.0447519e-77
4.0447523e-77
4.0447547e-77
4.0447665e-77
4.0454722e-77
4.0432547e-77
4.0426727e-77
4.0425562e-77
4.0425376e-77
4.0425351e-77
4.042535e-77
4.042536e-77
4.0425415e-77
4.0425674e-77
4.0448898e-77
4.0426727e-77
4.0420909e-77
4.0419744e-77
4.0419558e-77
4.0419534e-77
4.0419533e-77
4.0419545e-77
4.041961e-77
4.04199e-77
4.0447731e-77
4.0425562e-77
4.0419744e-77
4.0418578e-77
4.0418392e-77
4.0418368e-77
4.0418368e-77
4.041838e-77
4.0418448e-77
4.0418743e-77
4.0447545e-77
4.0425376e-77
4.0419558e-77
4.0418392e-77
4.0418207e-77
4.0418183e-77
4.0418182e-77
4.0418195e-77
4.0418263e-77
4.0418558e-77
4.044752e-77
4.0425351e-77
4.0419534e-77
4.0418368e-77
4.0418183e-77
4.0418158e-77
4.0418158e-77
4.0418171e-77
4.0418239e-77
4.0418534e-77
4.0447519e-77
4.042535e-77
4.0419533e-77
4.0418368e-77
4.0418182e-77
4.0418158e-77
4.0418157e-77
4.041817e-77
4.0418238e-77
4.0418534e-77
4.0447523e-77
4.042536e-77
4.0419545e-77
4.041838e-77
4.0418195e-77
4.0418171e-77
4.041817e-77
4.0418183e-77
4.0418251e-77
4.0418547e-77
4.0447547e-77
4.0425415e-77
4.041961e-77
4.0418448e-77
4.0418263e-77
4.0418239e-77
4.0418238e-77
4.0418251e-77
4.0418319e-77
4.0418615e-77
4.0447665e-77
4.0425674e-77
4.04199e-77
4.0418743e-77
4.0418558e-77
4.0418534e-77
4.0418534e-77
4.0418547e-77
4.0418615e-77
4.041891e-77
3.7008315e-76
3.698861e-76
3.6983433e-76
3.6982396e-76
3.6982231e-76
3.6982209e-76
3.6982207e-76
3.6982211e-76
3.6982232e-76
3.6982336e-76
3.698861e-76
3.6968924e-76
3.6963751e-76
3.6962715e-76
3.6962549e-76
3.6962528e-76
3.6962527e-76
3.6962536e-76
3.6962585e-76
3.6962815e-76
3.6983433e-76
3.6963751e-76
3.695858e-76
3.6957544e-76
3.6957379e-76
3.6957357e-76
3.6957356e-76
3.6957367e-76
3.6957426e-76
3.6957683e-76
3.6982396e-76
3.6962715e-76
3.6957544e-76
3.6956507e-76
3.6956342e-76
3.6956321e-76
3.695632e-76
3.6956332e-76
3.6956392e-76
3.6956655e-76
3.6982231e-76
3.6962549e-76
3.6957379e-76
3.6956342e-76
3.6956177e-76
3.6956156e-76
3.6956155e-76
3.6956167e-76
3.6956228e-76
3.6956491e-76
3.6982209e-76
3.6962528e-76
3.6957357e-76
3.6956321e-76
3.6956156e-76
3.6956134e-76
3.6956134e-76
3.6956145e-76
3.6956206e-76
3.6956469e-76
3.6982207e-76
3.6962527e-76
3.6957356e-76
3.695632e-76
3.6956155e-76
3.6956134e-76
3.6956133e-76
3.6956145e-76
3.6956206e-76
3.6956469e-76
3.6982211e-76
3.6962536e-76
3.6957367e-76
3.6956332e-76
3.6956167e-76
3.6956145e-76
3.6956145e-76
3.6956156e-76
3.6956217e-76
3.695648e-76
3.6982232e-76
3.6962585e-76
3.6957426e-76
3.6956392e-76
3.6956228e-76
3.6956206e-76
3.6956206e-76
3.6956217e-76
3.6956278e-76
3.6956541e-76
3.6982336e-76
3.6962815e-76
3.6957683e-76
3.6956655e-76
3.6956491e-76
3.6956469e-76
3.6956469e-76
3.695648e-76
3.6956541e-76
3.6956804e-76
3.4731112e-75
3.4713166e-75
3.4708446e-75
3.4707499e-75
3.4707348e-75
3.4707329e-75
3.4707327e-75
3.4707331e-75
3.470735e-75
3.4707442e-75
3.4713166e-75
3.4695236e-75
3.4690519e-75
3.4689574e-75
3.4689423e-75
3.4689404e-75
3.4689403e-75
3.4689411e-75
3.4689456e-75
3.4689665e-75
3.4708446e-75
3.4690519e-75
3.4685804e-75
3.4684859e-75
3.4684708e-75
3.4684689e-75
3.4684688e-75
3.4684698e-75
3.4684752e-75
3.4684987e-75
3.4707499e-75
3.4689574e-75
3.4684859e-75
3.4683914e-75
3.4683763e-75
3.4683743e-75
3.4683743e-75
3.4683754e-75
3.4683809e-75
3.4684049e-75
3.4707348e-75
3.4689423e-75
3.4684708e-75
3.4683763e-75
3.4683612e-75
3.4683593e-75
3.4683592e-75
3.4683603e-75
3.4683659e-75
3.4683899e-75
3.4707329e-75
3.4689404e-75
3.4684689e-75
3.4683743e-75
3.4683593e-75
3.4683573e-75
3.4683573e-75
3.4683583e-75
3.468364e-75
3.468388e-75
3.4707327e-75
3.4689403e-75
3.4684688e-75
3.4683743e-75
3.4683592e-75
3.4683573e-75
3.4683572e-75
3.4683583e-75
3.4683639e-75
3.4683879e-75
3.4707331e-75
3.4689411e-75
3.4684698e-75
3.4683754e-75
3.4683603e-75
3.4683583e-75
3.4683583e-75
3.4683594e-75
3.468365e-75
3.468389e-75
3.470735e-75
3.4689456e-75
3.4684752e-75
3.4683809e-75
3.4683659e-75
3.468364e-75
3.4683639e-75
3.468365e-75
3.4683706e-75
3.4683946e-75
3.4707442e-75
3.4689665e-75
3.4684987e-75
3.4684049e-75
3.4683899e-75
3.468388e-75
3.4683879e-75
3.468389e-75
3.4683946e-75
3.4684187e-75
3.3452912e-74
3.3436144e-74
3.3431729e-74
3.3430844e-74
3.3430703e-74
3.3430684e-74
3.3430683e-74
3.3430686e-74
3.3430705e-74
3.3430789e-74
3.3436144e-74
3.3419392e-74
3.3414981e-74
3.3414096e-74
3.3413955e-74
3.3413937e-74
3.3413936e-74
3.3413944e-74
3.3413986e-74
3.3414182e-74
3.3431729e-74
3.3414981e-74
3.3410571e-74
3.3409686e-74
3.3409545e-74
3.3409527e-74
3.3409526e-74
3.3409536e-74
3.3409587e-74
3.3409807e-74
3.3430844e-74
3.3414096e-74
3.3409686e-74
3.3408802e-74
3.3408661e-74
3.3408642e-74
3.3408642e-74
3.3408652e-74
3.3408705e-74
3.3408929e-74
3.3430703e-74
3.3413955e-74
3.3409545e-74
3.3408661e-74
3.340852e-74
3.3408501e-74
3.3408501e-74
3.3408511e-74
3.3408564e-74
3.3408789e-74
3.3430684e-74
3.3413937e-74
3.3409527e-74
3.3408642e-74
3.3408501e-74
3.3408483e-74
3.3408483e-74
3.3408493e-74
3.3408546e-74
3.3408771e-74
3.3430683e-74
3.3413936e-74
3.3409526e-74
3.3408642e-74
3.3408501e-74
3.3408483e-74
3.3408482e-74
3.3408492e-74
3.3408546e-74
3.3408771e-74
3.3430686e-74
3.3413944e-74
3.3409536e-74
3.3408652e-74
3.3408511e-74
3.3408493e-74
3.3408492e-74
3.3408502e-74
3.3408556e-74
3.3408781e-74
3.3430705e-74
3.3413986e-74
3.3409587e-74
3.3408705e-74
3.3408564e-74
3.3408546e-74
3.3408546e-74
3.3408556e-74
3.3408609e-74
3.3408834e-74
3.3430789e-74
3.3414182e-74
3.3409807e-74
3.3408929e-74
3.3408789e-74
3.3408771e-74
3.3408771e-74
3.3408781e-74
3.3408834e-74
3.3409059e-74
3.3068023e-73
3.3051954e-73
3.3047719e-73
3.3046869e-73
3.3046734e-73
3.3046716e-73
3.3046714e-73
3.3046718e-73
3.3046735e-73
3.3046815e-73
3.3051954e-73
3.30359e-73
3.3031668e-73
3.3030819e-73
3.3030683e-73
3.3030666e-73
3.3030665e-73
3.3030672e-73
3.3030714e-73
3.3030902e-73
3.3047719e-73
3.3031668e-73
3.3027437e-73
3.3026588e-73
3.3026453e-73
3.3026435e-73
3.3026434e-73
3.3026444e-73
3.3026493e-73
3.3026705e-73
3.3046869e-73
3.3030819e-73
3.3026588e-73
3.3025739e-73
3.3025604e-73
3.3025586e-73
3.3025586e-73
3.3025596e-73
3.3025647e-73
3.3025863e-73
3.3046734e-73
3.3030683e-73
3.3026453e-73
3.3025604e-73
3.3025468e-73
3.3025451e-73
3.302545e-73
3.302546e-73
3.3025512e-73
3.3025729e-73
3.3046716e-73
3.3030666e-73
3.3026435e-73
3.3025586e-73
3.3025451e-73
3.3025433e-73
3.3025433e-73
3.3025443e-73
3.3025494e-73
3.3025711e-73
3.3046714e-73
3.3030665e-73
3.3026434e-73
3.3025586e-73
3.302545e-73
3.3025433e-73
3.3025432e-73
3.3025442e-73
3.3025494e-73
3.3025711e-73
3.3046718e-73
3.3030672e-73
3.3026444e-73
3.3025596e-73
3.302546e-73
3.3025443e-73
3.3025442e-73
3.3025452e-73
3.3025504e-73
3.3025721e-73
3.3046735e-73
3.3030714e-73
3.3026493e-73
3.3025647e-73
3.3025512e-73
3.3025494e-73
3.3025494e-73
3.3025504e-73
3.3025556e-73
3.3025772e-73
3.3046815e-73
3.3030902e-73
3.3026705e-73
3.3025863e-73
3.3025729e-73
3.3025711e-73
3.3025711e-73
3.3025721e-73
3.3025772e-73
3.3025989e-73
3.3542821e-72
3.3527028e-72
3.3522861e-72
3.3522024e-72
3.3521891e-72
3.3521874e-72
3.3521872e-72
3.3521875e-72
3.3521893e-72
3.352197e-72
3.3527028e-72
3.3511248e-72
3.3507084e-72
3.3506249e-72
3.3506115e-72
3.3506098e-72
3.3506097e-72
3.3506105e-72
3.3506146e-72
3.3506332e-72
3.3522861e-72
3.3507084e-72
3.3502921e-72
3.3502086e-72
3.3501952e-72
3.3501935e-72
3.3501935e-72
3.3501944e-72
3.3501993e-72
3.3502203e-72
3.3522024e-72
3.3506249e-72
3.3502086e-72
3.350125e-72
3.3501117e-72
3.35011e-72
3.3501099e-72
3.3501109e-72
3.350116e-72
3.3501374e-72
3.3521891e-72
3.3506115e-72
3.3501952e-72
3.3501117e-72
3.3500984e-72
3.3500966e-72
3.3500966e-72
3.3500976e-72
3.3501027e-72
3.3501242e-72
3.3521874e-72
3.3506098e-72
3.3501935e-72
3.35011e-72
3.3500966e-72
3.3500949e-72
3.3500949e-72
3.3500959e-72
3.350101e-72
3.3501224e-72
3.3521872e-72
3.3506097e-72
3.3501935e-72
3.3501099e-72
3.3500966e-72
3.3500949e-72
3.3500948e-72
3.3500958e-72
3.350101e-72
3.3501224e-72
3.3521875e-72
3.3506105e-72
3.3501944e-72
3.3501109e-72
3.3500976e-72
3.3500959e-72
3.3500958e-72
3.3500968e-72
3.350102e-72
3.3501234e-72
3.3521893e-72
3.3506146e-72
3.3501993e-72
3.350116e-72
3.3501027e-72
3.350101e-72
3.350101e-72
3.350102e-72
3.3501071e-72
3.3501285e-72
3.352197e-72
3.3506332e-72
3.3502203e-72
3.3501374e-72
3.3501242e-72
3.3501224e-72
3.3501224e-72
3.3501234e-72
3.3501285e-72
3.35015e-72
3.4910863e-71
3.4894944e-71
3.489074e-71
3.4889896e-71
3.4889761e-71
3.4889744e-71
3.4889742e-71
3.4889745e-71
3.4889763e-71
3.488984e-71
3.4894944e-71
3.4879039e-71
3.4874838e-71
3.4873995e-71
3.487386e-71
3.4873843e-71
3.4873842e-71
3.487385e-71
3.4873891e-71
3.487408e-71
3.489074e-71
3.4874838e-71
3.4870638e-71
3.4869795e-71
3.486966e-71
3.4869643e-71
3.4869642e-71
3.4869652e-71
3.4869702e-71
3.4869914e-71
3.4889896e-71
3.4873995e-71
3.4869795e-71
3.4868951e-71
3.4868817e-71
3.4868799e-71
3.4868799e-71
3.4868809e-71
3.4868861e-71
3.4869078e-71
3.4889761e-71
3.487386e-71
3.486966e-71
3.4868817e-71
3.4868682e-71
3.4868665e-71
3.4868665e-71
3.4868675e-71
3.4868727e-71
3.4868944e-71
3.4889744e-71
3.4873843e-71
3.4869643e-71
3.4868799e-71
3.4868665e-71
3.4868647e-71
3.4868647e-71
3.4868657e-71
3.486871e-71
3.4868927e-71
3.4889742e-71
3.4873842e-71
3.4869642e-71
3.4868799e-71
3.4868665e-71
3.4868647e-71
3.4868647e-71
3.4868657e-71
3.4868709e-71
3.4868927e-71
3.4889745e-71
3.487385e-71
3.4869652e-71
3.4868809e-71
3.4868675e-71
3.4868657e-71
3.4868657e-71
3.4868667e-71
3.4868719e-71
3.4868937e-71
3.4889763e-71
3.4873891e-71
3.4869702e-71
3.4868861e-71
3.4868727e-71
3.486871e-71
3.4868709e-71
3.4868719e-71
3.4868772e-71
3.4868989e-71
3.488984e-71
3.487408e-71
3.4869914e-71
3.4869078e-71
3.4868944e-71
3.4868927e-71
3.4868927e-71
3.4868937e-71
3.4868989e-71
3.4869207e-71
3.7276769e-70
3.7260318e-70
3.7255968e-70
3.7255095e-70
3.7254955e-70
3.7254937e-70
3.7254936e-70
3.7254939e-70
3.7254958e-70
3.7255036e-70
3.7260318e-70
3.724388e-70
3.7239534e-70
3.7238661e-70
3.7238522e-70
3.7238504e-70
3.7238503e-70
3.7238511e-70
3.7238555e-70
3.723875e-70
3.7255968e-70
3.7239534e-70
3.7235189e-70
3.7234316e-70
3.7234177e-70
3.7234159e-70
3.7234158e-70
3.7234168e-70
3.7234221e-70
3.7234442e-70
3.7255095e-70
3.7238661e-70
3.7234316e-70
3.7233443e-70
3.7233304e-70
3.7233286e-70
3.7233286e-70
3.7233296e-70
3.7233351e-70
3.7233576e-70
3.7254955e-70
3.7238522e-70
3.7234177e-70
3.7233304e-70
3.7233165e-70
3.7233147e-70
3.7233147e-70
3.7233157e-70
3.7233212e-70
3.7233438e-70
3.7254937e-70
3.7238504e-70
3.7234159e-70
3.7233286e-70
3.7233147e-70
3.7233129e-70
3.7233129e-70
3.7233139e-70
3.7233194e-70
3.723342e-70
3.7254936e-70
3.7238503e-70
3.7234158e-70
3.7233286e-70
3.7233147e-70
3.7233129e-70
3.7233128e-70
3.7233139e-70
3.7233194e-70
3.723342e-70
3.7254939e-70
3.7238511e-70
3.7234168e-70
3.7233296e-70
3.7233157e-70
3.7233139e-70
3.7233139e-70
3.723315e-70
3.7233205e-70
3.7233431e-70
3.7254958e-70
3.7238555e-70
3.7234221e-70
3.7233351e-70
3.7233212e-70
3.7233194e-70
3.7233194e-70
3.7233205e-70
3.723326e-70
3.7233486e-70
3.7255036e-70
3.723875e-70
3.7234442e-70
3.7233576e-70
3.7233438e-70
3.723342e-70
3.723342e-70
3.7233431e-70
3.7233486e-70
3.7233712e-70
4.0829492e-69
4.0812062e-69
4.0807449e-69
4.0806523e-69
4.0806375e-69
4.0806355e-69
4.0806354e-69
4.0806358e-69
4.0806377e-69
4.0806459e-69
4.0812062e-69
4.0794646e-69
4.0790037e-69
4.0789111e-69
4.0788963e-69
4.0788944e-69
4.0788943e-69
4.0788952e-69
4.0788999e-69
4.0789207e-69
4.0807449e-69
4.0790037e-69
4.0785429e-69
4.0784503e-69
4.0784355e-69
4.0784336e-69
4.0784336e-69
4.0784346e-69
4.0784403e-69
4.0784639e-69
4.0806523e-69
4.0789111e-69
4.0784503e-69
4.0783577e-69
4.078343e-69
4.078341e-69
4.078341e-69
4.0783421e-69
4.078348e-69
4.0783721e-69
4.0806375e-69
4.0788963e-69
4.0784355e-69
4.078343e-69
4.0783282e-69
4.0783263e-69
4.0783262e-69
4.0783274e-69
4.0783333e-69
4.0783574e-69
4.0806355e-69
4.0788944e-69
4.0784336e-69
4.078341e-69
4.0783263e-69
4.0783244e-69
4.0783243e-69
4.0783255e-69
4.0783314e-69
4.0783555e-69
4.0806354e-69
4.0788943e-69
4.0784336e-69
4.078341e-69
4.0783262e-69
4.0783243e-69
4.0783243e-69
4.0783254e-69
4.0783314e-69
4.0783555e-69
4.0806358e-69
4.0788952e-69
4.0784346e-69
4.0783421e-69
4.0783274e-69
4.0783255e-69
4.0783254e-69
4.0783266e-69
4.0783325e-69
4.0783566e-69
4.0806377e-69
4.0788999e-69
4.0784403e-69
4.078348e-69
4.0783333e-69
4.0783314e-69
4.0783314e-69
4.0783325e-69
4.0783384e-69
4.0783626e-69
4.0806459e-69
4.0789207e-69
4.0784639e-69
4.0783721e-69
4.0783574e-69
4.0783555e-69
4.0783555e-69
4.0783566e-69
4.0783626e-69
4.0783867e-69
4.5867303e-68
4.5848374e-68
4.584336e-68
4.5842352e-68
4.5842192e-68
4.5842171e-68
4.5842169e-68
4.5842173e-68
4.5842195e-68
4.5842283e-68
4.5848374e-68
4.582946e-68
4.582445e-68
4.5823443e-68
4.5823283e-68
4.5823262e-68
4.5823261e-68
4.582327e-68
4.5823322e-68
4.582355e-68
4.584336e-68
4.582445e-68
4.5819441e-68
4.5818434e-68
4.5818274e-68
4.5818253e-68
4.5818252e-68
4.5818264e-68
4.5818327e-68
4.5818585e-68
4.5842352e-68
4.5823443e-68
4.5818434e-68
4.5817428e-68
4.5817267e-68
4.5817246e-68
4.5817246e-68
4.5817258e-68
4.5817323e-68
4.5817587e-68
4.5842192e-68
4.5823283e-68
4.5818274e-68
4.5817267e-68
4.5817107e-68
4.5817086e-68
4.5817085e-68
4.5817098e-68
4.5817163e-68
4.5817428e-68
4.5842171e-68
4.5823262e-68
4.5818253e-68
4.5817246e-68
4.5817086e-68
4.5817065e-68
4.5817065e-68
4.5817077e-68
4.5817142e-68
4.5817407e-68
4.5842169e-68
4.5823261e-68
4.5818252e-68
4.5817246e-68
4.5817085e-68
4.5817065e-68
4.5817064e-68
4.5817077e-68
4.5817142e-68
4.5817407e-68
4.5842173e-68
4.582327e-68
4.5818264e-68
4.5817258e-68
4.5817098e-68
4.5817077e-68
4.5817077e-68
4.5817089e-68
4.5817155e-68
4.5817419e-68
4.5842195e-68
4.5823322e-68
4.5818327e-68
4.5817323e-68
4.5817163e-68
4.5817142e-68
4.5817142e-68
4.5817155e-68
4.581722e-68
4.5817485e-68
4.5842283e-68
4.582355e-68
4.5818585e-68
4.5817587e-68
4.5817428e-68
4.5817407e-68
4.5817407e-68
4.5817419e-68
4.5817485e-68
4.5817749e-68
5.2839095e-67
5.2818028e-67
5.2812443e-67
5.281132e-67
5.2811141e-67
5.2811118e-67
5.2811116e-67
5.2811121e-67
5.2811145e-67
5.2811242e-67
5.2818028e-67
5.2796978e-67
5.2791397e-67
5.2790275e-67
5.2790096e-67
5.2790073e-67
5.2790072e-67
5.2790083e-67
5.2790141e-67
5.2790397e-67
5.2812443e-67
5.2791397e-67
5.2785817e-67
5.2784695e-67
5.2784516e-67
5.2784493e-67
5.2784493e-67
5.2784506e-67
5.2784577e-67
5.2784867e-67
5.281132e-67
5.2790275e-67
5.2784695e-67
5.2783574e-67
5.2783395e-67
5.2783371e-67
5.2783371e-67
5.2783385e-67
5.2783458e-67
5.2783755e-67
5.2811141e-67
5.2790096e-67
5.2784516e-67
5.2783395e-67
5.2783216e-67
5.2783192e-67
5.2783192e-67
5.2783206e-67
5.278328e-67
5.2783577e-67
5.2811118e-67
5.2790073e-67
5.2784493e-67
5.2783371e-67
5.2783192e-67
5.2783169e-67
5.2783169e-67
5.2783183e-67
5.2783257e-67
5.2783554e-67
5.2811116e-67
5.2790072e-67
5.2784493e-67
5.2783371e-67
5.2783192e-67
5.2783169e-67
5.2783169e-67
5.2783183e-67
5.2783257e-67
5.2783554e-67
5.2811121e-67
5.2790083e-67
5.2784506e-67
5.2783385e-67
5.2783206e-67
5.2783183e-67
5.2783183e-67
5.2783197e-67
5.2783271e-67
5.2783568e-67
5.2811145e-67
5.2790141e-67
5.2784577e-67
5.2783458e-67
5.278328e-67
5.2783257e-67
5.2783257e-67
5.2783271e-67
5.2783345e-67
5.2783642e-67
5.2811242e-67
5.2790397e-67
5.2784867e-67
5.2783755e-67
5.2783577e-67
5.2783554e-67
5.2783554e-67
5.2783568e-67
5.2783642e-67
5.2783939e-67
6.2409926e-66
6.2385902e-66
6.2379527e-66
6.2378245e-66
6.2378041e-66
6.2378014e-66
6.2378012e-66
6.2378017e-66
6.2378045e-66
6.2378155e-66
6.2385902e-66
6.2361897e-66
6.2355527e-66
6.2354246e-66
6.2354042e-66
6.2354015e-66
6.2354014e-66
6.2354027e-66
6.2354094e-66
6.2354389e-66
6.2379527e-66
6.2355527e-66
6.2349158e-66
6.2347878e-66
6.2347673e-66
6.2347647e-66
6.2347646e-66
6.2347662e-66
6.2347744e-66
6.2348078e-66
6.2378245e-66
6.2354246e-66
6.2347878e-66
6.2346597e-66
6.2346393e-66
6.2346366e-66
6.2346366e-66
6.2346382e-66
6.2346467e-66
6.2346808e-66
6.2378041e-66
6.2354042e-66
6.2347673e-66
6.2346393e-66
6.2346188e-66
6.2346162e-66
6.2346161e-66
6.2346178e-66
6.2346263e-66
6.2346606e-66
6.2378014e-66
6.2354015e-66
6.2347647e-66
6.2346366e-66
6.2346162e-66
6.2346135e-66
6.2346135e-66
6.2346151e-66
6.2346237e-66
6.2346579e-66
6.2378012e-66
6.2354014e-66
6.2347646e-66
6.2346366e-66
6.2346161e-66
6.2346135e-66
6.2346135e-66
6.2346151e-66
6.2346237e-66
6.2346579e-66
6.2378017e-66
6.2354027e-66
6.2347662e-66
6.2346382e-66
6.2346178e-66
6.2346151e-66
6.2346151e-66
6.2346168e-66
6.2346253e-66
6.2346596e-66
6.2378045e-66
6.2354094e-66
6.2347744e-66
6.2346467e-66
6.2346263e-66
6.2346237e-66
6.2346237e-66
6.2346253e-66
6.2346339e-66
6.2346681e-66
6.2378155e-66
6.2354389e-66
6.2348078e-66
6.2346808e-66
6.2346606e-66
6.2346579e-66
6.2346579e-66
6.2346596e-66
6.2346681e-66
6.2347023e-66
7.5563973e-65
7.553591e-65
7.5528457e-65
7.5526958e-65
7.5526718e-65
7.5526687e-65
7.5526685e-65
7.5526691e-65
7.5526724e-65
7.5526851e-65
7.553591e-65
7.5507868e-65
7.550042e-65
7.5498922e-65
7.5498683e-65
7.5498652e-65
7.5498651e-65
7.5498666e-65
7.5498746e-65
7.5499093e-65
7.5528457e-65
7.550042e-65
7.5492974e-65
7.5491476e-65
7.5491237e-65
7.5491206e-65
7.5491205e-65
7.5491224e-65
7.5491321e-65
7.5491716e-65
7.5526958e-65
7.5498922e-65
7.5491476e-65
7.5489978e-65
7.5489739e-65
7.5489708e-65
7.5489708e-65
7.5489727e-65
7.5489828e-65
7.5490231e-65
7.5526718e-65
7.5498683e-65
7.5491237e-65
7.5489739e-65
7.54895e-65
7.5489469e-65
7.5489469e-65
7.5489489e-65
7.548959e-65
7.5489994e-65
7.5526687e-65
7.5498652e-65
7.5491206e-65
7.5489708e-65
7.5489469e-65
7.5489438e-65
7.5489438e-65
7.5489458e-65
7.5489559e-65
7.5489963e-65
7.5526685e-65
7.5498651e-65
7.5491205e-65
7.5489708e-65
7.5489469e-65
7.5489438e-65
7.5489438e-65
7.5489457e-65
7.5489559e-65
7.5489963e-65
7.5526691e-65
7.5498666e-65
7.5491224e-65
7.5489727e-65
7.5489489e-65
7.5489458e-65
7.5489457e-65
7.5489477e-65
7.5489579e-65
7.5489983e-65
7.5526724e-65
7.5498746e-65
7.5491321e-65
7.5489828e-65
7.548959e-65
7.5489559e-65
7.5489559e-65
7.5489579e-65
7.548968e-65
7.5490084e-65
7.5526851e-65
7.5499093e-65
7.5491716e-65
7.5490231e-65
7.5489994e-65
7.5489963e-65
7.5489963e-65
7.5489983e-65
7.5490084e-65
7.5490489e-65
9.3766726e-64
9.3733151e-64
9.3724227e-64
9.3722432e-64
9.3722145e-64
9.3722107e-64
9.3722105e-64
9.3722112e-64
9.3722152e-64
9.3722304e-64
9.3733151e-64
9.3699602e-64
9.3690684e-64
9.368889e-64
9.3688603e-64
9.3688566e-64
9.3688565e-64
9.3688583e-64
9.3688681e-64
9.36891e-64
9.3724227e-64
9.3690684e-64
9.3681768e-64
9.3679974e-64
9.3679687e-64
9.367965e-64
9.367965e-64
9.3679672e-64
9.3679791e-64
9.3680268e-64
9.3722432e-64
9.368889e-64
9.3679974e-64
9.367818e-64
9.3677894e-64
9.3677856e-64
9.3677856e-64
9.367788e-64
9.3678003e-64
9.367849e-64
9.3722145e-64
9.3688603e-64
9.3679687e-64
9.3677894e-64
9.3677607e-64
9.367757e-64
9.367757e-64
9.3677594e-64
9.3677717e-64
9.3678206e-64
9.3722107e-64
9.3688566e-64
9.367965e-64
9.3677856e-64
9.367757e-64
9.3677533e-64
9.3677533e-64
9.3677557e-64
9.367768e-64
9.367817e-64
9.3722105e-64
9.3688565e-64
9.367965e-64
9.3677856e-64
9.367757e-64
9.3677533e-64
9.3677532e-64
9.3677556e-64
9.367768e-64
9.3678169e-64
9.3722112e-64
9.3688583e-64
9.3679672e-64
9.367788e-64
9.3677594e-64
9.3677557e-64
9.3677556e-64
9.3677581e-64
9.3677704e-64
9.3678193e-64
9.3722152e-64
9.3688681e-64
9.3679791e-64
9.3678003e-64
9.3677717e-64
9.367768e-64
9.367768e-64
9.3677704e-64
9.3677827e-64
9.3678317e-64
9.3722304e-64
9.36891e-64
9.3680268e-64
9.367849e-64
9.3678206e-64
9.367817e-64
9.3678169e-64
9.3678193e-64
9.3678317e-64
9.3678806e-64
1.1922261e-62
1.1918148e-62
1.1917054e-62
1.1916834e-62
1.1916799e-62
1.1916794e-62
1.1916794e-62
1.1916795e-62
1.19168e-62
1.1916818e-62
1.1918148e-62
1.1914038e-62
1.1912945e-62
1.1912725e-62
1.191269e-62
1.1912685e-62
1.1912685e-62
1.1912687e-62
1.19127e-62
1.1912752e-62
1.1917054e-62
1.1912945e-62
1.1911852e-62
1.1911632e-62
1.1911597e-62
1.1911592e-62
1.1911592e-62
1.1911595e-62
1.191161e-62
1.1911669e-62
1.1916834e-62
1.1912725e-62
1.1911632e-62
1.1911412e-62
1.1911377e-62
1.1911372e-62
1.1911372e-62
1.1911375e-62
1.1911391e-62
1.1911451e-62
1.1916799e-62
1.191269e-62
1.1911597e-62
1.1911377e-62
1.1911342e-62
1.1911337e-62
1.1911337e-62
1.191134e-62
1.1911356e-62
1.1911416e-62
1.1916794e-62
1.1912685e-62
1.1911592e-62
1.1911372e-62
1.1911337e-62
1.1911333e-62
1.1911333e-62
1.1911336e-62
1.1911351e-62
1.1911412e-62
1.1916794e-62
1.1912685e-62
1.1911592e-62
1.1911372e-62
1.1911337e-62
1.1911333e-62
1.1911333e-62
1.1911336e-62
1.1911351e-62
1.1911412e-62
1.1916795e-62
1.1912687e-62
1.1911595e-62
1.1911375e-62
1.191134e-62
1.1911336e-62
1.1911336e-62
1.1911339e-62
1.1911354e-62
1.1911415e-62
1.19168e-62
1.19127e-62
1.191161e-62
1.1911391e-62
1.1911356e-62
1.1911351e-62
1.1911351e-62
1.1911354e-62
1.1911369e-62
1.191143e-62
1.1916818e-62
1.1912752e-62
1.1911669e-62
1.1911451e-62
1.1911416e-62
1.1911412e-62
1.1911412e-62
1.1911415e-62
1.191143e-62
1.1911491e-62
1.5528884e-61
1.5523727e-61
1.5522354e-61
1.5522078e-61
1.5522033e-61
1.5522028e-61
1.5522027e-61
1.5522028e-61
1.5522035e-61
1.5522058e-61
1.5523727e-61
1.5518573e-61
1.5517201e-61
1.5516925e-61
1.5516881e-61
1.5516875e-61
1.5516875e-61
1.5516878e-61
1.5516894e-61
1.551696e-61
1.5522354e-61
1.5517201e-61
1.551583e-61
1.5515553e-61
1.5515509e-61
1.5515504e-61
1.5515504e-61
1.5515507e-61
1.5515526e-61
1.5515601e-61
1.5522078e-61
1.5516925e-61
1.5515553e-61
1.5515277e-61
1.5515233e-61
1.5515227e-61
1.5515227e-61
1.5515231e-61
1.5515251e-61
1.5515328e-61
1.5522033e-61
1.5516881e-61
1.5515509e-61
1.5515233e-61
1.5515189e-61
1.5515183e-61
1.5515183e-61
1.5515187e-61
1.5515207e-61
1.5515284e-61
1.5522028e-61
1.5516875e-61
1.5515504e-61
1.5515227e-61
1.5515183e-61
1.5515178e-61
1.5515178e-61
1.5515181e-61
1.5515201e-61
1.5515278e-61
1.5522027e-61
1.5516875e-61
1.5515504e-61
1.5515227e-61
1.5515183e-61
1.5515178e-61
1.5515178e-61
1.5515181e-61
1.5515201e-61
1.5515278e-61
1.5522028e-61
1.5516878e-61
1.5515507e-61
1.5515231e-61
1.5515187e-61
1.5515181e-61
1.5515181e-61
1.5515185e-61
1.5515205e-61
1.5515282e-61
1.5522035e-61
1.5516894e-61
1.5515526e-61
1.5515251e-61
1.5515207e-61
1.5515201e-61
1.5515201e-61
1.5515205e-61
1.5515225e-61
1.5515302e-61
1.5522058e-61
1.551696e-61
1.5515601e-61
1.5515328e-61
1.5515284e-61
1.5515278e-61