/*--------------------------------*- C++ -*----------------------------------*\
| =========                 |                                                 |
| \\      /  F ield         | OpenFOAM: The Open Source CFD Toolbox           |
|  \\    /   O peration     | Version:  dev                                   |
|   \\  /    A nd           | Web:      www.OpenFOAM.org                      |
|    \\/     M anipulation  |                                                 |
\*---------------------------------------------------------------------------*/
FoamFile
{
    version     2.0;
    format      ascii;
    class       volScalarField;
    location    "7";
    object      A_0;
}
// * * * * * * * * * * * * * * * * * * * * * * * * * * * * * * * * * * * * * //

dimensions      [0 0 0 0 1 0 0];

internalField   nonuniform List<scalar> 
10000
(
7.8454167e-82
7.8404653e-82
7.8391782e-82
7.838921e-82
7.8388801e-82
7.8388747e-82
7.8388743e-82
7.8388752e-82
7.8388805e-82
7.8389082e-82
7.8404653e-82
7.835519e-82
7.8342331e-82
7.8339762e-82
7.8339353e-82
7.83393e-82
7.8339297e-82
7.8339317e-82
7.8339433e-82
7.8339999e-82
7.8391782e-82
7.8342331e-82
7.8329476e-82
7.8326907e-82
7.8326498e-82
7.8326445e-82
7.8326443e-82
7.8326469e-82
7.8326607e-82
7.8327235e-82
7.838921e-82
7.8339762e-82
7.8326907e-82
7.8324339e-82
7.832393e-82
7.8323877e-82
7.8323875e-82
7.8323902e-82
7.8324044e-82
7.8324684e-82
7.8388801e-82
7.8339353e-82
7.8326498e-82
7.832393e-82
7.8323521e-82
7.8323468e-82
7.8323467e-82
7.8323493e-82
7.8323637e-82
7.8324278e-82
7.8388747e-82
7.83393e-82
7.8326445e-82
7.8323877e-82
7.8323468e-82
7.8323415e-82
7.8323413e-82
7.832344e-82
7.8323584e-82
7.8324225e-82
7.8388743e-82
7.8339297e-82
7.8326443e-82
7.8323875e-82
7.8323467e-82
7.8323413e-82
7.8323412e-82
7.8323438e-82
7.8323582e-82
7.8324223e-82
7.8388752e-82
7.8339317e-82
7.8326469e-82
7.8323902e-82
7.8323493e-82
7.832344e-82
7.8323438e-82
7.8323465e-82
7.8323609e-82
7.832425e-82
7.8388805e-82
7.8339433e-82
7.8326607e-82
7.8324044e-82
7.8323637e-82
7.8323584e-82
7.8323582e-82
7.8323609e-82
7.8323753e-82
7.8324394e-82
7.8389082e-82
7.8339999e-82
7.8327235e-82
7.8324684e-82
7.8324278e-82
7.8324225e-82
7.8324223e-82
7.832425e-82
7.8324394e-82
7.8325035e-82
7.1737819e-81
7.169372e-81
7.1682212e-81
7.1679911e-81
7.1679545e-81
7.1679497e-81
7.1679493e-81
7.1679502e-81
7.1679549e-81
7.1679805e-81
7.169372e-81
7.1649666e-81
7.1638168e-81
7.163587e-81
7.1635504e-81
7.1635456e-81
7.1635454e-81
7.1635472e-81
7.1635577e-81
7.1636094e-81
7.1682212e-81
7.1638168e-81
7.1626673e-81
7.1624376e-81
7.162401e-81
7.1623963e-81
7.1623961e-81
7.1623984e-81
7.1624108e-81
7.1624682e-81
7.1679911e-81
7.163587e-81
7.1624376e-81
7.1622078e-81
7.1621713e-81
7.1621665e-81
7.1621664e-81
7.1621687e-81
7.1621816e-81
7.16224e-81
7.1679545e-81
7.1635504e-81
7.162401e-81
7.1621713e-81
7.1621347e-81
7.1621299e-81
7.1621298e-81
7.1621322e-81
7.1621451e-81
7.1622037e-81
7.1679497e-81
7.1635456e-81
7.1623963e-81
7.1621665e-81
7.1621299e-81
7.1621252e-81
7.162125e-81
7.1621275e-81
7.1621404e-81
7.162199e-81
7.1679493e-81
7.1635454e-81
7.1623961e-81
7.1621664e-81
7.1621298e-81
7.162125e-81
7.1621249e-81
7.1621273e-81
7.1621403e-81
7.1621988e-81
7.1679502e-81
7.1635472e-81
7.1623984e-81
7.1621687e-81
7.1621322e-81
7.1621275e-81
7.1621273e-81
7.1621297e-81
7.1621427e-81
7.1622012e-81
7.1679549e-81
7.1635577e-81
7.1624108e-81
7.1621816e-81
7.1621451e-81
7.1621404e-81
7.1621403e-81
7.1621427e-81
7.1621556e-81
7.1622142e-81
7.1679805e-81
7.1636094e-81
7.1624682e-81
7.16224e-81
7.1622037e-81
7.162199e-81
7.1621988e-81
7.1622012e-81
7.1622142e-81
7.1622727e-81
5.9206516e-80
5.9171111e-80
5.9161858e-80
5.9160008e-80
5.9159714e-80
5.9159675e-80
5.9159672e-80
5.9159678e-80
5.9159717e-80
5.9159919e-80
5.9171111e-80
5.913574e-80
5.9126496e-80
5.9124648e-80
5.9124354e-80
5.9124315e-80
5.9124313e-80
5.9124328e-80
5.9124413e-80
5.9124828e-80
5.9161858e-80
5.9126496e-80
5.9117255e-80
5.9115407e-80
5.9115113e-80
5.9115074e-80
5.9115073e-80
5.9115092e-80
5.9115192e-80
5.9115654e-80
5.9160008e-80
5.9124648e-80
5.9115407e-80
5.9113559e-80
5.9113265e-80
5.9113227e-80
5.9113225e-80
5.9113245e-80
5.9113349e-80
5.9113819e-80
5.9159714e-80
5.9124354e-80
5.9115113e-80
5.9113265e-80
5.9112971e-80
5.9112932e-80
5.9112931e-80
5.9112951e-80
5.9113056e-80
5.9113527e-80
5.9159675e-80
5.9124315e-80
5.9115074e-80
5.9113227e-80
5.9112932e-80
5.9112894e-80
5.9112893e-80
5.9112913e-80
5.9113018e-80
5.9113489e-80
5.9159672e-80
5.9124313e-80
5.9115073e-80
5.9113225e-80
5.9112931e-80
5.9112893e-80
5.9112892e-80
5.9112912e-80
5.9113017e-80
5.9113488e-80
5.9159678e-80
5.9124328e-80
5.9115092e-80
5.9113245e-80
5.9112951e-80
5.9112913e-80
5.9112912e-80
5.9112931e-80
5.9113036e-80
5.9113507e-80
5.9159717e-80
5.9124413e-80
5.9115192e-80
5.9113349e-80
5.9113056e-80
5.9113018e-80
5.9113017e-80
5.9113036e-80
5.9113141e-80
5.9113612e-80
5.9159919e-80
5.9124828e-80
5.9115654e-80
5.9113819e-80
5.9113527e-80
5.9113489e-80
5.9113488e-80
5.9113507e-80
5.9113612e-80
5.9114083e-80
5.0073789e-79
5.0044674e-79
5.0037056e-79
5.0035532e-79
5.0035289e-79
5.0035257e-79
5.0035255e-79
5.003526e-79
5.0035292e-79
5.0035454e-79
5.0044674e-79
5.0015587e-79
5.0007976e-79
5.0006453e-79
5.0006211e-79
5.0006179e-79
5.0006178e-79
5.000619e-79
5.000626e-79
5.0006601e-79
5.0037056e-79
5.0007976e-79
5.0000367e-79
4.9998845e-79
4.9998602e-79
4.9998571e-79
4.999857e-79
4.9998585e-79
4.9998669e-79
4.9999048e-79
5.0035532e-79
5.0006453e-79
4.9998845e-79
4.9997323e-79
4.999708e-79
4.9997049e-79
4.9997048e-79
4.9997064e-79
4.9997151e-79
4.9997537e-79
5.0035289e-79
5.0006211e-79
4.9998602e-79
4.999708e-79
4.9996838e-79
4.9996806e-79
4.9996805e-79
4.9996822e-79
4.9996909e-79
4.9997296e-79
5.0035257e-79
5.0006179e-79
4.9998571e-79
4.9997049e-79
4.9996806e-79
4.9996775e-79
4.9996774e-79
4.999679e-79
4.9996878e-79
4.9997265e-79
5.0035255e-79
5.0006178e-79
4.999857e-79
4.9997048e-79
4.9996805e-79
4.9996774e-79
4.9996773e-79
4.9996789e-79
4.9996877e-79
4.9997264e-79
5.003526e-79
5.000619e-79
4.9998585e-79
4.9997064e-79
4.9996822e-79
4.999679e-79
4.9996789e-79
4.9996806e-79
4.9996893e-79
4.999728e-79
5.0035292e-79
5.000626e-79
4.9998669e-79
4.9997151e-79
4.9996909e-79
4.9996878e-79
4.9996877e-79
4.9996893e-79
4.999698e-79
4.9997367e-79
5.0035454e-79
5.0006601e-79
4.9999048e-79
4.9997537e-79
4.9997296e-79
4.9997265e-79
4.9997264e-79
4.999728e-79
4.9997367e-79
4.9997755e-79
4.3474518e-78
4.3449951e-78
4.3443515e-78
4.3442227e-78
4.3442022e-78
4.3441995e-78
4.3441993e-78
4.3441998e-78
4.3442024e-78
4.3442158e-78
4.3449951e-78
4.3425408e-78
4.3418978e-78
4.3417691e-78
4.3417486e-78
4.3417459e-78
4.3417458e-78
4.3417468e-78
4.3417528e-78
4.3417815e-78
4.3443515e-78
4.3418978e-78
4.3412549e-78
4.3411263e-78
4.3411058e-78
4.3411031e-78
4.341103e-78
4.3411043e-78
4.3411115e-78
4.3411435e-78
4.3442227e-78
4.3417691e-78
4.3411263e-78
4.3409976e-78
4.3409771e-78
4.3409745e-78
4.3409744e-78
4.3409758e-78
4.3409832e-78
4.3410157e-78
4.3442022e-78
4.3417486e-78
4.3411058e-78
4.3409771e-78
4.3409566e-78
4.340954e-78
4.3409539e-78
4.3409553e-78
4.3409627e-78
4.3409954e-78
4.3441995e-78
4.3417459e-78
4.3411031e-78
4.3409745e-78
4.340954e-78
4.3409513e-78
4.3409512e-78
4.3409526e-78
4.3409601e-78
4.3409927e-78
4.3441993e-78
4.3417458e-78
4.341103e-78
4.3409744e-78
4.3409539e-78
4.3409512e-78
4.3409512e-78
4.3409526e-78
4.34096e-78
4.3409927e-78
4.3441998e-78
4.3417468e-78
4.3411043e-78
4.3409758e-78
4.3409553e-78
4.3409526e-78
4.3409526e-78
4.340954e-78
4.3409614e-78
4.3409941e-78
4.3442024e-78
4.3417528e-78
4.3411115e-78
4.3409832e-78
4.3409627e-78
4.3409601e-78
4.34096e-78
4.3409614e-78
4.3409688e-78
4.3410015e-78
4.3442158e-78
4.3417815e-78
4.3411435e-78
4.3410157e-78
4.3409954e-78
4.3409927e-78
4.3409927e-78
4.3409941e-78
4.3410015e-78
4.3410342e-78
3.8746839e-77
3.872557e-77
3.8719991e-77
3.8718874e-77
3.8718697e-77
3.8718673e-77
3.8718671e-77
3.8718676e-77
3.8718699e-77
3.8718812e-77
3.872557e-77
3.8704321e-77
3.8698747e-77
3.8697631e-77
3.8697453e-77
3.869743e-77
3.8697429e-77
3.8697438e-77
3.8697491e-77
3.8697739e-77
3.8719991e-77
3.8698747e-77
3.8693175e-77
3.8692059e-77
3.8691881e-77
3.8691858e-77
3.8691857e-77
3.8691869e-77
3.8691931e-77
3.8692208e-77
3.8718874e-77
3.8697631e-77
3.8692059e-77
3.8690943e-77
3.8690766e-77
3.8690743e-77
3.8690742e-77
3.8690754e-77
3.8690819e-77
3.8691101e-77
3.8718697e-77
3.8697453e-77
3.8691881e-77
3.8690766e-77
3.8690588e-77
3.8690565e-77
3.8690564e-77
3.8690577e-77
3.8690642e-77
3.8690925e-77
3.8718673e-77
3.869743e-77
3.8691858e-77
3.8690743e-77
3.8690565e-77
3.8690542e-77
3.8690541e-77
3.8690553e-77
3.8690619e-77
3.8690902e-77
3.8718671e-77
3.8697429e-77
3.8691857e-77
3.8690742e-77
3.8690564e-77
3.8690541e-77
3.8690541e-77
3.8690553e-77
3.8690618e-77
3.8690901e-77
3.8718676e-77
3.8697438e-77
3.8691869e-77
3.8690754e-77
3.8690577e-77
3.8690553e-77
3.8690553e-77
3.8690565e-77
3.869063e-77
3.8690913e-77
3.8718699e-77
3.8697491e-77
3.8691931e-77
3.8690819e-77
3.8690642e-77
3.8690619e-77
3.8690618e-77
3.869063e-77
3.8690695e-77
3.8690978e-77
3.8718812e-77
3.8697739e-77
3.8692208e-77
3.8691101e-77
3.8690925e-77
3.8690902e-77
3.8690901e-77
3.8690913e-77
3.8690978e-77
3.8691262e-77
3.5448129e-76
3.5429236e-76
3.5424274e-76
3.5423281e-76
3.5423122e-76
3.5423102e-76
3.54231e-76
3.5423104e-76
3.5423124e-76
3.5423223e-76
3.5429236e-76
3.541036e-76
3.5405403e-76
3.540441e-76
3.5404252e-76
3.5404231e-76
3.540423e-76
3.5404239e-76
3.5404285e-76
3.5404506e-76
3.5424274e-76
3.5405403e-76
3.5400447e-76
3.5399454e-76
3.5399296e-76
3.5399276e-76
3.5399275e-76
3.5399286e-76
3.5399342e-76
3.5399588e-76
3.5423281e-76
3.540441e-76
3.5399454e-76
3.5398462e-76
3.5398304e-76
3.5398283e-76
3.5398283e-76
3.5398294e-76
3.5398352e-76
3.5398603e-76
3.5423122e-76
3.5404252e-76
3.5399296e-76
3.5398304e-76
3.5398146e-76
3.5398125e-76
3.5398125e-76
3.5398136e-76
3.5398194e-76
3.5398446e-76
3.5423102e-76
3.5404231e-76
3.5399276e-76
3.5398283e-76
3.5398125e-76
3.5398105e-76
3.5398104e-76
3.5398115e-76
3.5398174e-76
3.5398426e-76
3.54231e-76
3.540423e-76
3.5399275e-76
3.5398283e-76
3.5398125e-76
3.5398104e-76
3.5398104e-76
3.5398115e-76
3.5398173e-76
3.5398425e-76
3.5423104e-76
3.5404239e-76
3.5399286e-76
3.5398294e-76
3.5398136e-76
3.5398115e-76
3.5398115e-76
3.5398126e-76
3.5398184e-76
3.5398436e-76
3.5423124e-76
3.5404285e-76
3.5399342e-76
3.5398352e-76
3.5398194e-76
3.5398174e-76
3.5398173e-76
3.5398184e-76
3.5398243e-76
3.5398495e-76
3.5423223e-76
3.5404506e-76
3.5399588e-76
3.5398603e-76
3.5398446e-76
3.5398426e-76
3.5398425e-76
3.5398436e-76
3.5398495e-76
3.5398747e-76
3.3287348e-75
3.327013e-75
3.3265603e-75
3.3264696e-75
3.3264552e-75
3.3264533e-75
3.3264531e-75
3.3264535e-75
3.3264554e-75
3.3264642e-75
3.327013e-75
3.3252927e-75
3.3248405e-75
3.3247499e-75
3.3247354e-75
3.3247335e-75
3.3247334e-75
3.3247342e-75
3.3247385e-75
3.3247586e-75
3.3265603e-75
3.3248405e-75
3.3243883e-75
3.3242977e-75
3.3242833e-75
3.3242814e-75
3.3242814e-75
3.3242823e-75
3.3242875e-75
3.32431e-75
3.3264696e-75
3.3247499e-75
3.3242977e-75
3.3242071e-75
3.3241927e-75
3.3241908e-75
3.3241908e-75
3.3241918e-75
3.3241972e-75
3.3242201e-75
3.3264552e-75
3.3247354e-75
3.3242833e-75
3.3241927e-75
3.3241783e-75
3.3241764e-75
3.3241764e-75
3.3241774e-75
3.3241828e-75
3.3242058e-75
3.3264533e-75
3.3247335e-75
3.3242814e-75
3.3241908e-75
3.3241764e-75
3.3241745e-75
3.3241745e-75
3.3241755e-75
3.3241809e-75
3.3242039e-75
3.3264531e-75
3.3247334e-75
3.3242814e-75
3.3241908e-75
3.3241764e-75
3.3241745e-75
3.3241744e-75
3.3241755e-75
3.3241809e-75
3.3242039e-75
3.3264535e-75
3.3247342e-75
3.3242823e-75
3.3241918e-75
3.3241774e-75
3.3241755e-75
3.3241755e-75
3.3241765e-75
3.3241819e-75
3.3242049e-75
3.3264554e-75
3.3247385e-75
3.3242875e-75
3.3241972e-75
3.3241828e-75
3.3241809e-75
3.3241809e-75
3.3241819e-75
3.3241873e-75
3.3242103e-75
3.3264642e-75
3.3247586e-75
3.32431e-75
3.3242201e-75
3.3242058e-75
3.3242039e-75
3.3242039e-75
3.3242049e-75
3.3242103e-75
3.3242333e-75
3.2082058e-74
3.2065961e-74
3.2061725e-74
3.2060876e-74
3.206074e-74
3.2060723e-74
3.2060721e-74
3.2060724e-74
3.2060742e-74
3.2060823e-74
3.2065961e-74
3.2049879e-74
3.2045646e-74
3.2044798e-74
3.2044662e-74
3.2044645e-74
3.2044644e-74
3.2044651e-74
3.2044692e-74
3.204488e-74
3.2061725e-74
3.2045646e-74
3.2041414e-74
3.2040566e-74
3.2040431e-74
3.2040413e-74
3.2040413e-74
3.2040422e-74
3.2040471e-74
3.2040682e-74
3.2060876e-74
3.2044798e-74
3.2040566e-74
3.2039718e-74
3.2039583e-74
3.2039565e-74
3.2039565e-74
3.2039574e-74
3.2039625e-74
3.203984e-74
3.206074e-74
3.2044662e-74
3.2040431e-74
3.2039583e-74
3.2039448e-74
3.203943e-74
3.203943e-74
3.2039439e-74
3.203949e-74
3.2039706e-74
3.2060723e-74
3.2044645e-74
3.2040413e-74
3.2039565e-74
3.203943e-74
3.2039413e-74
3.2039412e-74
3.2039422e-74
3.2039473e-74
3.2039689e-74
3.2060721e-74
3.2044644e-74
3.2040413e-74
3.2039565e-74
3.203943e-74
3.2039412e-74
3.2039412e-74
3.2039421e-74
3.2039472e-74
3.2039689e-74
3.2060724e-74
3.2044651e-74
3.2040422e-74
3.2039574e-74
3.2039439e-74
3.2039422e-74
3.2039421e-74
3.2039431e-74
3.2039482e-74
3.2039698e-74
3.2060742e-74
3.2044692e-74
3.2040471e-74
3.2039625e-74
3.203949e-74
3.2039473e-74
3.2039472e-74
3.2039482e-74
3.2039533e-74
3.2039749e-74
3.2060823e-74
3.204488e-74
3.2040682e-74
3.203984e-74
3.2039706e-74
3.2039689e-74
3.2039689e-74
3.2039698e-74
3.2039749e-74
3.2039965e-74
3.1732594e-73
3.1717158e-73
3.1713092e-73
3.1712276e-73
3.1712147e-73
3.171213e-73
3.1712128e-73
3.1712131e-73
3.1712148e-73
3.1712225e-73
3.1717158e-73
3.1701737e-73
3.1697673e-73
3.1696859e-73
3.1696729e-73
3.1696712e-73
3.1696711e-73
3.1696718e-73
3.1696758e-73
3.1696939e-73
3.1713092e-73
3.1697673e-73
3.1693611e-73
3.1692796e-73
3.1692667e-73
3.169265e-73
3.1692649e-73
3.1692658e-73
3.1692706e-73
3.1692909e-73
3.1712276e-73
3.1696859e-73
3.1692796e-73
3.1691982e-73
3.1691852e-73
3.1691835e-73
3.1691835e-73
3.1691844e-73
3.1691894e-73
3.1692101e-73
3.1712147e-73
3.1696729e-73
3.1692667e-73
3.1691852e-73
3.1691722e-73
3.1691706e-73
3.1691705e-73
3.1691715e-73
3.1691764e-73
3.1691972e-73
3.171213e-73
3.1696712e-73
3.169265e-73
3.1691835e-73
3.1691706e-73
3.1691689e-73
3.1691688e-73
3.1691698e-73
3.1691747e-73
3.1691955e-73
3.1712128e-73
3.1696711e-73
3.1692649e-73
3.1691835e-73
3.1691705e-73
3.1691688e-73
3.1691688e-73
3.1691697e-73
3.1691747e-73
3.1691955e-73
3.1712131e-73
3.1696718e-73
3.1692658e-73
3.1691844e-73
3.1691715e-73
3.1691698e-73
3.1691697e-73
3.1691707e-73
3.1691756e-73
3.1691965e-73
3.1712148e-73
3.1696758e-73
3.1692706e-73
3.1691894e-73
3.1691764e-73
3.1691747e-73
3.1691747e-73
3.1691756e-73
3.1691806e-73
3.1692014e-73
3.1712225e-73
3.1696939e-73
3.1692909e-73
3.1692101e-73
3.1691972e-73
3.1691955e-73
3.1691955e-73
3.1691965e-73
3.1692014e-73
3.1692222e-73
3.2208257e-72
3.2193076e-72
3.2189072e-72
3.2188269e-72
3.2188141e-72
3.2188125e-72
3.2188123e-72
3.2188127e-72
3.2188143e-72
3.2188217e-72
3.2193076e-72
3.2177909e-72
3.2173908e-72
3.2173106e-72
3.2172978e-72
3.2172961e-72
3.217296e-72
3.2172968e-72
3.2173007e-72
3.2173186e-72
3.2189072e-72
3.2173908e-72
3.2169909e-72
3.2169106e-72
3.2168979e-72
3.2168962e-72
3.2168962e-72
3.2168971e-72
3.2169018e-72
3.2169219e-72
3.2188269e-72
3.2173106e-72
3.2169106e-72
3.2168304e-72
3.2168176e-72
3.216816e-72
3.216816e-72
3.2168169e-72
3.2168218e-72
3.2168423e-72
3.2188141e-72
3.2172978e-72
3.2168979e-72
3.2168176e-72
3.2168049e-72
3.2168032e-72
3.2168032e-72
3.2168041e-72
3.216809e-72
3.2168296e-72
3.2188125e-72
3.2172961e-72
3.2168962e-72
3.216816e-72
3.2168032e-72
3.2168015e-72
3.2168015e-72
3.2168025e-72
3.2168074e-72
3.216828e-72
3.2188123e-72
3.217296e-72
3.2168962e-72
3.216816e-72
3.2168032e-72
3.2168015e-72
3.2168015e-72
3.2168024e-72
3.2168074e-72
3.2168279e-72
3.2188127e-72
3.2172968e-72
3.2168971e-72
3.2168169e-72
3.2168041e-72
3.2168025e-72
3.2168024e-72
3.2168034e-72
3.2168083e-72
3.2168289e-72
3.2188143e-72
3.2173007e-72
3.2169018e-72
3.2168218e-72
3.216809e-72
3.2168074e-72
3.2168074e-72
3.2168083e-72
3.2168132e-72
3.2168338e-72
3.2188217e-72
3.2173186e-72
3.2169219e-72
3.2168423e-72
3.2168296e-72
3.216828e-72
3.2168279e-72
3.2168289e-72
3.2168338e-72
3.2168544e-72
3.354283e-71
3.3527519e-71
3.3523477e-71
3.3522666e-71
3.3522537e-71
3.352252e-71
3.3522519e-71
3.3522522e-71
3.3522539e-71
3.3522613e-71
3.3527519e-71
3.3512222e-71
3.3508183e-71
3.3507373e-71
3.3507243e-71
3.3507227e-71
3.3507226e-71
3.3507233e-71
3.3507274e-71
3.3507454e-71
3.3523477e-71
3.3508183e-71
3.3504145e-71
3.3503335e-71
3.3503206e-71
3.3503189e-71
3.3503189e-71
3.3503198e-71
3.3503246e-71
3.350345e-71
3.3522666e-71
3.3507373e-71
3.3503335e-71
3.3502525e-71
3.3502396e-71
3.3502379e-71
3.3502379e-71
3.3502388e-71
3.3502438e-71
3.3502647e-71
3.3522537e-71
3.3507243e-71
3.3503206e-71
3.3502396e-71
3.3502267e-71
3.350225e-71
3.350225e-71
3.3502259e-71
3.350231e-71
3.3502518e-71
3.352252e-71
3.3507227e-71
3.3503189e-71
3.3502379e-71
3.350225e-71
3.3502233e-71
3.3502233e-71
3.3502242e-71
3.3502293e-71
3.3502502e-71
3.3522519e-71
3.3507226e-71
3.3503189e-71
3.3502379e-71
3.350225e-71
3.3502233e-71
3.3502232e-71
3.3502242e-71
3.3502293e-71
3.3502501e-71
3.3522522e-71
3.3507233e-71
3.3503198e-71
3.3502388e-71
3.3502259e-71
3.3502242e-71
3.3502242e-71
3.3502252e-71
3.3502302e-71
3.3502511e-71
3.3522539e-71
3.3507274e-71
3.3503246e-71
3.3502438e-71
3.350231e-71
3.3502293e-71
3.3502293e-71
3.3502302e-71
3.3502353e-71
3.3502562e-71
3.3522613e-71
3.3507454e-71
3.350345e-71
3.3502647e-71
3.3502518e-71
3.3502502e-71
3.3502501e-71
3.3502511e-71
3.3502562e-71
3.3502771e-71
3.5838517e-70
3.5822684e-70
3.58185e-70
3.581766e-70
3.5817527e-70
3.5817509e-70
3.5817508e-70
3.5817511e-70
3.5817529e-70
3.5817604e-70
3.5822684e-70
3.5806865e-70
3.5802684e-70
3.5801845e-70
3.5801711e-70
3.5801693e-70
3.5801693e-70
3.5801701e-70
3.5801743e-70
3.5801931e-70
3.58185e-70
3.5802684e-70
3.5798504e-70
3.5797665e-70
3.5797531e-70
3.5797514e-70
3.5797514e-70
3.5797523e-70
3.5797574e-70
3.5797786e-70
3.581766e-70
3.5801845e-70
3.5797665e-70
3.5796826e-70
3.5796693e-70
3.5796675e-70
3.5796675e-70
3.5796685e-70
3.5796738e-70
3.5796954e-70
3.5817527e-70
3.5801711e-70
3.5797531e-70
3.5796693e-70
3.5796559e-70
3.5796541e-70
3.5796541e-70
3.5796551e-70
3.5796604e-70
3.5796822e-70
3.5817509e-70
3.5801693e-70
3.5797514e-70
3.5796675e-70
3.5796541e-70
3.5796524e-70
3.5796524e-70
3.5796534e-70
3.5796587e-70
3.5796804e-70
3.5817508e-70
3.5801693e-70
3.5797514e-70
3.5796675e-70
3.5796541e-70
3.5796524e-70
3.5796523e-70
3.5796534e-70
3.5796587e-70
3.5796804e-70
3.5817511e-70
3.5801701e-70
3.5797523e-70
3.5796685e-70
3.5796551e-70
3.5796534e-70
3.5796534e-70
3.5796544e-70
3.5796597e-70
3.5796814e-70
3.5817529e-70
3.5801743e-70
3.5797574e-70
3.5796738e-70
3.5796604e-70
3.5796587e-70
3.5796587e-70
3.5796597e-70
3.579665e-70
3.5796867e-70
3.5817604e-70
3.5801931e-70
3.5797786e-70
3.5796954e-70
3.5796822e-70
3.5796804e-70
3.5796804e-70
3.5796814e-70
3.5796867e-70
3.5797085e-70
3.927892e-69
3.9262134e-69
3.9257694e-69
3.9256803e-69
3.9256661e-69
3.9256642e-69
3.9256641e-69
3.9256645e-69
3.9256663e-69
3.9256742e-69
3.9262134e-69
3.9245363e-69
3.9240926e-69
3.9240035e-69
3.9239893e-69
3.9239875e-69
3.9239874e-69
3.9239883e-69
3.9239928e-69
3.9240128e-69
3.9257694e-69
3.9240926e-69
3.9236491e-69
3.92356e-69
3.9235458e-69
3.923544e-69
3.9235439e-69
3.923545e-69
3.9235504e-69
3.9235731e-69
3.9256803e-69
3.9240035e-69
3.92356e-69
3.923471e-69
3.9234568e-69
3.9234549e-69
3.9234549e-69
3.923456e-69
3.9234616e-69
3.9234848e-69
3.9256661e-69
3.9239893e-69
3.9235458e-69
3.9234568e-69
3.9234426e-69
3.9234407e-69
3.9234407e-69
3.9234418e-69
3.9234475e-69
3.9234707e-69
3.9256642e-69
3.9239875e-69
3.923544e-69
3.9234549e-69
3.9234407e-69
3.9234389e-69
3.9234389e-69
3.92344e-69
3.9234457e-69
3.9234689e-69
3.9256641e-69
3.9239874e-69
3.9235439e-69
3.9234549e-69
3.9234407e-69
3.9234389e-69
3.9234388e-69
3.9234399e-69
3.9234456e-69
3.9234689e-69
3.9256645e-69
3.9239883e-69
3.923545e-69
3.923456e-69
3.9234418e-69
3.92344e-69
3.9234399e-69
3.923441e-69
3.9234467e-69
3.92347e-69
3.9256663e-69
3.9239928e-69
3.9235504e-69
3.9234616e-69
3.9234475e-69
3.9234457e-69
3.9234456e-69
3.9234467e-69
3.9234524e-69
3.9234757e-69
3.9256742e-69
3.9240128e-69
3.9235731e-69
3.9234848e-69
3.9234707e-69
3.9234689e-69
3.9234689e-69
3.92347e-69
3.9234757e-69
3.9234989e-69
4.415335e-68
4.413511e-68
4.4130281e-68
4.4129311e-68
4.4129156e-68
4.4129136e-68
4.4129134e-68
4.4129138e-68
4.4129159e-68
4.4129244e-68
4.413511e-68
4.4116884e-68
4.4112059e-68
4.411109e-68
4.4110935e-68
4.4110915e-68
4.4110914e-68
4.4110923e-68
4.4110973e-68
4.4111193e-68
4.4130281e-68
4.4112059e-68
4.4107234e-68
4.4106265e-68
4.4106111e-68
4.4106091e-68
4.410609e-68
4.4106102e-68
4.4106162e-68
4.4106411e-68
4.4129311e-68
4.411109e-68
4.4106265e-68
4.4105296e-68
4.4105142e-68
4.4105122e-68
4.4105122e-68
4.4105134e-68
4.4105196e-68
4.410545e-68
4.4129156e-68
4.4110935e-68
4.4106111e-68
4.4105142e-68
4.4104987e-68
4.4104967e-68
4.4104967e-68
4.4104979e-68
4.4105042e-68
4.4105297e-68
4.4129136e-68
4.4110915e-68
4.4106091e-68
4.4105122e-68
4.4104967e-68
4.4104947e-68
4.4104947e-68
4.4104959e-68
4.4105022e-68
4.4105277e-68
4.4129134e-68
4.4110914e-68
4.410609e-68
4.4105122e-68
4.4104967e-68
4.4104947e-68
4.4104947e-68
4.4104959e-68
4.4105022e-68
4.4105276e-68
4.4129138e-68
4.4110923e-68
4.4106102e-68
4.4105134e-68
4.4104979e-68
4.4104959e-68
4.4104959e-68
4.4104971e-68
4.4105034e-68
4.4105289e-68
4.4129159e-68
4.4110973e-68
4.4106162e-68
4.4105196e-68
4.4105042e-68
4.4105022e-68
4.4105022e-68
4.4105034e-68
4.4105097e-68
4.4105351e-68
4.4129244e-68
4.4111193e-68
4.4106411e-68
4.410545e-68
4.4105297e-68
4.4105277e-68
4.4105276e-68
4.4105289e-68
4.4105351e-68
4.4105606e-68
5.0896956e-67
5.0876643e-67
5.087126e-67
5.0870178e-67
5.0870006e-67
5.0869983e-67
5.0869982e-67
5.0869986e-67
5.0870009e-67
5.0870103e-67
5.0876643e-67
5.0856345e-67
5.0850966e-67
5.0849886e-67
5.0849714e-67
5.0849691e-67
5.084969e-67
5.0849701e-67
5.0849757e-67
5.0850003e-67
5.087126e-67
5.0850966e-67
5.0845589e-67
5.0844508e-67
5.0844336e-67
5.0844314e-67
5.0844313e-67
5.0844326e-67
5.0844394e-67
5.0844674e-67
5.0870178e-67
5.0849886e-67
5.0844508e-67
5.0843428e-67
5.0843256e-67
5.0843233e-67
5.0843233e-67
5.0843247e-67
5.0843317e-67
5.0843603e-67
5.0870006e-67
5.0849714e-67
5.0844336e-67
5.0843256e-67
5.0843083e-67
5.0843061e-67
5.0843061e-67
5.0843075e-67
5.0843146e-67
5.0843432e-67
5.0869983e-67
5.0849691e-67
5.0844314e-67
5.0843233e-67
5.0843061e-67
5.0843039e-67
5.0843038e-67
5.0843052e-67
5.0843123e-67
5.084341e-67
5.0869982e-67
5.084969e-67
5.0844313e-67
5.0843233e-67
5.0843061e-67
5.0843038e-67
5.0843038e-67
5.0843052e-67
5.0843123e-67
5.0843409e-67
5.0869986e-67
5.0849701e-67
5.0844326e-67
5.0843247e-67
5.0843075e-67
5.0843052e-67
5.0843052e-67
5.0843066e-67
5.0843137e-67
5.0843423e-67
5.0870009e-67
5.0849757e-67
5.0844394e-67
5.0843317e-67
5.0843146e-67
5.0843123e-67
5.0843123e-67
5.0843137e-67
5.0843208e-67
5.0843494e-67
5.0870103e-67
5.0850003e-67
5.0844674e-67
5.0843603e-67
5.0843432e-67
5.084341e-67
5.0843409e-67
5.0843423e-67
5.0843494e-67
5.084378e-67
6.0154363e-66
6.0131183e-66
6.0125036e-66
6.0123801e-66
6.0123604e-66
6.0123578e-66
6.0123576e-66
6.0123581e-66
6.0123608e-66
6.0123714e-66
6.0131183e-66
6.0108023e-66
6.0101879e-66
6.0100645e-66
6.0100448e-66
6.0100422e-66
6.0100421e-66
6.0100433e-66
6.0100499e-66
6.0100782e-66
6.0125036e-66
6.0101879e-66
6.0095738e-66
6.0094503e-66
6.0094306e-66
6.0094281e-66
6.009428e-66
6.0094295e-66
6.0094374e-66
6.0094696e-66
6.0123801e-66
6.0100645e-66
6.0094503e-66
6.0093269e-66
6.0093072e-66
6.0093047e-66
6.0093046e-66
6.0093062e-66
6.0093144e-66
6.0093473e-66
6.0123604e-66
6.0100448e-66
6.0094306e-66
6.0093072e-66
6.0092875e-66
6.009285e-66
6.009285e-66
6.0092865e-66
6.0092948e-66
6.0093278e-66
6.0123578e-66
6.0100422e-66
6.0094281e-66
6.0093047e-66
6.009285e-66
6.0092824e-66
6.0092824e-66
6.009284e-66
6.0092922e-66
6.0093252e-66
6.0123576e-66
6.0100421e-66
6.009428e-66
6.0093046e-66
6.009285e-66
6.0092824e-66
6.0092824e-66
6.009284e-66
6.0092922e-66
6.0093252e-66
6.0123581e-66
6.0100433e-66
6.0094295e-66
6.0093062e-66
6.0092865e-66
6.009284e-66
6.009284e-66
6.0092856e-66
6.0092938e-66
6.0093268e-66
6.0123608e-66
6.0100499e-66
6.0094374e-66
6.0093144e-66
6.0092948e-66
6.0092922e-66
6.0092922e-66
6.0092938e-66
6.009302e-66
6.009335e-66
6.0123714e-66
6.0100782e-66
6.0094696e-66
6.0093473e-66
6.0093278e-66
6.0093252e-66
6.0093252e-66
6.0093268e-66
6.009335e-66
6.009368e-66
7.2879654e-65
7.2852559e-65
7.2845367e-65
7.2843921e-65
7.2843691e-65
7.2843661e-65
7.2843658e-65
7.2843665e-65
7.2843696e-65
7.2843819e-65
7.2852559e-65
7.2825486e-65
7.2818299e-65
7.2816854e-65
7.2816623e-65
7.2816593e-65
7.2816592e-65
7.2816607e-65
7.2816684e-65
7.2817019e-65
7.2845367e-65
7.2818299e-65
7.2811113e-65
7.2809669e-65
7.2809438e-65
7.2809408e-65
7.2809408e-65
7.2809426e-65
7.280952e-65
7.28099e-65
7.2843921e-65
7.2816854e-65
7.2809669e-65
7.2808224e-65
7.2807994e-65
7.2807964e-65
7.2807964e-65
7.2807983e-65
7.280808e-65
7.2808468e-65
7.2843691e-65
7.2816623e-65
7.2809438e-65
7.2807994e-65
7.2807764e-65
7.2807734e-65
7.2807733e-65
7.2807752e-65
7.280785e-65
7.280824e-65
7.2843661e-65
7.2816593e-65
7.2809408e-65
7.2807964e-65
7.2807734e-65
7.2807704e-65
7.2807704e-65
7.2807723e-65
7.280782e-65
7.280821e-65
7.2843658e-65
7.2816592e-65
7.2809408e-65
7.2807964e-65
7.2807733e-65
7.2807704e-65
7.2807703e-65
7.2807722e-65
7.280782e-65
7.280821e-65
7.2843665e-65
7.2816607e-65
7.2809426e-65
7.2807983e-65
7.2807752e-65
7.2807723e-65
7.2807722e-65
7.2807741e-65
7.2807839e-65
7.2808229e-65
7.2843696e-65
7.2816684e-65
7.280952e-65
7.280808e-65
7.280785e-65
7.280782e-65
7.280782e-65
7.2807839e-65
7.2807937e-65
7.2808327e-65
7.2843819e-65
7.2817019e-65
7.28099e-65
7.2808468e-65
7.280824e-65
7.280821e-65
7.280821e-65
7.2808229e-65
7.2808327e-65
7.2808717e-65
9.04939e-64
9.0461464e-64
9.0452847e-64
9.0451114e-64
9.0450838e-64
9.0450802e-64
9.0450799e-64
9.0450807e-64
9.0450845e-64
9.0450991e-64
9.0461464e-64
9.0429053e-64
9.0420441e-64
9.041871e-64
9.0418434e-64
9.0418398e-64
9.0418397e-64
9.0418414e-64
9.0418508e-64
9.0418913e-64
9.0452847e-64
9.0420441e-64
9.0411832e-64
9.0410101e-64
9.0409825e-64
9.0409789e-64
9.0409788e-64
9.040981e-64
9.0409924e-64
9.0410385e-64
9.0451114e-64
9.041871e-64
9.0410101e-64
9.040837e-64
9.0408094e-64
9.0408058e-64
9.0408058e-64
9.0408081e-64
9.0408199e-64
9.040867e-64
9.0450838e-64
9.0418434e-64
9.0409825e-64
9.0408094e-64
9.0407818e-64
9.0407782e-64
9.0407781e-64
9.0407805e-64
9.0407924e-64
9.0408396e-64
9.0450802e-64
9.0418398e-64
9.0409789e-64
9.0408058e-64
9.0407782e-64
9.0407746e-64
9.0407746e-64
9.0407769e-64
9.0407888e-64
9.040836e-64
9.0450799e-64
9.0418397e-64
9.0409788e-64
9.0408058e-64
9.0407781e-64
9.0407746e-64
9.0407745e-64
9.0407769e-64
9.0407888e-64
9.040836e-64
9.0450807e-64
9.0418414e-64
9.040981e-64
9.0408081e-64
9.0407805e-64
9.0407769e-64
9.0407769e-64
9.0407792e-64
9.0407911e-64
9.0408383e-64
9.0450845e-64
9.0418508e-64
9.0409924e-64
9.0408199e-64
9.0407924e-64
9.0407888e-64
9.0407888e-64
9.0407911e-64
9.040803e-64
9.0408503e-64
9.0450991e-64
9.0418913e-64
9.0410385e-64
9.040867e-64
9.0408396e-64
9.040836e-64
9.040836e-64
9.0408383e-64
9.0408503e-64
9.0408975e-64
1.1513548e-62
1.1509572e-62
1.1508515e-62
1.1508303e-62
1.1508269e-62
1.1508264e-62
1.1508264e-62
1.1508265e-62
1.150827e-62
1.1508288e-62
1.1509572e-62
1.1505599e-62
1.1504543e-62
1.1504331e-62
1.1504297e-62
1.1504292e-62
1.1504292e-62
1.1504294e-62
1.1504306e-62
1.1504356e-62
1.1508515e-62
1.1504543e-62
1.1503487e-62
1.1503274e-62
1.1503241e-62
1.1503236e-62
1.1503236e-62
1.1503239e-62
1.1503253e-62
1.150331e-62
1.1508303e-62
1.1504331e-62
1.1503274e-62
1.1503062e-62
1.1503028e-62
1.1503024e-62
1.1503024e-62
1.1503027e-62
1.1503041e-62
1.15031e-62
1.1508269e-62
1.1504297e-62
1.1503241e-62
1.1503028e-62
1.1502994e-62
1.150299e-62
1.150299e-62
1.1502993e-62
1.1503008e-62
1.1503066e-62
1.1508264e-62
1.1504292e-62
1.1503236e-62
1.1503024e-62
1.150299e-62
1.1502985e-62
1.1502985e-62
1.1502988e-62
1.1503003e-62
1.1503062e-62
1.1508264e-62
1.1504292e-62
1.1503236e-62
1.1503024e-62
1.150299e-62
1.1502985e-62
1.1502985e-62
1.1502988e-62
1.1503003e-62
1.1503062e-62
1.1508265e-62
1.1504294e-62
1.1503239e-62
1.1503027e-62
1.1502993e-62
1.1502988e-62
1.1502988e-62
1.1502991e-62
1.1503006e-62
1.1503065e-62
1.150827e-62
1.1504306e-62
1.1503253e-62
1.1503041e-62
1.1503008e-62
1.1503003e-62
1.1503003e-62
1.1503006e-62
1.1503021e-62
1.150308e-62
1.1508288e-62
1.1504356e-62
1.150331e-62
1.15031e-62
1.1503066e-62
1.1503062e-62
1.1503062e-62
1.1503065e-62
1.150308e-62
1.1503138e-62
1.5006235e-61
1.5001247e-61
1.4999919e-61
1.4999652e-61
1.4999609e-61
1.4999604e-61
1.4999603e-61
1.4999605e-61
1.4999611e-61
1.4999633e-61
1.5001247e-61
1.4996261e-61
1.4994935e-61
1.4994668e-61
1.4994625e-61
1.499462e-61
1.499462e-61
1.4994623e-61
1.4994638e-61
1.4994701e-61
1.4999919e-61
1.4994935e-61
1.4993609e-61
1.4993342e-61
1.4993299e-61
1.4993294e-61
1.4993294e-61
1.4993297e-61
1.4993315e-61
1.4993388e-61
1.4999652e-61
1.4994668e-61
1.4993342e-61
1.4993075e-61
1.4993032e-61
1.4993027e-61
1.4993027e-61
1.4993031e-61
1.4993049e-61
1.4993124e-61
1.4999609e-61
1.4994625e-61
1.4993299e-61
1.4993032e-61
1.499299e-61
1.4992984e-61
1.4992984e-61
1.4992988e-61
1.4993007e-61
1.4993081e-61
1.4999604e-61
1.499462e-61
1.4993294e-61
1.4993027e-61
1.4992984e-61
1.4992979e-61
1.4992979e-61
1.4992982e-61
1.4993001e-61
1.4993076e-61
1.4999603e-61
1.499462e-61
1.4993294e-61
1.4993027e-61
1.4992984e-61
1.4992979e-61
1.4992979e-61
1.4992982e-61
1.4993001e-61
1.4993076e-61
1.4999605e-61
1.4994623e-61
1.4993297e-61
1.4993031e-61
1.4992988e-61
1.4992982e-61
1.4992982e-61
1.4992986e-61
1.4993005e-61
1.499308e-61
1.4999611e-61
1.4994638e-61
1.4993315e-61
1.4993049e-61
1.4993007e-61
1.4993001e-61
1.4993001e-61
1.4993005e-61
1.4993024e-61
1.4993099e-61
1.4999633e-61
1.4994701e-61
1.4993388e-61
1.4993124e-61
1.4993081e-61
1.4993076e-61
1.4993076e-61