/*--------------------------------*- C++ -*----------------------------------*\
| =========                 |                                                 |
| \\      /  F ield         | OpenFOAM: The Open Source CFD Toolbox           |
|  \\    /   O peration     | Version:  dev                                   |
|   \\  /    A nd           | Web:      www.OpenFOAM.org                      |
|    \\/     M anipulation  |                                                 |
\*---------------------------------------------------------------------------*/
FoamFile
{
    version     2.0;
    format      ascii;
    class       volScalarField;
    location    "96.995";
    object      A;
}
// * * * * * * * * * * * * * * * * * * * * * * * * * * * * * * * * * * * * * //

dimensions      [0 0 0 0 1 0 0];

internalField   nonuniform List<scalar> 
10000
(
2.3971804e-21
2.3952437e-21
2.394155e-21
2.3935117e-21
2.3931466e-21
2.3929652e-21
2.3929181e-21
2.3929938e-21
2.3932237e-21
2.3936701e-21
2.3952437e-21
2.3933143e-21
2.392228e-21
2.3915861e-21
2.3912219e-21
2.3910418e-21
2.3909969e-21
2.3910776e-21
2.3913199e-21
2.3918015e-21
2.394155e-21
2.392228e-21
2.3911435e-21
2.3905028e-21
2.3901399e-21
2.3899614e-21
2.3899195e-21
2.3900052e-21
2.3902562e-21
2.3907501e-21
2.3935117e-21
2.3915861e-21
2.3905028e-21
2.3898633e-21
2.3895017e-21
2.3893249e-21
2.3892854e-21
2.3893748e-21
2.3896309e-21
2.3901296e-21
2.3931466e-21
2.3912219e-21
2.3901399e-21
2.3895017e-21
2.3891413e-21
2.388966e-21
2.3889284e-21
2.3890203e-21
2.3892791e-21
2.3897798e-21
2.3929652e-21
2.3910418e-21
2.3899614e-21
2.3893249e-21
2.388966e-21
2.3887922e-21
2.388756e-21
2.3888494e-21
2.3891097e-21
2.3896115e-21
2.3929181e-21
2.3909969e-21
2.3899195e-21
2.3892854e-21
2.3889284e-21
2.388756e-21
2.388721e-21
2.3888154e-21
2.3890766e-21
2.3895789e-21
2.3929938e-21
2.3910776e-21
2.3900052e-21
2.3893748e-21
2.3890203e-21
2.3888494e-21
2.3888154e-21
2.3889106e-21
2.3891724e-21
2.3896752e-21
2.3932237e-21
2.3913199e-21
2.3902562e-21
2.3896309e-21
2.3892791e-21
2.3891097e-21
2.3890766e-21
2.3891724e-21
2.3894348e-21
2.3899381e-21
2.3936701e-21
2.3918015e-21
2.3907501e-21
2.3901296e-21
2.3897798e-21
2.3896115e-21
2.3895789e-21
2.3896752e-21
2.3899381e-21
2.3904429e-21
7.8085548e-21
7.8024954e-21
7.7989846e-21
7.7969053e-21
7.7957238e-21
7.7951367e-21
7.7949838e-21
7.7952275e-21
7.7959701e-21
7.7974627e-21
7.8024954e-21
7.7964579e-21
7.792955e-21
7.7908798e-21
7.7897016e-21
7.7891185e-21
7.7889729e-21
7.7892327e-21
7.7900157e-21
7.7916234e-21
7.7989846e-21
7.792955e-21
7.7894577e-21
7.7873866e-21
7.7862124e-21
7.7856347e-21
7.7854984e-21
7.7857746e-21
7.7865862e-21
7.7882337e-21
7.7969053e-21
7.7908798e-21
7.7873866e-21
7.7853193e-21
7.7841492e-21
7.783577e-21
7.7834487e-21
7.783737e-21
7.7845648e-21
7.7862281e-21
7.7957238e-21
7.7897016e-21
7.7862124e-21
7.7841492e-21
7.7829834e-21
7.7824161e-21
7.7822939e-21
7.7825901e-21
7.7834268e-21
7.7850969e-21
7.7951367e-21
7.7891185e-21
7.7856347e-21
7.783577e-21
7.7824161e-21
7.7818533e-21
7.7817358e-21
7.7820369e-21
7.7828785e-21
7.7845519e-21
7.7949838e-21
7.7889729e-21
7.7854984e-21
7.7834487e-21
7.7822939e-21
7.7817358e-21
7.7816221e-21
7.7819266e-21
7.7827711e-21
7.7844462e-21
7.7952275e-21
7.7892327e-21
7.7857746e-21
7.783737e-21
7.7825901e-21
7.7820369e-21
7.7819266e-21
7.7822337e-21
7.7830802e-21
7.7847567e-21
7.7959701e-21
7.7900157e-21
7.7865862e-21
7.7845648e-21
7.7834268e-21
7.7828785e-21
7.7827711e-21
7.7830802e-21
7.7839285e-21
7.7856069e-21
7.7974627e-21
7.7916234e-21
7.7882337e-21
7.7862281e-21
7.7850969e-21
7.7845519e-21
7.7844462e-21
7.7847567e-21
7.7856069e-21
7.7872901e-21
1.5260657e-20
1.5249215e-20
1.5242475e-20
1.523847e-20
1.5236191e-20
1.5235057e-20
1.523476e-20
1.5235225e-20
1.5236651e-20
1.523961e-20
1.5249215e-20
1.5237813e-20
1.5231088e-20
1.5227091e-20
1.5224818e-20
1.5223692e-20
1.522341e-20
1.5223906e-20
1.522541e-20
1.5228595e-20
1.5242475e-20
1.5231088e-20
1.5224374e-20
1.5220384e-20
1.5218119e-20
1.5217004e-20
1.5216739e-20
1.5217268e-20
1.5218827e-20
1.5222089e-20
1.523847e-20
1.5227091e-20
1.5220384e-20
1.5216402e-20
1.5214146e-20
1.5213041e-20
1.5212791e-20
1.5213344e-20
1.5214935e-20
1.5218227e-20
1.5236191e-20
1.5224818e-20
1.5218119e-20
1.5214146e-20
1.5211897e-20
1.5210802e-20
1.5210564e-20
1.5211132e-20
1.521274e-20
1.5216046e-20
1.5235057e-20
1.5223692e-20
1.5217004e-20
1.5213041e-20
1.5210802e-20
1.5209715e-20
1.5209487e-20
1.5210064e-20
1.5211682e-20
1.5214994e-20
1.523476e-20
1.522341e-20
1.5216739e-20
1.5212791e-20
1.5210564e-20
1.5209487e-20
1.5209266e-20
1.5209849e-20
1.5211473e-20
1.5214789e-20
1.5235225e-20
1.5223906e-20
1.5217268e-20
1.5213344e-20
1.5211132e-20
1.5210064e-20
1.5209849e-20
1.5210438e-20
1.5212066e-20
1.5215384e-20
1.5236651e-20
1.522541e-20
1.5218827e-20
1.5214935e-20
1.521274e-20
1.5211682e-20
1.5211473e-20
1.5212066e-20
1.5213697e-20
1.5217019e-20
1.523961e-20
1.5228595e-20
1.5222089e-20
1.5218227e-20
1.5216046e-20
1.5214994e-20
1.5214789e-20
1.5215384e-20
1.5217019e-20
1.522035e-20
2.6781745e-20
2.6762335e-20
2.6750778e-20
2.6743887e-20
2.6739959e-20
2.6738002e-20
2.6737484e-20
2.6738275e-20
2.6740708e-20
2.6745827e-20
2.6762335e-20
2.6742993e-20
2.6731462e-20
2.6724584e-20
2.6720667e-20
2.6718723e-20
2.671823e-20
2.6719076e-20
2.6721646e-20
2.6727158e-20
2.6750778e-20
2.6731462e-20
2.6719949e-20
2.6713084e-20
2.670918e-20
2.6707255e-20
2.6706794e-20
2.6707695e-20
2.6710362e-20
2.671601e-20
2.6743887e-20
2.6724584e-20
2.6713084e-20
2.6706233e-20
2.6702343e-20
2.6700436e-20
2.6700002e-20
2.6700944e-20
2.6703667e-20
2.6709367e-20
2.6739959e-20
2.6720667e-20
2.670918e-20
2.6702343e-20
2.6698467e-20
2.6696577e-20
2.6696163e-20
2.6697132e-20
2.6699885e-20
2.6705609e-20
2.6738002e-20
2.6718723e-20
2.6707255e-20
2.6700436e-20
2.6696577e-20
2.6694701e-20
2.6694304e-20
2.669529e-20
2.6698059e-20
2.6703794e-20
2.6737484e-20
2.671823e-20
2.6706794e-20
2.6700002e-20
2.6696163e-20
2.6694304e-20
2.6693919e-20
2.6694917e-20
2.6697695e-20
2.6703437e-20
2.6738275e-20
2.6719076e-20
2.6707695e-20
2.6700944e-20
2.6697132e-20
2.669529e-20
2.6694917e-20
2.6695922e-20
2.6698708e-20
2.6704454e-20
2.6740708e-20
2.6721646e-20
2.6710362e-20
2.6703667e-20
2.6699885e-20
2.6698059e-20
2.6697695e-20
2.6698708e-20
2.67015e-20
2.6707252e-20
2.6745827e-20
2.6727158e-20
2.671601e-20
2.6709367e-20
2.6705609e-20
2.6703794e-20
2.6703437e-20
2.6704454e-20
2.6707252e-20
2.6713021e-20
4.5671655e-20
4.5639668e-20
4.5620479e-20
4.5608998e-20
4.560244e-20
4.5599166e-20
4.5598292e-20
4.559959e-20
4.5603596e-20
4.5612045e-20
4.5639668e-20
4.5607792e-20
4.5588645e-20
4.5577186e-20
4.5570646e-20
4.5567394e-20
4.5566563e-20
4.5567953e-20
4.5572192e-20
4.5581309e-20
4.5620479e-20
4.5588645e-20
4.5569528e-20
4.5558091e-20
4.5551574e-20
4.5548354e-20
4.5547575e-20
4.554906e-20
4.5553463e-20
4.5562809e-20
4.5608998e-20
4.5577186e-20
4.5558091e-20
4.5546676e-20
4.5540182e-20
4.5536993e-20
4.553626e-20
4.5537814e-20
4.5542311e-20
4.5551748e-20
4.560244e-20
4.5570646e-20
4.5551574e-20
4.5540182e-20
4.5533712e-20
4.5530551e-20
4.5529853e-20
4.5531452e-20
4.5536e-20
4.5545476e-20
4.5599166e-20
4.5567394e-20
4.5548354e-20
4.5536993e-20
4.5530551e-20
4.5527415e-20
4.5526744e-20
4.5528372e-20
4.5532948e-20
4.5542442e-20
4.5598292e-20
4.5566563e-20
4.5547575e-20
4.553626e-20
4.5529853e-20
4.5526744e-20
4.5526095e-20
4.5527742e-20
4.5532334e-20
4.5541839e-20
4.559959e-20
4.5567953e-20
4.554906e-20
4.5537814e-20
4.5531452e-20
4.5528372e-20
4.5527742e-20
4.5529404e-20
4.5534008e-20
4.554352e-20
4.5603596e-20
4.5572192e-20
4.5553463e-20
4.5542311e-20
4.5536e-20
4.5532948e-20
4.5532334e-20
4.5534008e-20
4.5538621e-20
4.5548144e-20
4.5612045e-20
4.5581309e-20
4.5562809e-20
4.5551748e-20
4.5545476e-20
4.5542442e-20
4.5541839e-20
4.554352e-20
4.5548144e-20
4.5557695e-20
7.7559522e-20
7.7507051e-20
7.7475389e-20
7.745638e-20
7.74455e-20
7.7440057e-20
7.743859e-20
7.7440703e-20
7.7447241e-20
7.746099e-20
7.7507051e-20
7.7454762e-20
7.7423168e-20
7.7404196e-20
7.7393345e-20
7.738794e-20
7.7386544e-20
7.7388813e-20
7.7395744e-20
7.7410621e-20
7.7475389e-20
7.7423168e-20
7.7391623e-20
7.7372688e-20
7.7361874e-20
7.7356522e-20
7.7355215e-20
7.7357643e-20
7.736485e-20
7.7380116e-20
7.745638e-20
7.7404196e-20
7.7372688e-20
7.7353788e-20
7.7343014e-20
7.7337714e-20
7.7336484e-20
7.7339029e-20
7.7346394e-20
7.7361811e-20
7.74455e-20
7.7393345e-20
7.7361874e-20
7.7343014e-20
7.7332281e-20
7.7327027e-20
7.7325856e-20
7.7328477e-20
7.7335928e-20
7.7351412e-20
7.7440057e-20
7.738794e-20
7.7356522e-20
7.7337714e-20
7.7327027e-20
7.7321817e-20
7.7320691e-20
7.732336e-20
7.7330857e-20
7.7346373e-20
7.743859e-20
7.7386544e-20
7.7355215e-20
7.7336484e-20
7.7325856e-20
7.7320691e-20
7.7319601e-20
7.7322302e-20
7.7329828e-20
7.7345361e-20
7.7440703e-20
7.7388813e-20
7.7357643e-20
7.7339029e-20
7.7328477e-20
7.732336e-20
7.7322302e-20
7.7325028e-20
7.7332572e-20
7.7348118e-20
7.7447241e-20
7.7395744e-20
7.736485e-20
7.7346394e-20
7.7335928e-20
7.7330857e-20
7.7329828e-20
7.7332572e-20
7.7340133e-20
7.7355696e-20
7.746099e-20
7.7410621e-20
7.7380116e-20
7.7361811e-20
7.7351412e-20
7.7346373e-20
7.7345361e-20
7.7348118e-20
7.7355696e-20
7.7371305e-20
1.3228607e-19
1.3219967e-19
1.3214725e-19
1.3211569e-19
1.3209758e-19
1.3208851e-19
1.3208603e-19
1.3208948e-19
1.3210017e-19
1.3212253e-19
1.3219967e-19
1.3211355e-19
1.3206126e-19
1.3202975e-19
1.3201169e-19
1.3200268e-19
1.3200033e-19
1.3200404e-19
1.3201539e-19
1.3203966e-19
1.3214725e-19
1.3206126e-19
1.3200904e-19
1.3197759e-19
1.319596e-19
1.3195067e-19
1.3194847e-19
1.3195245e-19
1.3196427e-19
1.319892e-19
1.3211569e-19
1.3202975e-19
1.3197759e-19
1.3194621e-19
1.3192828e-19
1.3191944e-19
1.3191737e-19
1.3192155e-19
1.3193364e-19
1.3195882e-19
1.3209758e-19
1.3201169e-19
1.319596e-19
1.3192828e-19
1.3191042e-19
1.3190166e-19
1.3189969e-19
1.3190399e-19
1.3191623e-19
1.3194153e-19
1.3208851e-19
1.3200268e-19
1.3195067e-19
1.3191944e-19
1.3190166e-19
1.3189298e-19
1.3189108e-19
1.3189547e-19
1.3190778e-19
1.3193313e-19
1.3208603e-19
1.3200033e-19
1.3194847e-19
1.3191737e-19
1.3189969e-19
1.3189108e-19
1.3188925e-19
1.3189369e-19
1.3190605e-19
1.3193143e-19
1.3208948e-19
1.3200404e-19
1.3195245e-19
1.3192155e-19
1.3190399e-19
1.3189547e-19
1.3189369e-19
1.3189817e-19
1.3191056e-19
1.3193596e-19
1.3210017e-19
1.3201539e-19
1.3196427e-19
1.3193364e-19
1.3191623e-19
1.3190778e-19
1.3190605e-19
1.3191056e-19
1.3192298e-19
1.3194841e-19
1.3212253e-19
1.3203966e-19
1.319892e-19
1.3195882e-19
1.3194153e-19
1.3193313e-19
1.3193143e-19
1.3193596e-19
1.3194841e-19
1.3197392e-19
2.2731003e-19
2.2716674e-19
2.2707941e-19
2.2702664e-19
2.2699631e-19
2.2698107e-19
2.2697689e-19
2.2698254e-19
2.2700012e-19
2.2703666e-19
2.2716674e-19
2.2702393e-19
2.2693679e-19
2.2688412e-19
2.2685387e-19
2.2683874e-19
2.2683476e-19
2.2684086e-19
2.2685957e-19
2.2689938e-19
2.2707941e-19
2.2693679e-19
2.2684978e-19
2.2679721e-19
2.2676707e-19
2.2675209e-19
2.2674836e-19
2.2675492e-19
2.2677443e-19
2.2681536e-19
2.2702664e-19
2.2688412e-19
2.2679721e-19
2.2674475e-19
2.2671471e-19
2.2669989e-19
2.2669638e-19
2.2670328e-19
2.2672324e-19
2.2676461e-19
2.2699631e-19
2.2685387e-19
2.2676707e-19
2.2671471e-19
2.266848e-19
2.266701e-19
2.2666676e-19
2.2667388e-19
2.2669409e-19
2.2673565e-19
2.2698107e-19
2.2683874e-19
2.2675209e-19
2.2669989e-19
2.266701e-19
2.2665554e-19
2.2665232e-19
2.2665958e-19
2.2667992e-19
2.2672157e-19
2.2697689e-19
2.2683476e-19
2.2674836e-19
2.2669638e-19
2.2666676e-19
2.2665232e-19
2.2664922e-19
2.2665657e-19
2.2667699e-19
2.2671869e-19
2.2698254e-19
2.2684086e-19
2.2675492e-19
2.2670328e-19
2.2667388e-19
2.2665958e-19
2.2665657e-19
2.2666398e-19
2.2668446e-19
2.2672619e-19
2.2700012e-19
2.2685957e-19
2.2677443e-19
2.2672324e-19
2.2669409e-19
2.2667992e-19
2.2667699e-19
2.2668446e-19
2.2670498e-19
2.2674676e-19
2.2703666e-19
2.2689938e-19
2.2681536e-19
2.2676461e-19
2.2673565e-19
2.2672157e-19
2.2671869e-19
2.2672619e-19
2.2674676e-19
2.2678867e-19
3.9394464e-19
3.9370507e-19
3.9355839e-19
3.9346949e-19
3.9341828e-19
3.9339251e-19
3.9338535e-19
3.9339471e-19
3.9342383e-19
3.9348399e-19
3.9370507e-19
3.9346631e-19
3.9331994e-19
3.932312e-19
3.9318013e-19
3.9315454e-19
3.9314774e-19
3.9315787e-19
3.9318894e-19
3.9325472e-19
3.9355839e-19
3.9331994e-19
3.931738e-19
3.9308523e-19
3.9303434e-19
3.9300901e-19
3.9300264e-19
3.9301355e-19
3.93046e-19
3.9311371e-19
3.9346949e-19
3.932312e-19
3.9308523e-19
3.9299684e-19
3.9294614e-19
3.9292106e-19
3.9291507e-19
3.9292656e-19
3.9295978e-19
3.9302825e-19
3.9341828e-19
3.9318013e-19
3.9303434e-19
3.9294614e-19
3.9289563e-19
3.9287078e-19
3.9286509e-19
3.9287695e-19
3.9291059e-19
3.9297938e-19
3.9339251e-19
3.9315454e-19
3.9300901e-19
3.9292106e-19
3.9287078e-19
3.9284615e-19
3.9284067e-19
3.9285277e-19
3.9288665e-19
3.929556e-19
3.9338535e-19
3.9314774e-19
3.9300264e-19
3.9291507e-19
3.9286509e-19
3.9284067e-19
3.9283537e-19
3.9284763e-19
3.9288164e-19
3.9295068e-19
3.9339471e-19
3.9315787e-19
3.9301355e-19
3.9292656e-19
3.9287695e-19
3.9285277e-19
3.9284763e-19
3.9286001e-19
3.9289411e-19
3.929632e-19
3.9342383e-19
3.9318894e-19
3.93046e-19
3.9295978e-19
3.9291059e-19
3.9288665e-19
3.9288164e-19
3.9289411e-19
3.929283e-19
3.9299746e-19
3.9348399e-19
3.9325472e-19
3.9311371e-19
3.9302825e-19
3.9297938e-19
3.929556e-19
3.9295068e-19
3.929632e-19
3.9299746e-19
3.9306683e-19
6.8888583e-19
6.8848186e-19
6.8823341e-19
6.8808236e-19
6.8799517e-19
6.8795121e-19
6.879389e-19
6.8795451e-19
6.8800317e-19
6.8810302e-19
6.8848186e-19
6.8807925e-19
6.8783132e-19
6.8768055e-19
6.8759359e-19
6.8754995e-19
6.8753823e-19
6.8755518e-19
6.8760723e-19
6.8771684e-19
6.8823341e-19
6.8783132e-19
6.8758377e-19
6.8743329e-19
6.8734664e-19
6.8730344e-19
6.8729249e-19
6.8731079e-19
6.8736522e-19
6.8747817e-19
6.8808236e-19
6.8768055e-19
6.8743329e-19
6.8728311e-19
6.8719679e-19
6.8715403e-19
6.8714373e-19
6.8716303e-19
6.872188e-19
6.8733306e-19
6.8799517e-19
6.8759359e-19
6.8734664e-19
6.8719679e-19
6.8711081e-19
6.8706845e-19
6.8705864e-19
6.8707859e-19
6.8713509e-19
6.8724992e-19
6.8795121e-19
6.8754995e-19
6.8730344e-19
6.8715403e-19
6.8706845e-19
6.8702645e-19
6.8701703e-19
6.8703738e-19
6.8709429e-19
6.8720939e-19
6.879389e-19
6.8753823e-19
6.8729249e-19
6.8714373e-19
6.8705864e-19
6.8701703e-19
6.8700792e-19
6.8702855e-19
6.8708569e-19
6.8720093e-19
6.8795451e-19
6.8755518e-19
6.8731079e-19
6.8716303e-19
6.8707859e-19
6.8703738e-19
6.8702855e-19
6.8704938e-19
6.8710668e-19
6.8722203e-19
6.8800317e-19
6.8760723e-19
6.8736522e-19
6.872188e-19
6.8713509e-19
6.8709429e-19
6.8708569e-19
6.8710668e-19
6.8716411e-19
6.8727959e-19
6.8810302e-19
6.8771684e-19
6.8747817e-19
6.8733306e-19
6.8724992e-19
6.8720939e-19
6.8720093e-19
6.8722203e-19
6.8727959e-19
6.873954e-19
1.215711e-18
1.2150239e-18
1.2145994e-18
1.2143405e-18
1.2141908e-18
1.2141152e-18
1.2140938e-18
1.2141201e-18
1.2142021e-18
1.2143693e-18
1.2150239e-18
1.214339e-18
1.2139154e-18
1.2136571e-18
1.2135077e-18
1.2134327e-18
1.2134123e-18
1.2134409e-18
1.2135289e-18
1.2137132e-18
1.2145994e-18
1.2139154e-18
1.2134925e-18
1.2132346e-18
1.2130858e-18
1.2130115e-18
1.2129925e-18
1.2130235e-18
1.2131156e-18
1.2133057e-18
1.2143405e-18
1.2136571e-18
1.2132346e-18
1.2129772e-18
1.212829e-18
1.2127555e-18
1.2127376e-18
1.2127703e-18
1.2128648e-18
1.2130572e-18
1.2141908e-18
1.2135077e-18
1.2130858e-18
1.212829e-18
1.2126814e-18
1.2126085e-18
1.2125915e-18
1.2126254e-18
1.2127211e-18
1.2129145e-18
1.2141152e-18
1.2134327e-18
1.2130115e-18
1.2127555e-18
1.2126085e-18
1.2125363e-18
1.21252e-18
1.2125546e-18
1.212651e-18
1.2128448e-18
1.2140938e-18
1.2134123e-18
1.2129925e-18
1.2127376e-18
1.2125915e-18
1.21252e-18
1.2125042e-18
1.2125392e-18
1.2126361e-18
1.2128302e-18
1.2141201e-18
1.2134409e-18
1.2130235e-18
1.2127703e-18
1.2126254e-18
1.2125546e-18
1.2125392e-18
1.2125746e-18
1.2126718e-18
1.212866e-18
1.2142021e-18
1.2135289e-18
1.2131156e-18
1.2128648e-18
1.2127211e-18
1.212651e-18
1.2126361e-18
1.2126718e-18
1.2127691e-18
1.2129636e-18
1.2143693e-18
1.2137132e-18
1.2133057e-18
1.2130572e-18
1.2129145e-18
1.2128448e-18
1.2128302e-18
1.212866e-18
1.2129636e-18
1.2131587e-18
2.1653167e-18
2.1641376e-18
2.163406e-18
2.1629585e-18
2.1626991e-18
2.1625679e-18
2.1625305e-18
2.1625752e-18
2.1627147e-18
2.1629971e-18
2.1641376e-18
2.1629624e-18
2.1622323e-18
2.1617856e-18
2.161527e-18
2.1613967e-18
2.1613612e-18
2.1614099e-18
2.1615599e-18
2.1618724e-18
2.163406e-18
2.1622323e-18
2.1615033e-18
2.1610575e-18
2.1607998e-18
2.1606709e-18
2.1606377e-18
2.1606906e-18
2.1608479e-18
2.1611707e-18
2.1629585e-18
2.1617856e-18
2.1610575e-18
2.1606126e-18
2.1603559e-18
2.1602283e-18
2.1601971e-18
2.1602531e-18
2.1604146e-18
2.1607414e-18
2.1626991e-18
2.161527e-18
2.1607998e-18
2.1603559e-18
2.1601002e-18
2.1599739e-18
2.1599442e-18
2.1600021e-18
2.1601658e-18
2.1604944e-18
2.1625679e-18
2.1613967e-18
2.1606709e-18
2.1602283e-18
2.1599739e-18
2.1598486e-18
2.1598201e-18
2.1598793e-18
2.1600443e-18
2.1603737e-18
2.1625305e-18
2.1613612e-18
2.1606377e-18
2.1601971e-18
2.1599442e-18
2.1598201e-18
2.1597925e-18
2.1598526e-18
2.1600182e-18
2.1603481e-18
2.1625752e-18
2.1614099e-18
2.1606906e-18
2.1602531e-18
2.1600021e-18
2.1598793e-18
2.1598526e-18
2.1599133e-18
2.1600794e-18
2.1604096e-18
2.1627147e-18
2.1615599e-18
2.1608479e-18
2.1604146e-18
2.1601658e-18
2.1600443e-18
2.1600182e-18
2.1600794e-18
2.1602459e-18
2.1605765e-18
2.1629971e-18
2.1618724e-18
2.1611707e-18
2.1607414e-18
2.1604944e-18
2.1603737e-18
2.1603481e-18
2.1604096e-18
2.1605765e-18
2.160908e-18
3.892624e-18
3.8905829e-18
3.8893109e-18
3.8885306e-18
3.8880774e-18
3.8878477e-18
3.8877817e-18
3.8878582e-18
3.8880977e-18
3.8885789e-18
3.8905829e-18
3.8885484e-18
3.887279e-18
3.8865001e-18
3.8860481e-18
3.8858201e-18
3.8857575e-18
3.8858413e-18
3.8860994e-18
3.8866342e-18
3.8893109e-18
3.887279e-18
3.8860115e-18
3.8852341e-18
3.8847838e-18
3.8845582e-18
3.8844997e-18
3.8845909e-18
3.884862e-18
3.8854152e-18
3.8885306e-18
3.8865001e-18
3.8852341e-18
3.8844583e-18
3.8840098e-18
3.8837866e-18
3.8837316e-18
3.8838282e-18
3.8841067e-18
3.8846671e-18
3.8880774e-18
3.8860481e-18
3.8847838e-18
3.8840098e-18
3.8835631e-18
3.883342e-18
3.8832897e-18
3.8833899e-18
3.8836723e-18
3.8842359e-18
3.8878477e-18
3.8858201e-18
3.8845582e-18
3.8837866e-18
3.883342e-18
3.8831229e-18
3.8830727e-18
3.8831751e-18
3.8834598e-18
3.8840248e-18
3.8877817e-18
3.8857575e-18
3.8844997e-18
3.8837316e-18
3.8832897e-18
3.8830727e-18
3.8830242e-18
3.8831281e-18
3.883414e-18
3.8839798e-18
3.8878582e-18
3.8858413e-18
3.8845909e-18
3.8838282e-18
3.8833899e-18
3.8831751e-18
3.8831281e-18
3.8832331e-18
3.8835199e-18
3.8840862e-18
3.8880977e-18
3.8860994e-18
3.884862e-18
3.8841067e-18
3.8836723e-18
3.8834598e-18
3.883414e-18
3.8835199e-18
3.8838073e-18
3.8843743e-18
3.8885789e-18
3.8866342e-18
3.8854152e-18
3.8846671e-18
3.8842359e-18
3.8840248e-18
3.8839798e-18
3.8840862e-18
3.8843743e-18
3.8849428e-18
7.063313e-18
7.0597481e-18
7.057517e-18
7.0561443e-18
7.0553455e-18
7.05494e-18
7.0548227e-18
7.054955e-18
7.0553699e-18
7.0561972e-18
7.0597481e-18
7.0561948e-18
7.0539682e-18
7.052598e-18
7.0518013e-18
7.0513989e-18
7.0512875e-18
7.0514329e-18
7.0518811e-18
7.0528049e-18
7.057517e-18
7.0539682e-18
7.051745e-18
7.0503774e-18
7.0495837e-18
7.0491856e-18
7.0490815e-18
7.0492402e-18
7.0497118e-18
7.0506685e-18
7.0561443e-18
7.052598e-18
7.0503774e-18
7.0490127e-18
7.0482221e-18
7.0478282e-18
7.0477305e-18
7.047899e-18
7.0483837e-18
7.0493534e-18
7.0553455e-18
7.0518013e-18
7.0495837e-18
7.0482221e-18
7.0474349e-18
7.0470448e-18
7.046952e-18
7.0471267e-18
7.0476186e-18
7.0485939e-18
7.05494e-18
7.0513989e-18
7.0491856e-18
7.0478282e-18
7.0470448e-18
7.0466583e-18
7.0465692e-18
7.0467479e-18
7.0472437e-18
7.0482216e-18
7.0548227e-18
7.0512875e-18
7.0490815e-18
7.0477305e-18
7.046952e-18
7.0465692e-18
7.0464831e-18
7.0466645e-18
7.0471626e-18
7.0481419e-18
7.054955e-18
7.0514329e-18
7.0492402e-18
7.047899e-18
7.0471267e-18
7.0467479e-18
7.0466645e-18
7.0468479e-18
7.0473475e-18
7.0483277e-18
7.0553699e-18
7.0518811e-18
7.0497118e-18
7.0483837e-18
7.0476186e-18
7.0472437e-18
7.0471626e-18
7.0473475e-18
7.0478483e-18
7.0488297e-18
7.0561972e-18
7.0528049e-18
7.0506685e-18
7.0493534e-18
7.0485939e-18
7.0482216e-18
7.0481419e-18
7.0483277e-18
7.0488297e-18
7.0498137e-18
1.2936887e-17
1.2930605e-17
1.2926657e-17
1.2924221e-17
1.2922801e-17
1.2922079e-17
1.2921869e-17
1.29221e-17
1.2922825e-17
1.292426e-17
1.2930605e-17
1.2924344e-17
1.2920404e-17
1.2917972e-17
1.2916556e-17
1.2915839e-17
1.291564e-17
1.2915894e-17
1.291668e-17
1.291829e-17
1.2926657e-17
1.2920404e-17
1.291647e-17
1.2914043e-17
1.2912632e-17
1.2911923e-17
1.2911737e-17
1.2912015e-17
1.2912843e-17
1.2914513e-17
1.2924221e-17
1.2917972e-17
1.2914043e-17
1.2911621e-17
1.2910216e-17
1.2909515e-17
1.290934e-17
1.2909636e-17
1.2910488e-17
1.2912181e-17
1.2922801e-17
1.2916556e-17
1.2912632e-17
1.2910216e-17
1.2908816e-17
1.2908122e-17
1.2907956e-17
1.2908264e-17
1.2909128e-17
1.2910831e-17
1.2922079e-17
1.2915839e-17
1.2911923e-17
1.2909515e-17
1.2908122e-17
1.2907434e-17
1.2907275e-17
1.2907589e-17
1.2908461e-17
1.2910169e-17
1.2921869e-17
1.291564e-17
1.2911737e-17
1.290934e-17
1.2907956e-17
1.2907275e-17
1.2907121e-17
1.290744e-17
1.2908316e-17
1.2910027e-17
1.29221e-17
1.2915894e-17
1.2912015e-17
1.2909636e-17
1.2908264e-17
1.2907589e-17
1.290744e-17
1.2907764e-17
1.2908642e-17
1.2910355e-17
1.2922825e-17
1.291668e-17
1.2912843e-17
1.2910488e-17
1.2909128e-17
1.2908461e-17
1.2908316e-17
1.2908642e-17
1.2909523e-17
1.2911237e-17
1.292426e-17
1.291829e-17
1.2914513e-17
1.2912181e-17
1.2910831e-17
1.2910169e-17
1.2910027e-17
1.2910355e-17
1.2911237e-17
1.2912956e-17
2.3917338e-17
2.3906171e-17
2.3899124e-17
2.3894763e-17
2.3892215e-17
2.3890918e-17
2.3890538e-17
2.3890945e-17
2.3892224e-17
2.3894736e-17
2.3906171e-17
2.3895041e-17
2.3888007e-17
2.3883654e-17
2.3881113e-17
2.3879826e-17
2.3879465e-17
2.3879916e-17
2.3881305e-17
2.3884137e-17
2.3899124e-17
2.3888007e-17
2.3880984e-17
2.3876639e-17
2.3874109e-17
2.3872835e-17
2.3872499e-17
2.3872993e-17
2.3874459e-17
2.3877401e-17
2.3894763e-17
2.3883654e-17
2.3876639e-17
2.3872304e-17
2.3869783e-17
2.3868524e-17
2.3868208e-17
2.3868735e-17
2.3870245e-17
2.3873229e-17
2.3892215e-17
2.3881113e-17
2.3874109e-17
2.3869783e-17
2.3867273e-17
2.3866027e-17
2.3865727e-17
2.3866274e-17
2.3867808e-17
2.387081e-17
2.3890918e-17
2.3879826e-17
2.3872835e-17
2.3868524e-17
2.3866027e-17
2.3864792e-17
2.3864505e-17
2.3865065e-17
2.3866611e-17
2.3869623e-17
2.3890538e-17
2.3879465e-17
2.3872499e-17
2.3868208e-17
2.3865727e-17
2.3864505e-17
2.3864227e-17
2.3864796e-17
2.386635e-17
2.3869366e-17
2.3890945e-17
2.3879916e-17
2.3872993e-17
2.3868735e-17
2.3866274e-17
2.3865065e-17
2.3864796e-17
2.3865372e-17
2.386693e-17
2.386995e-17
2.3892224e-17
2.3881305e-17
2.3874459e-17
2.3870245e-17
2.3867808e-17
2.3866611e-17
2.386635e-17
2.386693e-17
2.3868493e-17
2.3871516e-17
2.3894736e-17
2.3884137e-17
2.3877401e-17
2.3873229e-17
2.387081e-17
2.3869623e-17
2.3869366e-17
2.386995e-17
2.3871516e-17
2.3874546e-17
4.4633411e-17
4.4613384e-17
4.4600693e-17
4.4592817e-17
4.4588209e-17
4.4585858e-17
4.4585166e-17
4.4585889e-17
4.4588166e-17
4.4592604e-17
4.4613384e-17
4.4593422e-17
4.4580755e-17
4.4572893e-17
4.4568297e-17
4.4565965e-17
4.4565308e-17
4.4566112e-17
4.4568592e-17
4.457362e-17
4.4600693e-17
4.4580755e-17
4.4568107e-17
4.4560262e-17
4.4555683e-17
4.4553376e-17
4.4552764e-17
4.4553648e-17
4.455627e-17
4.4561499e-17
4.4592817e-17
4.4572893e-17
4.4560262e-17
4.4552432e-17
4.4547872e-17
4.4545591e-17
4.4545017e-17
4.4545961e-17
4.4548663e-17
4.4553971e-17
4.4588209e-17
4.4568297e-17
4.4555683e-17
4.4547872e-17
4.4543332e-17
4.4541074e-17
4.454053e-17
4.4541512e-17
4.4544257e-17
4.4549599e-17
4.4585858e-17
4.4565965e-17
4.4553376e-17
4.4545591e-17
4.4541074e-17
4.4538838e-17
4.4538316e-17
4.4539322e-17
4.4542091e-17
4.454745e-17
4.4585166e-17
4.4565308e-17
4.4552764e-17
4.4545017e-17
4.454053e-17
4.4538316e-17
4.4537812e-17
4.4538834e-17
4.4541617e-17
4.4546984e-17
4.4585889e-17
4.4566112e-17
4.4553648e-17
4.4545961e-17
4.4541512e-17
4.4539322e-17
4.4538834e-17
4.4539868e-17
4.454266e-17
4.4548033e-17
4.4588166e-17
4.4568592e-17
4.455627e-17
4.4548663e-17
4.4544257e-17
4.4542091e-17
4.4541617e-17
4.454266e-17
4.4545459e-17
4.4550838e-17
4.4592604e-17
4.457362e-17
4.4561499e-17
4.4553971e-17
4.4549599e-17
4.454745e-17
4.4546984e-17
4.4548033e-17
4.4550838e-17
4.4556231e-17
8.4075571e-17
8.4039336e-17
8.401628e-17
8.4001933e-17
8.3993522e-17
8.3989227e-17
8.3987954e-17
8.3989254e-17
8.3993343e-17
8.4001254e-17
8.4039336e-17
8.4003217e-17
8.3980205e-17
8.3965884e-17
8.3957496e-17
8.3953234e-17
8.3952027e-17
8.3953475e-17
8.3957943e-17
8.3966951e-17
8.401628e-17
8.3980205e-17
8.3957228e-17
8.3942935e-17
8.3934579e-17
8.3930366e-17
8.3929241e-17
8.393084e-17
8.393557e-17
8.3944953e-17
8.4001933e-17
8.3965884e-17
8.3942935e-17
8.3928673e-17
8.3920352e-17
8.3916185e-17
8.3915133e-17
8.391684e-17
8.392172e-17
8.3931249e-17
8.3993522e-17
8.3957496e-17
8.3934579e-17
8.3920352e-17
8.3912067e-17
8.3907944e-17
8.3906946e-17
8.3908724e-17
8.3913685e-17
8.3923277e-17
8.3989227e-17
8.3953234e-17
8.3930366e-17
8.3916185e-17
8.3907944e-17
8.390386e-17
8.3902904e-17
8.3904727e-17
8.3909732e-17
8.3919354e-17
8.3987954e-17
8.3952027e-17
8.3929241e-17
8.3915133e-17
8.3906946e-17
8.3902904e-17
8.3901981e-17
8.3903835e-17
8.3908865e-17
8.3918503e-17
8.3989254e-17
8.3953475e-17
8.393084e-17
8.391684e-17
8.3908724e-17
8.3904727e-17
8.3903835e-17
8.390571e-17
8.3910757e-17
8.3920405e-17
8.3993343e-17
8.3957943e-17
8.393557e-17
8.392172e-17
8.3913685e-17
8.3909732e-17
8.3908865e-17
8.3910757e-17
8.3915816e-17
8.3925476e-17
8.4001254e-17
8.3966951e-17
8.3944953e-17
8.3931249e-17
8.3923277e-17
8.3919354e-17
8.3918503e-17
8.3920405e-17
8.3925476e-17
8.3935162e-17
1.5985861e-16
1.5979247e-16
1.5975022e-16
1.5972385e-16
1.5970837e-16
1.5970045e-16
1.596981e-16
1.5970045e-16
1.5970786e-16
1.5972209e-16
1.5979247e-16
1.5972654e-16
1.5968437e-16
1.5965805e-16
1.5964261e-16
1.5963476e-16
1.5963252e-16
1.5963516e-16
1.5964328e-16
1.5965957e-16
1.5975022e-16
1.5968437e-16
1.5964226e-16
1.59616e-16
1.5960062e-16
1.5959285e-16
1.5959077e-16
1.5959369e-16
1.596023e-16
1.5961929e-16
1.5972385e-16
1.5965805e-16
1.59616e-16
1.5958979e-16
1.5957447e-16
1.595668e-16
1.5956485e-16
1.5956797e-16
1.5957687e-16
1.5959413e-16
1.5970837e-16
1.5964261e-16
1.5960062e-16
1.5957447e-16
1.5955923e-16
1.5955163e-16
1.5954979e-16
1.5955304e-16
1.5956209e-16
1.5957947e-16
1.5970045e-16
1.5963476e-16
1.5959285e-16
1.595668e-16
1.5955163e-16
1.5954411e-16
1.5954234e-16
1.5954568e-16
1.5955481e-16
1.5957225e-16
1.596981e-16
1.5963252e-16
1.5959077e-16
1.5956485e-16
1.5954979e-16
1.5954234e-16
1.5954064e-16
1.5954403e-16
1.5955321e-16
1.5957068e-16
1.5970045e-16
1.5963516e-16
1.5959369e-16
1.5956797e-16
1.5955304e-16
1.5954568e-16
1.5954403e-16
1.5954747e-16
1.5955668e-16
1.5957416e-16
1.5970786e-16
1.5964328e-16
1.596023e-16
1.5957687e-16
1.5956209e-16
1.5955481e-16
1.5955321e-16
1.5955668e-16
1.5956591e-16
1.5958342e-16
1.5972209e-16
1.5965957e-16
1.5961929e-16
1.5959413e-16
1.5957947e-16
1.5957225e-16
1.5957068e-16
1.5957416e-16
1.5958342e-16
1.5960097e-16
3.0679479e-16
3.0667301e-16
3.065949e-16
3.0654604e-16
3.0651729e-16
3.0650258e-16
3.0649817e-16
3.0650248e-16
3.0651604e-16
3.0654187e-16
3.0667301e-16
3.0655162e-16
3.0647366e-16
3.0642488e-16
3.0639621e-16
3.0638162e-16
3.0637745e-16
3.0638228e-16
3.0639718e-16
3.0642691e-16
3.065949e-16
3.0647366e-16
3.0639582e-16
3.0634714e-16
3.0631858e-16
3.0630415e-16
3.0630028e-16
3.0630564e-16
3.0632148e-16
3.0635253e-16
3.0654604e-16
3.0642488e-16
3.0634714e-16
3.0629857e-16
3.0627013e-16
3.0625587e-16
3.0625225e-16
3.06258e-16
3.0627436e-16
3.0630594e-16
3.0651729e-16
3.0639621e-16
3.0631858e-16
3.0627013e-16
3.0624183e-16
3.0622772e-16
3.0622428e-16
3.0623029e-16
3.0624694e-16
3.0627874e-16
3.0650258e-16
3.0638162e-16
3.0630415e-16
3.0625587e-16
3.0622772e-16
3.0621374e-16
3.0621046e-16
3.0621662e-16
3.0623343e-16
3.0626533e-16
3.0649817e-16
3.0637745e-16
3.0630028e-16
3.0625225e-16
3.0622428e-16
3.0621046e-16
3.062073e-16
3.0621357e-16
3.0623046e-16
3.0626242e-16
3.0650248e-16
3.0638228e-16
3.0630564e-16
3.06258e-16
3.0623029e-16
3.0621662e-16
3.0621357e-16
3.0621991e-16
3.0623687e-16
3.0626886e-16
3.0651604e-16
3.0639718e-16
3.0632148e-16
3.0627436e-16
3.0624694e-16
3.0623343e-16
3.0623046e-16
3.0623687e-16
3.0625386e-16
3.062859e-16
3.0654187e-16
3.0642691e-16
3.0635253e-16
3.0630594e-16
3.0627874e-16
3.0626533e-16
3.0626242e-16
3.0626886e-16
3.062859e-16
3.0631801e-16
5.942785e-16
5.9405233e-16
5.939067e-16
5.9381535e-16
5.9376152e-16
5.9373393e-16
5.9372564e-16
5.937336e-16
5.9375863e-16
5.9380592e-16
5.9405233e-16
5.9382686e-16
5.9368151e-16
5.9359032e-16
5.9353664e-16
5.9350927e-16
5.9350143e-16
5.9351039e-16
5.9353798e-16
5.9359272e-16
5.939067e-16
5.9368151e-16
5.9353637e-16
5.9344537e-16
5.933919e-16
5.9336485e-16
5.9335757e-16
5.9336755e-16
5.9339692e-16
5.9345419e-16
5.9381535e-16
5.9359032e-16
5.9344537e-16
5.9335457e-16
5.9330133e-16
5.932746e-16
5.932678e-16
5.9327851e-16
5.9330889e-16
5.9336716e-16
5.9376152e-16
5.9353664e-16
5.933919e-16
5.9330133e-16
5.9324834e-16
5.932219e-16
5.9321546e-16
5.9322665e-16
5.9325758e-16
5.9331627e-16
5.9373393e-16
5.9350927e-16
5.9336485e-16
5.932746e-16
5.932219e-16
5.9319572e-16
5.9318957e-16
5.9320106e-16
5.9323228e-16
5.9329118e-16
5.9372564e-16
5.9350143e-16
5.9335757e-16
5.932678e-16
5.9321546e-16
5.9318957e-16
5.9318364e-16
5.9319534e-16
5.9322673e-16
5.9328573e-16
5.937336e-16
5.9351039e-16
5.9336755e-16
5.9327851e-16
5.9322665e-16
5.9320106e-16
5.9319534e-16
5.9320718e-16
5.9323868e-16
5.9329775e-16
5.9375863e-16
5.9353798e-16
5.9339692e-16
5.9330889e-16
5.9325758e-16
5.9323228e-16
5.9322673e-16
5.9323868e-16
5.9327027e-16
5.9332941e-16
5.9380592e-16
5.9359272e-16
5.9345419e-16
5.9336716e-16
5.9331627e-16
5.9329118e-16