/*--------------------------------*- C++ -*----------------------------------*\
| =========                 |                                                 |
| \\      /  F ield         | OpenFOAM: The Open Source CFD Toolbox           |
|  \\    /   O peration     | Version:  dev                                   |
|   \\  /    A nd           | Web:      www.OpenFOAM.org                      |
|    \\/     M anipulation  |                                                 |
\*---------------------------------------------------------------------------*/
FoamFile
{
    version     2.0;
    format      ascii;
    class       volScalarField;
    location    "96.995";
    object      A_0;
}
// * * * * * * * * * * * * * * * * * * * * * * * * * * * * * * * * * * * * * //

dimensions      [0 0 0 0 1 0 0];

internalField   nonuniform List<scalar> 
10000
(
2.3548822e-21
2.3529781e-21
2.3519078e-21
2.3512755e-21
2.3509166e-21
2.3507384e-21
2.3506922e-21
2.3507666e-21
2.3509925e-21
2.3514313e-21
2.3529781e-21
2.3510811e-21
2.3500133e-21
2.3493822e-21
2.3490243e-21
2.3488473e-21
2.3488033e-21
2.3488826e-21
2.3491207e-21
2.349594e-21
2.3519078e-21
2.3500133e-21
2.3489471e-21
2.3483173e-21
2.3479606e-21
2.3477853e-21
2.3477441e-21
2.3478283e-21
2.348075e-21
2.3485604e-21
2.3512755e-21
2.3493822e-21
2.3483173e-21
2.3476887e-21
2.3473333e-21
2.3471596e-21
2.3471208e-21
2.3472087e-21
2.3474603e-21
2.3479505e-21
2.3509166e-21
2.3490243e-21
2.3479606e-21
2.3473333e-21
2.3469791e-21
2.3468069e-21
2.34677e-21
2.3468603e-21
2.3471146e-21
2.3476068e-21
2.3507384e-21
2.3488473e-21
2.3477853e-21
2.3471596e-21
2.3468069e-21
2.3466361e-21
2.3466005e-21
2.3466923e-21
2.3469481e-21
2.3474413e-21
2.3506922e-21
2.3488033e-21
2.3477441e-21
2.3471208e-21
2.34677e-21
2.3466005e-21
2.3465662e-21
2.346659e-21
2.3469157e-21
2.3474094e-21
2.3507666e-21
2.3488826e-21
2.3478283e-21
2.3472087e-21
2.3468603e-21
2.3466923e-21
2.346659e-21
2.3467526e-21
2.3470099e-21
2.347504e-21
2.3509925e-21
2.3491207e-21
2.348075e-21
2.3474603e-21
2.3471146e-21
2.3469481e-21
2.3469157e-21
2.3470099e-21
2.3472677e-21
2.3477624e-21
2.3514313e-21
2.349594e-21
2.3485604e-21
2.3479505e-21
2.3476068e-21
2.3474413e-21
2.3474094e-21
2.347504e-21
2.3477624e-21
2.3482585e-21
7.6712044e-21
7.6652465e-21
7.6617948e-21
7.6597508e-21
7.6585897e-21
7.6580127e-21
7.6578625e-21
7.6581021e-21
7.658832e-21
7.660299e-21
7.6652465e-21
7.6593101e-21
7.6558663e-21
7.6538263e-21
7.6526683e-21
7.6520953e-21
7.6519524e-21
7.6522077e-21
7.6529773e-21
7.6545575e-21
7.6617948e-21
7.6558663e-21
7.6524279e-21
7.650392e-21
7.6492379e-21
7.6486703e-21
7.6485364e-21
7.648808e-21
7.6496055e-21
7.6512249e-21
7.6597508e-21
7.6538263e-21
7.650392e-21
7.6483598e-21
7.6472099e-21
7.6466476e-21
7.6465216e-21
7.646805e-21
7.6476186e-21
7.6492534e-21
7.6585897e-21
7.6526683e-21
7.6492379e-21
7.6472099e-21
7.6460641e-21
7.6455066e-21
7.6453866e-21
7.6456777e-21
7.6465e-21
7.6481416e-21
7.6580127e-21
7.6520953e-21
7.6486703e-21
7.6466476e-21
7.6455066e-21
7.6449535e-21
7.6448381e-21
7.6451342e-21
7.6459613e-21
7.647606e-21
7.6578625e-21
7.6519524e-21
7.6485364e-21
7.6465216e-21
7.6453866e-21
7.6448381e-21
7.6447265e-21
7.6450258e-21
7.6458558e-21
7.6475023e-21
7.6581021e-21
7.6522077e-21
7.648808e-21
7.646805e-21
7.6456777e-21
7.6451342e-21
7.6450258e-21
7.6453277e-21
7.6461596e-21
7.6478074e-21
7.658832e-21
7.6529773e-21
7.6496055e-21
7.6476186e-21
7.6465e-21
7.6459613e-21
7.6458558e-21
7.6461596e-21
7.6469933e-21
7.648643e-21
7.660299e-21
7.6545575e-21
7.6512249e-21
7.6492534e-21
7.6481416e-21
7.647606e-21
7.6475023e-21
7.6478074e-21
7.648643e-21
7.6502975e-21
1.4993831e-20
1.4982579e-20
1.4975952e-20
1.4972015e-20
1.4969775e-20
1.4968661e-20
1.4968369e-20
1.4968826e-20
1.4970227e-20
1.4973137e-20
1.4982579e-20
1.4971368e-20
1.4964755e-20
1.4960825e-20
1.4958592e-20
1.4957485e-20
1.4957207e-20
1.4957695e-20
1.4959174e-20
1.4962304e-20
1.4975952e-20
1.4964755e-20
1.4958153e-20
1.4954231e-20
1.4952005e-20
1.4950909e-20
1.4950648e-20
1.4951168e-20
1.4952701e-20
1.4955908e-20
1.4972015e-20
1.4960825e-20
1.4954231e-20
1.4950316e-20
1.4948098e-20
1.4947012e-20
1.4946767e-20
1.494731e-20
1.4948874e-20
1.4952111e-20
1.4969775e-20
1.4958592e-20
1.4952005e-20
1.4948098e-20
1.4945888e-20
1.4944811e-20
1.4944578e-20
1.4945136e-20
1.4946717e-20
1.4949967e-20
1.4968661e-20
1.4957485e-20
1.4950909e-20
1.4947012e-20
1.4944811e-20
1.4943744e-20
1.4943519e-20
1.4944087e-20
1.4945677e-20
1.4948933e-20
1.4968369e-20
1.4957207e-20
1.4950648e-20
1.4946767e-20
1.4944578e-20
1.4943519e-20
1.4943302e-20
1.4943876e-20
1.4945472e-20
1.4948731e-20
1.4968826e-20
1.4957695e-20
1.4951168e-20
1.494731e-20
1.4945136e-20
1.4944087e-20
1.4943876e-20
1.4944455e-20
1.4946055e-20
1.4949316e-20
1.4970227e-20
1.4959174e-20
1.4952701e-20
1.4948874e-20
1.4946717e-20
1.4945677e-20
1.4945472e-20
1.4946055e-20
1.4947658e-20
1.4950923e-20
1.4973137e-20
1.4962304e-20
1.4955908e-20
1.4952111e-20
1.4949967e-20
1.4948933e-20
1.4948731e-20
1.4949316e-20
1.4950923e-20
1.4954198e-20
2.6317303e-20
2.6298212e-20
2.6286848e-20
2.6280072e-20
2.6276211e-20
2.6274286e-20
2.6273778e-20
2.6274556e-20
2.6276948e-20
2.628198e-20
2.6298212e-20
2.6279189e-20
2.626785e-20
2.6261087e-20
2.6257236e-20
2.6255325e-20
2.6254842e-20
2.6255673e-20
2.62582e-20
2.6263619e-20
2.6286848e-20
2.626785e-20
2.6256528e-20
2.6249779e-20
2.6245941e-20
2.6244048e-20
2.6243595e-20
2.6244481e-20
2.6247103e-20
2.6252656e-20
2.6280072e-20
2.6261087e-20
2.6249779e-20
2.6243042e-20
2.6239218e-20
2.6237343e-20
2.6236917e-20
2.6237843e-20
2.624052e-20
2.6246125e-20
2.6276211e-20
2.6257236e-20
2.6245941e-20
2.6239218e-20
2.6235408e-20
2.6233549e-20
2.6233144e-20
2.6234096e-20
2.6236802e-20
2.624243e-20
2.6274286e-20
2.6255325e-20
2.6244048e-20
2.6237343e-20
2.6233549e-20
2.6231706e-20
2.6231316e-20
2.6232285e-20
2.6235007e-20
2.6240646e-20
2.6273778e-20
2.6254842e-20
2.6243595e-20
2.6236917e-20
2.6233144e-20
2.6231316e-20
2.6230938e-20
2.6231919e-20
2.623465e-20
2.6240295e-20
2.6274556e-20
2.6255673e-20
2.6244481e-20
2.6237843e-20
2.6234096e-20
2.6232285e-20
2.6231919e-20
2.6232908e-20
2.6235646e-20
2.6241295e-20
2.6276948e-20
2.62582e-20
2.6247103e-20
2.624052e-20
2.6236802e-20
2.6235007e-20
2.623465e-20
2.6235646e-20
2.623839e-20
2.6244045e-20
2.628198e-20
2.6263619e-20
2.6252656e-20
2.6246125e-20
2.624243e-20
2.6240646e-20
2.6240295e-20
2.6241295e-20
2.6244045e-20
2.6249717e-20
4.4887285e-20
4.4855821e-20
4.4836947e-20
4.4825657e-20
4.4819209e-20
4.481599e-20
4.4815132e-20
4.4816408e-20
4.4820347e-20
4.4828654e-20
4.4855821e-20
4.4824466e-20
4.4805634e-20
4.4794364e-20
4.4787934e-20
4.4784738e-20
4.4783921e-20
4.4785288e-20
4.4789456e-20
4.479842e-20
4.4836947e-20
4.4805634e-20
4.4786831e-20
4.4775584e-20
4.4769176e-20
4.476601e-20
4.4765245e-20
4.4766705e-20
4.4771034e-20
4.4780225e-20
4.4825657e-20
4.4794364e-20
4.4775584e-20
4.4764358e-20
4.4757973e-20
4.4754838e-20
4.4754118e-20
4.4755646e-20
4.4760067e-20
4.4769346e-20
4.4819209e-20
4.4787934e-20
4.4769176e-20
4.4757973e-20
4.4751611e-20
4.4748503e-20
4.4747818e-20
4.4749391e-20
4.4753862e-20
4.476318e-20
4.481599e-20
4.4784738e-20
4.476601e-20
4.4754838e-20
4.4748503e-20
4.4745421e-20
4.4744762e-20
4.4746363e-20
4.4750862e-20
4.4760197e-20
4.4815132e-20
4.4783921e-20
4.4765245e-20
4.4754118e-20
4.4747818e-20
4.4744762e-20
4.4744124e-20
4.4745744e-20
4.4750259e-20
4.4759605e-20
4.4816408e-20
4.4785288e-20
4.4766705e-20
4.4755646e-20
4.4749391e-20
4.4746363e-20
4.4745744e-20
4.4747378e-20
4.4751904e-20
4.4761258e-20
4.4820347e-20
4.4789456e-20
4.4771034e-20
4.4760067e-20
4.4753862e-20
4.4750862e-20
4.4750259e-20
4.4751904e-20
4.475644e-20
4.4765804e-20
4.4828654e-20
4.479842e-20
4.4780225e-20
4.4769346e-20
4.476318e-20
4.4760197e-20
4.4759605e-20
4.4761258e-20
4.4765804e-20
4.4775196e-20
7.6241688e-20
7.6190065e-20
7.6158917e-20
7.614022e-20
7.612952e-20
7.6124169e-20
7.6122727e-20
7.6124805e-20
7.6131234e-20
7.6144756e-20
7.6190065e-20
7.613862e-20
7.6107539e-20
7.6088878e-20
7.6078207e-20
7.6072893e-20
7.6071521e-20
7.6073753e-20
7.6080568e-20
7.60952e-20
7.6158917e-20
7.6107539e-20
7.6076507e-20
7.6057883e-20
7.6047248e-20
7.6041986e-20
7.6040701e-20
7.604309e-20
7.6050177e-20
7.6065191e-20
7.614022e-20
7.6088878e-20
7.6057883e-20
7.6039293e-20
7.6028698e-20
7.6023487e-20
7.6022278e-20
7.6024781e-20
7.6032023e-20
7.6047186e-20
7.612952e-20
7.6078207e-20
7.6047248e-20
7.6028698e-20
7.6018143e-20
7.6012977e-20
7.6011826e-20
7.6014404e-20
7.6021731e-20
7.6036959e-20
7.6124169e-20
7.6072893e-20
7.6041986e-20
7.6023487e-20
7.6012977e-20
7.6007854e-20
7.6006748e-20
7.6009372e-20
7.6016746e-20
7.6032005e-20
7.6122727e-20
7.6071521e-20
7.6040701e-20
7.6022278e-20
7.6011826e-20
7.6006748e-20
7.6005677e-20
7.6008334e-20
7.6015734e-20
7.603101e-20
7.6124805e-20
7.6073753e-20
7.604309e-20
7.6024781e-20
7.6014404e-20
7.6009372e-20
7.6008334e-20
7.6011014e-20
7.6018433e-20
7.6033722e-20
7.6131234e-20
7.6080568e-20
7.6050177e-20
7.6032023e-20
7.6021731e-20
7.6016746e-20
7.6015734e-20
7.6018433e-20
7.6025869e-20
7.6041174e-20
7.6144756e-20
7.60952e-20
7.6065191e-20
7.6047186e-20
7.6036959e-20
7.6032005e-20
7.603101e-20
7.6033722e-20
7.6041174e-20
7.6056525e-20
1.3006376e-19
1.2997873e-19
1.2992716e-19
1.2989611e-19
1.298783e-19
1.2986937e-19
1.2986695e-19
1.2987034e-19
1.2988085e-19
1.2990284e-19
1.2997873e-19
1.2989399e-19
1.2984254e-19
1.2981154e-19
1.2979378e-19
1.2978492e-19
1.297826e-19
1.2978625e-19
1.2979742e-19
1.298213e-19
1.2992716e-19
1.2984254e-19
1.2979116e-19
1.2976022e-19
1.2974252e-19
1.2973375e-19
1.2973158e-19
1.297355e-19
1.2974713e-19
1.2977165e-19
1.2989611e-19
1.2981154e-19
1.2976022e-19
1.2972935e-19
1.2971171e-19
1.2970302e-19
1.2970099e-19
1.2970509e-19
1.2971698e-19
1.2974176e-19
1.298783e-19
1.2979378e-19
1.2974252e-19
1.2971171e-19
1.2969414e-19
1.2968553e-19
1.2968359e-19
1.2968783e-19
1.2969986e-19
1.2972475e-19
1.2986937e-19
1.2978492e-19
1.2973375e-19
1.2970302e-19
1.2968553e-19
1.2967699e-19
1.2967513e-19
1.2967944e-19
1.2969155e-19
1.2971649e-19
1.2986695e-19
1.297826e-19
1.2973158e-19
1.2970099e-19
1.2968359e-19
1.2967513e-19
1.2967333e-19
1.2967769e-19
1.2968985e-19
1.2971482e-19
1.2987034e-19
1.2978625e-19
1.297355e-19
1.2970509e-19
1.2968783e-19
1.2967944e-19
1.2967769e-19
1.296821e-19
1.2969429e-19
1.2971928e-19
1.2988085e-19
1.2979742e-19
1.2974713e-19
1.2971698e-19
1.2969986e-19
1.2969155e-19
1.2968985e-19
1.2969429e-19
1.297065e-19
1.2973152e-19
1.2990284e-19
1.298213e-19
1.2977165e-19
1.2974176e-19
1.2972475e-19
1.2971649e-19
1.2971482e-19
1.2971928e-19
1.2973152e-19
1.2975661e-19
2.2353637e-19
2.2339533e-19
2.2330939e-19
2.2325747e-19
2.2322763e-19
2.2321264e-19
2.2320852e-19
2.2321409e-19
2.2323138e-19
2.2326733e-19
2.2339533e-19
2.2325478e-19
2.2316901e-19
2.2311719e-19
2.2308743e-19
2.2307255e-19
2.2306863e-19
2.2307464e-19
2.2309305e-19
2.2313221e-19
2.2330939e-19
2.2316901e-19
2.2308338e-19
2.2303166e-19
2.23002e-19
2.2298727e-19
2.2298361e-19
2.2299007e-19
2.2300926e-19
2.2304953e-19
2.2325747e-19
2.2311719e-19
2.2303166e-19
2.2298004e-19
2.2295049e-19
2.2293591e-19
2.2293246e-19
2.2293925e-19
2.2295888e-19
2.2299959e-19
2.2322763e-19
2.2308743e-19
2.23002e-19
2.2295049e-19
2.2292106e-19
2.2290661e-19
2.2290332e-19
2.2291033e-19
2.2293021e-19
2.229711e-19
2.2321264e-19
2.2307255e-19
2.2298727e-19
2.2293591e-19
2.2290661e-19
2.2289228e-19
2.2288912e-19
2.2289626e-19
2.2291627e-19
2.2295725e-19
2.2320852e-19
2.2306863e-19
2.2298361e-19
2.2293246e-19
2.2290332e-19
2.2288912e-19
2.2288607e-19
2.228933e-19
2.2291339e-19
2.2295441e-19
2.2321409e-19
2.2307464e-19
2.2299007e-19
2.2293925e-19
2.2291033e-19
2.2289626e-19
2.228933e-19
2.2290059e-19
2.2292074e-19
2.229618e-19
2.2323138e-19
2.2309305e-19
2.2300926e-19
2.2295888e-19
2.2293021e-19
2.2291627e-19
2.2291339e-19
2.2292074e-19
2.2294093e-19
2.2298204e-19
2.2326733e-19
2.2313221e-19
2.2304953e-19
2.2299959e-19
2.229711e-19
2.2295725e-19
2.2295441e-19
2.229618e-19
2.2298204e-19
2.2302327e-19
3.8748431e-19
3.8724846e-19
3.8710408e-19
3.8701658e-19
3.8696619e-19
3.8694084e-19
3.869338e-19
3.8694301e-19
3.8697167e-19
3.8703086e-19
3.8724846e-19
3.8701341e-19
3.8686934e-19
3.86782e-19
3.8673174e-19
3.8670657e-19
3.8669988e-19
3.8670985e-19
3.8674042e-19
3.8680515e-19
3.8710408e-19
3.8686934e-19
3.8672548e-19
3.8663832e-19
3.8658823e-19
3.8656332e-19
3.8655705e-19
3.865678e-19
3.8659972e-19
3.8666635e-19
3.8701658e-19
3.86782e-19
3.8663832e-19
3.8655132e-19
3.8650143e-19
3.8647676e-19
3.8647087e-19
3.8648218e-19
3.8651487e-19
3.8658224e-19
3.8696619e-19
3.8673174e-19
3.8658823e-19
3.8650143e-19
3.8645173e-19
3.8642729e-19
3.8642168e-19
3.8643336e-19
3.8646646e-19
3.8653416e-19
3.8694084e-19
3.8670657e-19
3.8656332e-19
3.8647676e-19
3.8642729e-19
3.8640305e-19
3.8639766e-19
3.8640957e-19
3.8644291e-19
3.8651076e-19
3.869338e-19
3.8669988e-19
3.8655705e-19
3.8647087e-19
3.8642168e-19
3.8639766e-19
3.8639245e-19
3.8640452e-19
3.8643799e-19
3.8650592e-19
3.8694301e-19
3.8670985e-19
3.865678e-19
3.8648218e-19
3.8643336e-19
3.8640957e-19
3.8640452e-19
3.864167e-19
3.8645026e-19
3.8651825e-19
3.8697167e-19
3.8674042e-19
3.8659972e-19
3.8651487e-19
3.8646646e-19
3.8644291e-19
3.8643799e-19
3.8645026e-19
3.8648389e-19
3.8655196e-19
3.8703086e-19
3.8680515e-19
3.8666635e-19
3.8658224e-19
3.8653416e-19
3.8651076e-19
3.8650592e-19
3.8651825e-19
3.8655196e-19
3.8662022e-19
6.7773064e-19
6.7733287e-19
6.7708826e-19
6.7693957e-19
6.7685375e-19
6.768105e-19
6.7679839e-19
6.7681375e-19
6.7686165e-19
6.7695992e-19
6.7733287e-19
6.7693644e-19
6.7669234e-19
6.7654392e-19
6.7645833e-19
6.7641539e-19
6.7640387e-19
6.7642055e-19
6.7647178e-19
6.7657966e-19
6.7708826e-19
6.7669234e-19
6.7644861e-19
6.7630049e-19
6.762152e-19
6.761727e-19
6.7616192e-19
6.7617994e-19
6.7623351e-19
6.7634468e-19
6.7693957e-19
6.7654392e-19
6.7630049e-19
6.7615265e-19
6.7606769e-19
6.7602561e-19
6.7601548e-19
6.7603448e-19
6.7608937e-19
6.7620183e-19
6.7685375e-19
6.7645833e-19
6.762152e-19
6.7606769e-19
6.7598306e-19
6.7594138e-19
6.7593174e-19
6.7595137e-19
6.7600699e-19
6.7612001e-19
6.768105e-19
6.7641539e-19
6.761727e-19
6.7602561e-19
6.7594138e-19
6.7590005e-19
6.7589079e-19
6.7591082e-19
6.7596683e-19
6.7608012e-19
6.7679839e-19
6.7640387e-19
6.7616192e-19
6.7601548e-19
6.7593174e-19
6.7589079e-19
6.7588183e-19
6.7590213e-19
6.7595837e-19
6.760718e-19
6.7681375e-19
6.7642055e-19
6.7617994e-19
6.7603448e-19
6.7595137e-19
6.7591082e-19
6.7590213e-19
6.7592264e-19
6.7597904e-19
6.7609257e-19
6.7686165e-19
6.7647178e-19
6.7623351e-19
6.7608937e-19
6.7600699e-19
6.7596683e-19
6.7595837e-19
6.7597904e-19
6.7603556e-19
6.7614922e-19
6.7695992e-19
6.7657966e-19
6.7634468e-19
6.7620183e-19
6.7612001e-19
6.7608012e-19
6.760718e-19
6.7609257e-19
6.7614922e-19
6.762632e-19
1.1962795e-18
1.1956028e-18
1.1951848e-18
1.1949299e-18
1.1947825e-18
1.1947081e-18
1.1946871e-18
1.194713e-18
1.1947937e-18
1.1949583e-18
1.1956028e-18
1.1949283e-18
1.1945112e-18
1.1942568e-18
1.1941098e-18
1.1940359e-18
1.1940159e-18
1.1940441e-18
1.1941307e-18
1.194312e-18
1.1951848e-18
1.1945112e-18
1.1940947e-18
1.1938408e-18
1.1936943e-18
1.1936212e-18
1.1936025e-18
1.193633e-18
1.1937237e-18
1.1939108e-18
1.1949299e-18
1.1942568e-18
1.1938408e-18
1.1935874e-18
1.1934415e-18
1.1933691e-18
1.1933515e-18
1.1933837e-18
1.1934767e-18
1.1936661e-18
1.1947825e-18
1.1941098e-18
1.1936943e-18
1.1934415e-18
1.1932961e-18
1.1932244e-18
1.1932077e-18
1.193241e-18
1.1933353e-18
1.1935257e-18
1.1947081e-18
1.1940359e-18
1.1936212e-18
1.1933691e-18
1.1932244e-18
1.1931533e-18
1.1931373e-18
1.1931713e-18
1.1932663e-18
1.1934571e-18
1.1946871e-18
1.1940159e-18
1.1936025e-18
1.1933515e-18
1.1932077e-18
1.1931373e-18
1.1931218e-18
1.1931563e-18
1.1932516e-18
1.1934427e-18
1.194713e-18
1.1940441e-18
1.193633e-18
1.1933837e-18
1.193241e-18
1.1931713e-18
1.1931563e-18
1.1931911e-18
1.1932867e-18
1.193478e-18
1.1947937e-18
1.1941307e-18
1.1937237e-18
1.1934767e-18
1.1933353e-18
1.1932663e-18
1.1932516e-18
1.1932867e-18
1.1933826e-18
1.193574e-18
1.1949583e-18
1.194312e-18
1.1939108e-18
1.1936661e-18
1.1935257e-18
1.1934571e-18
1.1934427e-18
1.193478e-18
1.193574e-18
1.1937661e-18
2.1311679e-18
2.1300064e-18
2.1292858e-18
2.1288451e-18
2.1285897e-18
2.1284606e-18
2.1284238e-18
2.1284677e-18
2.1286051e-18
2.1288831e-18
2.1300064e-18
2.1288487e-18
2.1281296e-18
2.1276897e-18
2.127435e-18
2.1273068e-18
2.1272718e-18
2.1273198e-18
2.1274675e-18
2.1277752e-18
2.1292858e-18
2.1281296e-18
2.1274116e-18
2.1269726e-18
2.1267188e-18
2.1265919e-18
2.1265592e-18
2.1266113e-18
2.1267662e-18
2.1270841e-18
2.1288451e-18
2.1276897e-18
2.1269726e-18
2.1265344e-18
2.1262816e-18
2.1261561e-18
2.1261253e-18
2.1261805e-18
2.1263394e-18
2.1266613e-18
2.1285897e-18
2.127435e-18
2.1267188e-18
2.1262816e-18
2.1260299e-18
2.1259055e-18
2.1258763e-18
2.1259334e-18
2.1260945e-18
2.1264181e-18
2.1284606e-18
2.1273068e-18
2.1265919e-18
2.1261561e-18
2.1259055e-18
2.1257822e-18
2.1257541e-18
2.1258125e-18
2.1259749e-18
2.1262993e-18
2.1284238e-18
2.1272718e-18
2.1265592e-18
2.1261253e-18
2.1258763e-18
2.1257541e-18
2.125727e-18
2.1257862e-18
2.1259493e-18
2.1262741e-18
2.1284677e-18
2.1273198e-18
2.1266113e-18
2.1261805e-18
2.1259334e-18
2.1258125e-18
2.1257862e-18
2.1258459e-18
2.1260095e-18
2.1263346e-18
2.1286051e-18
2.1274675e-18
2.1267662e-18
2.1263394e-18
2.1260945e-18
2.1259749e-18
2.1259493e-18
2.1260095e-18
2.1261735e-18
2.126499e-18
2.1288831e-18
2.1277752e-18
2.1270841e-18
2.1266613e-18
2.1264181e-18
2.1262993e-18
2.1262741e-18
2.1263346e-18
2.126499e-18
2.1268254e-18
3.8320757e-18
3.8300645e-18
3.8288113e-18
3.8280427e-18
3.8275964e-18
3.8273702e-18
3.8273053e-18
3.8273807e-18
3.8276165e-18
3.8280904e-18
3.8300645e-18
3.8280599e-18
3.8268093e-18
3.8260421e-18
3.8255969e-18
3.8253725e-18
3.8253108e-18
3.8253933e-18
3.8256475e-18
3.8261743e-18
3.8288113e-18
3.8268093e-18
3.8255606e-18
3.8247949e-18
3.8243514e-18
3.8241292e-18
3.8240716e-18
3.8241615e-18
3.8244285e-18
3.8249733e-18
3.8280427e-18
3.8260421e-18
3.8247949e-18
3.8240307e-18
3.8235889e-18
3.8233691e-18
3.823315e-18
3.8234102e-18
3.8236845e-18
3.8242364e-18
3.8275964e-18
3.8255969e-18
3.8243514e-18
3.8235889e-18
3.8231489e-18
3.8229313e-18
3.8228798e-18
3.8229785e-18
3.8232567e-18
3.8238117e-18
3.8273702e-18
3.8253725e-18
3.8241292e-18
3.8233691e-18
3.8229313e-18
3.8227156e-18
3.8226662e-18
3.822767e-18
3.8230474e-18
3.8236038e-18
3.8273053e-18
3.8253108e-18
3.8240716e-18
3.823315e-18
3.8228798e-18
3.8226662e-18
3.8226184e-18
3.8227208e-18
3.8230024e-18
3.8235596e-18
3.8273807e-18
3.8253933e-18
3.8241615e-18
3.8234102e-18
3.8229785e-18
3.822767e-18
3.8227208e-18
3.8228242e-18
3.8231066e-18
3.8236644e-18
3.8276165e-18
3.8256475e-18
3.8244285e-18
3.8236845e-18
3.8232567e-18
3.8230474e-18
3.8230024e-18
3.8231066e-18
3.8233897e-18
3.8239481e-18
3.8280904e-18
3.8261743e-18
3.8249733e-18
3.8242364e-18
3.8238117e-18
3.8236038e-18
3.8235596e-18
3.8236644e-18
3.8239481e-18
3.8245081e-18
6.954996e-18
6.9514827e-18
6.9492841e-18
6.9479317e-18
6.9471448e-18
6.9467455e-18
6.94663e-18
6.9467604e-18
6.947169e-18
6.9479839e-18
6.9514827e-18
6.9479808e-18
6.9457867e-18
6.9444366e-18
6.9436519e-18
6.9432555e-18
6.9431459e-18
6.9432892e-18
6.9437307e-18
6.9446407e-18
6.9492841e-18
6.9457867e-18
6.9435959e-18
6.9422485e-18
6.9414667e-18
6.9410745e-18
6.9409721e-18
6.9411285e-18
6.941593e-18
6.9425355e-18
6.9479317e-18
6.9444366e-18
6.9422485e-18
6.9409039e-18
6.9401251e-18
6.9397372e-18
6.939641e-18
6.939807e-18
6.9402845e-18
6.9412397e-18
6.9471448e-18
6.9436519e-18
6.9414667e-18
6.9401251e-18
6.9393496e-18
6.9389654e-18
6.9388741e-18
6.9390463e-18
6.9395308e-18
6.9404916e-18
6.9467455e-18
6.9432555e-18
6.9410745e-18
6.9397372e-18
6.9389654e-18
6.9385847e-18
6.938497e-18
6.9386731e-18
6.9391616e-18
6.9401249e-18
6.94663e-18
6.9431459e-18
6.9409721e-18
6.939641e-18
6.9388741e-18
6.938497e-18
6.9384123e-18
6.9385911e-18
6.9390817e-18
6.9400465e-18
6.9467604e-18
6.9432892e-18
6.9411285e-18
6.939807e-18
6.9390463e-18
6.9386731e-18
6.9385911e-18
6.9387717e-18
6.9392639e-18
6.9402296e-18
6.947169e-18
6.9437307e-18
6.941593e-18
6.9402845e-18
6.9395308e-18
6.9391616e-18
6.9390817e-18
6.9392639e-18
6.9397572e-18
6.940724e-18
6.9479839e-18
6.9446407e-18
6.9425355e-18
6.9412397e-18
6.9404916e-18
6.9401249e-18
6.9400465e-18
6.9402296e-18
6.940724e-18
6.9416935e-18
1.274138e-17
1.2735188e-17
1.2731297e-17
1.2728896e-17
1.2727497e-17
1.2726786e-17
1.2726578e-17
1.2726806e-17
1.272752e-17
1.2728935e-17
1.2735188e-17
1.2729016e-17
1.2725133e-17
1.2722736e-17
1.2721341e-17
1.2720635e-17
1.2720438e-17
1.2720689e-17
1.2721463e-17
1.272305e-17
1.2731297e-17
1.2725133e-17
1.2721255e-17
1.2718864e-17
1.2717473e-17
1.2716775e-17
1.2716591e-17
1.2716866e-17
1.2717681e-17
1.2719327e-17
1.2728896e-17
1.2722736e-17
1.2718864e-17
1.2716477e-17
1.2715092e-17
1.2714401e-17
1.2714229e-17
1.2714521e-17
1.271536e-17
1.2717029e-17
1.2727497e-17
1.2721341e-17
1.2717473e-17
1.2715092e-17
1.2713713e-17
1.2713029e-17
1.2712865e-17
1.2713169e-17
1.2714021e-17
1.2715699e-17
1.2726786e-17
1.2720635e-17
1.2716775e-17
1.2714401e-17
1.2713029e-17
1.2712351e-17
1.2712194e-17
1.2712505e-17
1.2713364e-17
1.2715047e-17
1.2726578e-17
1.2720438e-17
1.2716591e-17
1.2714229e-17
1.2712865e-17
1.2712194e-17
1.2712043e-17
1.2712358e-17
1.2713221e-17
1.2714907e-17
1.2726806e-17
1.2720689e-17
1.2716866e-17
1.2714521e-17
1.2713169e-17
1.2712505e-17
1.2712358e-17
1.2712677e-17
1.2713542e-17
1.2715229e-17
1.272752e-17
1.2721463e-17
1.2717681e-17
1.271536e-17
1.2714021e-17
1.2713364e-17
1.2713221e-17
1.2713542e-17
1.271441e-17
1.2716099e-17
1.2728935e-17
1.272305e-17
1.2719327e-17
1.2717029e-17
1.2715699e-17
1.2715047e-17
1.2714907e-17
1.2715229e-17
1.2716099e-17
1.2717793e-17
2.35613e-17
2.355029e-17
2.3543342e-17
2.3539043e-17
2.3536533e-17
2.3535255e-17
2.353488e-17
2.3535281e-17
2.3536542e-17
2.3539018e-17
2.355029e-17
2.3539315e-17
2.3532381e-17
2.352809e-17
2.3525586e-17
2.3524318e-17
2.3523963e-17
2.3524407e-17
2.3525776e-17
2.3528567e-17
2.3543342e-17
2.3532381e-17
2.3525457e-17
2.3521175e-17
2.351868e-17
2.3517426e-17
2.3517094e-17
2.3517582e-17
2.3519027e-17
2.3521926e-17
2.3539043e-17
2.352809e-17
2.3521175e-17
2.3516901e-17
2.3514417e-17
2.3513176e-17
2.3512866e-17
2.3513384e-17
2.3514872e-17
2.3517814e-17
2.3536533e-17
2.3525586e-17
2.351868e-17
2.3514417e-17
2.3511943e-17
2.3510715e-17
2.351042e-17
2.3510959e-17
2.3512471e-17
2.351543e-17
2.3535255e-17
2.3524318e-17
2.3517426e-17
2.3513176e-17
2.3510715e-17
2.3509498e-17
2.3509215e-17
2.3509768e-17
2.3511292e-17
2.351426e-17
2.353488e-17
2.3523963e-17
2.3517094e-17
2.3512866e-17
2.351042e-17
2.3509215e-17
2.3508942e-17
2.3509503e-17
2.3511035e-17
2.3514007e-17
2.3535281e-17
2.3524407e-17
2.3517582e-17
2.3513384e-17
2.3510959e-17
2.3509768e-17
2.3509503e-17
2.351007e-17
2.3511607e-17
2.3514582e-17
2.3536542e-17
2.3525776e-17
2.3519027e-17
2.3514872e-17
2.3512471e-17
2.3511292e-17
2.3511035e-17
2.3511607e-17
2.3513147e-17
2.3516126e-17
2.3539018e-17
2.3528567e-17
2.3521926e-17
2.3517814e-17
2.351543e-17
2.351426e-17
2.3514007e-17
2.3514582e-17
2.3516126e-17
2.3519113e-17
4.3979233e-17
4.3959482e-17
4.3946967e-17
4.3939202e-17
4.3934659e-17
4.3932343e-17
4.393166e-17
4.3932374e-17
4.3934618e-17
4.3938993e-17
4.3959482e-17
4.3939795e-17
4.3927304e-17
4.3919553e-17
4.3915022e-17
4.3912724e-17
4.3912076e-17
4.3912869e-17
4.3915314e-17
4.392027e-17
4.3946967e-17
4.3927304e-17
4.3914832e-17
4.3907097e-17
4.3902583e-17
4.390031e-17
4.3899707e-17
4.3900579e-17
4.3903163e-17
4.3908319e-17
4.3939202e-17
4.3919553e-17
4.3907097e-17
4.3899377e-17
4.3894882e-17
4.3892635e-17
4.3892069e-17
4.3892999e-17
4.3895663e-17
4.3900896e-17
4.3934659e-17
4.3915022e-17
4.3902583e-17
4.3894882e-17
4.3890407e-17
4.3888182e-17
4.3887645e-17
4.3888613e-17
4.389132e-17
4.3896586e-17
4.3932343e-17
4.3912724e-17
4.390031e-17
4.3892635e-17
4.3888182e-17
4.3885978e-17
4.3885464e-17
4.3886456e-17
4.3889185e-17
4.3894468e-17
4.393166e-17
4.3912076e-17
4.3899707e-17
4.3892069e-17
4.3887645e-17
4.3885464e-17
4.3884968e-17
4.3885975e-17
4.3888719e-17
4.3894009e-17
4.3932374e-17
4.3912869e-17
4.3900579e-17
4.3892999e-17
4.3888613e-17
4.3886456e-17
4.3885975e-17
4.3886995e-17
4.3889747e-17
4.3895043e-17
4.3934618e-17
4.3915314e-17
4.3903163e-17
4.3895663e-17
4.389132e-17
4.3889185e-17
4.3888719e-17
4.3889747e-17
4.3892506e-17
4.3897808e-17
4.3938993e-17
4.392027e-17
4.3908319e-17
4.3900896e-17
4.3896586e-17
4.3894468e-17
4.3894009e-17
4.3895043e-17
4.3897808e-17
4.3903125e-17
8.2862876e-17
8.2827132e-17
8.2804391e-17
8.2790243e-17
8.278195e-17
8.2777716e-17
8.2776462e-17
8.2777744e-17
8.2781775e-17
8.2789575e-17
8.2827132e-17
8.2791503e-17
8.2768806e-17
8.2754682e-17
8.2746411e-17
8.2742211e-17
8.2741021e-17
8.274245e-17
8.2746854e-17
8.2755737e-17
8.2804391e-17
8.2768806e-17
8.2746142e-17
8.2732047e-17
8.2723808e-17
8.2719655e-17
8.2718547e-17
8.2720123e-17
8.2724788e-17
8.273404e-17
8.2790243e-17
8.2754682e-17
8.2732047e-17
8.2717982e-17
8.2709777e-17
8.270567e-17
8.2704633e-17
8.2706318e-17
8.2711129e-17
8.2720526e-17
8.278195e-17
8.2746411e-17
8.2723808e-17
8.2709777e-17
8.2701609e-17
8.2697544e-17
8.2696561e-17
8.2698315e-17
8.2703206e-17
8.2712665e-17
8.2777716e-17
8.2742211e-17
8.2719655e-17
8.270567e-17
8.2697544e-17
8.2693519e-17
8.2692577e-17
8.2694375e-17
8.2699309e-17
8.2708798e-17
8.2776462e-17
8.2741021e-17
8.2718547e-17
8.2704633e-17
8.2696561e-17
8.2692577e-17
8.2691668e-17
8.2693496e-17
8.2698455e-17
8.2707959e-17
8.2777744e-17
8.274245e-17
8.2720123e-17
8.2706318e-17
8.2698315e-17
8.2694375e-17
8.2693496e-17
8.2695345e-17
8.2700321e-17
8.2709835e-17
8.2781775e-17
8.2746854e-17
8.2724788e-17
8.2711129e-17
8.2703206e-17
8.2699309e-17
8.2698455e-17
8.2700321e-17
8.270531e-17
8.2714835e-17
8.2789575e-17
8.2755737e-17
8.273404e-17
8.2720526e-17
8.2712665e-17
8.2708798e-17
8.2707959e-17
8.2709835e-17
8.2714835e-17
8.2724386e-17
1.5759058e-16
1.5752533e-16
1.5748364e-16
1.5745764e-16
1.5744237e-16
1.5743456e-16
1.5743224e-16
1.5743456e-16
1.5744187e-16
1.574559e-16
1.5752533e-16
1.5746028e-16
1.5741867e-16
1.5739271e-16
1.5737748e-16
1.5736974e-16
1.5736754e-16
1.5737014e-16
1.5737815e-16
1.5739421e-16
1.5748364e-16
1.5741867e-16
1.5737713e-16
1.5735122e-16
1.5733605e-16
1.573284e-16
1.5732635e-16
1.5732922e-16
1.5733772e-16
1.5735448e-16
1.5745764e-16
1.5739271e-16
1.5735122e-16
1.5732537e-16
1.5731026e-16
1.573027e-16
1.5730078e-16
1.5730386e-16
1.5731263e-16
1.5732966e-16
1.5744237e-16
1.5737748e-16
1.5733605e-16
1.5731026e-16
1.5729523e-16
1.5728774e-16
1.5728592e-16
1.5728913e-16
1.5729805e-16
1.573152e-16
1.5743456e-16
1.5736974e-16
1.573284e-16
1.573027e-16
1.5728774e-16
1.5728032e-16
1.5727858e-16
1.5728187e-16
1.5729088e-16
1.5730808e-16
1.5743224e-16
1.5736754e-16
1.5732635e-16
1.5730078e-16
1.5728592e-16
1.5727858e-16
1.572769e-16
1.5728025e-16
1.572893e-16
1.5730653e-16
1.5743456e-16
1.5737014e-16
1.5732922e-16
1.5730386e-16
1.5728913e-16
1.5728187e-16
1.5728025e-16
1.5728364e-16
1.5729272e-16
1.5730997e-16
1.5744187e-16
1.5737815e-16
1.5733772e-16
1.5731263e-16
1.5729805e-16
1.5729088e-16
1.572893e-16
1.5729272e-16
1.5730182e-16
1.5731909e-16
1.574559e-16
1.5739421e-16
1.5735448e-16
1.5732966e-16
1.573152e-16
1.5730808e-16
1.5730653e-16
1.5730997e-16
1.5731909e-16
1.5733641e-16
3.0251556e-16
3.0239537e-16
3.023183e-16
3.0227009e-16
3.0224173e-16
3.0222722e-16
3.0222288e-16
3.0222713e-16
3.022405e-16
3.0226598e-16
3.0239537e-16
3.0227557e-16
3.0219864e-16
3.0215051e-16
3.0212223e-16
3.0210783e-16
3.0210372e-16
3.021085e-16
3.021232e-16
3.0215252e-16
3.023183e-16
3.0219864e-16
3.0212183e-16
3.020738e-16
3.0204563e-16
3.0203139e-16
3.0202757e-16
3.0203287e-16
3.0204849e-16
3.0207913e-16
3.0227009e-16
3.0215051e-16
3.020738e-16
3.0202587e-16
3.0199782e-16
3.0198375e-16
3.0198018e-16
3.0198586e-16
3.02002e-16
3.0203315e-16
3.0224173e-16
3.0212223e-16
3.0204563e-16
3.0199782e-16
3.019699e-16
3.0195598e-16
3.019526e-16
3.0195853e-16
3.0197495e-16
3.0200632e-16
3.0222722e-16
3.0210783e-16
3.0203139e-16
3.0198375e-16
3.0195598e-16
3.019422e-16
3.0193897e-16
3.0194505e-16
3.0196163e-16
3.019931e-16
3.0222288e-16
3.0210372e-16
3.0202757e-16
3.0198018e-16
3.019526e-16
3.0193897e-16
3.0193585e-16
3.0194203e-16
3.019587e-16
3.0199023e-16
3.0222713e-16
3.021085e-16
3.0203287e-16
3.0198586e-16
3.0195853e-16
3.0194505e-16
3.0194203e-16
3.019483e-16
3.0196502e-16
3.0199658e-16
3.022405e-16
3.021232e-16
3.0204849e-16
3.02002e-16
3.0197495e-16
3.0196163e-16
3.019587e-16
3.0196502e-16
3.0198179e-16
3.0201339e-16
3.0226598e-16
3.0215252e-16
3.0207913e-16
3.0203315e-16
3.0200632e-16
3.019931e-16
3.0199023e-16
3.0199658e-16
3.0201339e-16
3.0204507e-16
5.8613372e-16
5.8591045e-16
5.857667e-16
5.8567656e-16
5.8562344e-16
5.8559622e-16
5.8558805e-16
5.8559591e-16
5.856206e-16
5.8566727e-16
5.8591045e-16
5.8568787e-16
5.855444e-16
5.8545441e-16
5.8540144e-16
5.8537444e-16
5.8536671e-16
5.8537556e-16
5.8540279e-16
5.854568e-16
5.857667e-16
5.855444e-16
5.8540114e-16
5.8531134e-16
5.8525858e-16
5.852319e-16
5.8522471e-16
5.8523456e-16
5.8526354e-16
5.8532006e-16
5.8567656e-16
5.8545441e-16
5.8531134e-16
5.8522172e-16
5.8516919e-16
5.8514283e-16
5.8513612e-16
5.8514669e-16
5.8517667e-16
5.8523417e-16
5.8562344e-16
5.8540144e-16
5.8525858e-16
5.8516919e-16
5.851169e-16
5.8509082e-16
5.8508448e-16
5.8509552e-16
5.8512604e-16
5.8518396e-16
5.8559622e-16
5.8537444e-16
5.852319e-16
5.8514283e-16
5.8509082e-16
5.85065e-16
5.8505893e-16
5.8507028e-16
5.8510108e-16
5.851592e-16
5.8558805e-16
5.8536671e-16
5.8522471e-16
5.8513612e-16
5.8508448e-16
5.8505893e-16
5.8505309e-16
5.8506463e-16
5.8509561e-16
5.8515383e-16
5.8559591e-16
5.8537556e-16
5.8523456e-16
5.8514669e-16
5.8509552e-16
5.8507028e-16
5.8506463e-16
5.8507632e-16
5.8510741e-16
5.851657e-16
5.856206e-16
5.8540279e-16
5.8526354e-16
5.8517667e-16
5.8512604e-16
5.8510108e-16
5.8509561e-16
5.8510741e-16
5.8513858e-16
5.8519693e-16
5.8566727e-16
5.854568e-16
5.8532006e-16
5.8523417e-16
5.8518396e-16
5.851592e-16
5.8515383e-16
5.851657e-16