/*--------------------------------*- C++ -*----------------------------------*\
| =========                 |                                                 |
| \\      /  F ield         | OpenFOAM: The Open Source CFD Toolbox           |
|  \\    /   O peration     | Version:  dev                                   |
|   \\  /    A nd           | Web:      www.OpenFOAM.org                      |
|    \\/     M anipulation  |                                                 |
\*---------------------------------------------------------------------------*/
FoamFile
{
    version     2.0;
    format      ascii;
    class       volScalarField;
    location    "11";
    object      A;
}
// * * * * * * * * * * * * * * * * * * * * * * * * * * * * * * * * * * * * * //

dimensions      [0 0 0 0 1 0 0];

internalField   nonuniform List<scalar> 
10000
(
2.9779537e-69
2.9769972e-69
2.9766668e-69
2.9765731e-69
2.9765511e-69
2.9765468e-69
2.9765463e-69
2.9765469e-69
2.9765499e-69
2.9765622e-69
2.9769972e-69
2.9760413e-69
2.9757112e-69
2.9756174e-69
2.9755955e-69
2.9755912e-69
2.9755908e-69
2.9755919e-69
2.9755969e-69
2.9756167e-69
2.9766668e-69
2.9757112e-69
2.9753811e-69
2.9752874e-69
2.9752655e-69
2.9752612e-69
2.9752608e-69
2.9752623e-69
2.9752682e-69
2.97529e-69
2.9765731e-69
2.9756174e-69
2.9752874e-69
2.9751937e-69
2.9751718e-69
2.9751675e-69
2.9751672e-69
2.9751687e-69
2.9751749e-69
2.9751972e-69
2.9765511e-69
2.9755955e-69
2.9752655e-69
2.9751718e-69
2.9751499e-69
2.9751456e-69
2.9751453e-69
2.9751468e-69
2.9751531e-69
2.9751755e-69
2.9765468e-69
2.9755912e-69
2.9752612e-69
2.9751675e-69
2.9751456e-69
2.9751414e-69
2.975141e-69
2.9751426e-69
2.9751489e-69
2.9751713e-69
2.9765463e-69
2.9755908e-69
2.9752608e-69
2.9751672e-69
2.9751453e-69
2.975141e-69
2.9751407e-69
2.9751422e-69
2.9751485e-69
2.9751709e-69
2.9765469e-69
2.9755919e-69
2.9752623e-69
2.9751687e-69
2.9751468e-69
2.9751426e-69
2.9751422e-69
2.9751437e-69
2.9751501e-69
2.9751725e-69
2.9765499e-69
2.9755969e-69
2.9752682e-69
2.9751749e-69
2.9751531e-69
2.9751489e-69
2.9751485e-69
2.9751501e-69
2.9751564e-69
2.9751788e-69
2.9765622e-69
2.9756167e-69
2.97529e-69
2.9751972e-69
2.9751755e-69
2.9751713e-69
2.9751709e-69
2.9751725e-69
2.9751788e-69
2.9752012e-69
2.0130164e-68
2.0123869e-68
2.0121681e-68
2.012106e-68
2.0120914e-68
2.0120886e-68
2.0120882e-68
2.0120886e-68
2.0120906e-68
2.0120991e-68
2.0123869e-68
2.0117579e-68
2.0115392e-68
2.0114771e-68
2.0114626e-68
2.0114597e-68
2.0114594e-68
2.0114602e-68
2.0114635e-68
2.011477e-68
2.0121681e-68
2.0115392e-68
2.0113206e-68
2.0112585e-68
2.011244e-68
2.0112412e-68
2.0112409e-68
2.0112418e-68
2.0112458e-68
2.0112606e-68
2.012106e-68
2.0114771e-68
2.0112585e-68
2.0111964e-68
2.0111819e-68
2.0111791e-68
2.0111788e-68
2.0111798e-68
2.011184e-68
2.0111991e-68
2.0120914e-68
2.0114626e-68
2.011244e-68
2.0111819e-68
2.0111673e-68
2.0111645e-68
2.0111643e-68
2.0111653e-68
2.0111695e-68
2.0111847e-68
2.0120886e-68
2.0114597e-68
2.0112412e-68
2.0111791e-68
2.0111645e-68
2.0111617e-68
2.0111615e-68
2.0111625e-68
2.0111667e-68
2.0111819e-68
2.0120882e-68
2.0114594e-68
2.0112409e-68
2.0111788e-68
2.0111643e-68
2.0111615e-68
2.0111612e-68
2.0111623e-68
2.0111665e-68
2.0111817e-68
2.0120886e-68
2.0114602e-68
2.0112418e-68
2.0111798e-68
2.0111653e-68
2.0111625e-68
2.0111623e-68
2.0111633e-68
2.0111675e-68
2.0111827e-68
2.0120906e-68
2.0114635e-68
2.0112458e-68
2.011184e-68
2.0111695e-68
2.0111667e-68
2.0111665e-68
2.0111675e-68
2.0111717e-68
2.0111869e-68
2.0120991e-68
2.011477e-68
2.0112606e-68
2.0111991e-68
2.0111847e-68
2.0111819e-68
2.0111817e-68
2.0111827e-68
2.0111869e-68
2.0112021e-68
1.1570852e-67
1.1567333e-67
1.1566107e-67
1.1565758e-67
1.1565676e-67
1.156566e-67
1.1565658e-67
1.1565661e-67
1.1565672e-67
1.1565719e-67
1.1567333e-67
1.1563816e-67
1.1562591e-67
1.1562242e-67
1.1562161e-67
1.1562145e-67
1.1562143e-67
1.1562147e-67
1.1562166e-67
1.1562241e-67
1.1566107e-67
1.1562591e-67
1.1561366e-67
1.1561017e-67
1.1560936e-67
1.156092e-67
1.1560919e-67
1.1560924e-67
1.1560946e-67
1.1561029e-67
1.1565758e-67
1.1562242e-67
1.1561017e-67
1.1560669e-67
1.1560588e-67
1.1560572e-67
1.1560571e-67
1.1560576e-67
1.15606e-67
1.1560684e-67
1.1565676e-67
1.1562161e-67
1.1560936e-67
1.1560588e-67
1.1560506e-67
1.156049e-67
1.1560489e-67
1.1560495e-67
1.1560518e-67
1.1560603e-67
1.156566e-67
1.1562145e-67
1.156092e-67
1.1560572e-67
1.156049e-67
1.1560475e-67
1.1560473e-67
1.1560479e-67
1.1560503e-67
1.1560588e-67
1.1565658e-67
1.1562143e-67
1.1560919e-67
1.1560571e-67
1.1560489e-67
1.1560473e-67
1.1560472e-67
1.1560478e-67
1.1560501e-67
1.1560586e-67
1.1565661e-67
1.1562147e-67
1.1560924e-67
1.1560576e-67
1.1560495e-67
1.1560479e-67
1.1560478e-67
1.1560484e-67
1.1560507e-67
1.1560592e-67
1.1565672e-67
1.1562166e-67
1.1560946e-67
1.15606e-67
1.1560518e-67
1.1560503e-67
1.1560501e-67
1.1560507e-67
1.1560531e-67
1.1560616e-67
1.1565719e-67
1.1562241e-67
1.1561029e-67
1.1560684e-67
1.1560603e-67
1.1560588e-67
1.1560586e-67
1.1560592e-67
1.1560616e-67
1.1560701e-67
6.775858e-67
6.7738548e-67
6.7731556e-67
6.7729566e-67
6.77291e-67
6.7729009e-67
6.7728997e-67
6.7729012e-67
6.7729075e-67
6.7729334e-67
6.7738548e-67
6.771853e-67
6.7711542e-67
6.7709553e-67
6.7709088e-67
6.7708997e-67
6.7708987e-67
6.7709012e-67
6.770912e-67
6.7709543e-67
6.7731556e-67
6.7711542e-67
6.7704555e-67
6.7702567e-67
6.7702101e-67
6.7702011e-67
6.7702003e-67
6.7702034e-67
6.7702162e-67
6.7702629e-67
6.7729566e-67
6.7709553e-67
6.7702567e-67
6.7700579e-67
6.7700114e-67
6.7700023e-67
6.7700016e-67
6.7700049e-67
6.7700183e-67
6.7700661e-67
6.77291e-67
6.7709088e-67
6.7702101e-67
6.7700114e-67
6.7699648e-67
6.7699558e-67
6.769955e-67
6.7699584e-67
6.769972e-67
6.77002e-67
6.7729009e-67
6.7708997e-67
6.7702011e-67
6.7700023e-67
6.7699558e-67
6.7699468e-67
6.769946e-67
6.7699494e-67
6.769963e-67
6.770011e-67
6.7728997e-67
6.7708987e-67
6.7702003e-67
6.7700016e-67
6.769955e-67
6.769946e-67
6.7699453e-67
6.7699487e-67
6.7699623e-67
6.7700103e-67
6.7729012e-67
6.7709012e-67
6.7702034e-67
6.7700049e-67
6.7699584e-67
6.7699494e-67
6.7699487e-67
6.7699521e-67
6.7699656e-67
6.7700137e-67
6.7729075e-67
6.770912e-67
6.7702162e-67
6.7700183e-67
6.769972e-67
6.769963e-67
6.7699623e-67
6.7699656e-67
6.7699792e-67
6.7700273e-67
6.7729334e-67
6.7709543e-67
6.7702629e-67
6.7700661e-67
6.77002e-67
6.770011e-67
6.7700103e-67
6.7700137e-67
6.7700273e-67
6.7700754e-67
4.0632658e-66
4.0620987e-66
4.0616904e-66
4.0615742e-66
4.061547e-66
4.0615417e-66
4.061541e-66
4.0615418e-66
4.0615455e-66
4.0615602e-66
4.0620987e-66
4.0609323e-66
4.0605243e-66
4.0604082e-66
4.0603809e-66
4.0603756e-66
4.0603751e-66
4.0603765e-66
4.0603828e-66
4.0604073e-66
4.0616904e-66
4.0605243e-66
4.0601164e-66
4.0600003e-66
4.0599731e-66
4.0599678e-66
4.0599673e-66
4.0599691e-66
4.0599767e-66
4.0600037e-66
4.0615742e-66
4.0604082e-66
4.0600003e-66
4.0598842e-66
4.059857e-66
4.0598517e-66
4.0598512e-66
4.0598532e-66
4.0598611e-66
4.0598888e-66
4.061547e-66
4.0603809e-66
4.0599731e-66
4.059857e-66
4.0598297e-66
4.0598245e-66
4.0598241e-66
4.059826e-66
4.059834e-66
4.0598618e-66
4.0615417e-66
4.0603756e-66
4.0599678e-66
4.0598517e-66
4.0598245e-66
4.0598192e-66
4.0598188e-66
4.0598208e-66
4.0598288e-66
4.0598566e-66
4.061541e-66
4.0603751e-66
4.0599673e-66
4.0598512e-66
4.0598241e-66
4.0598188e-66
4.0598184e-66
4.0598204e-66
4.0598283e-66
4.0598562e-66
4.0615418e-66
4.0603765e-66
4.0599691e-66
4.0598532e-66
4.059826e-66
4.0598208e-66
4.0598204e-66
4.0598223e-66
4.0598303e-66
4.0598582e-66
4.0615455e-66
4.0603828e-66
4.0599767e-66
4.0598611e-66
4.059834e-66
4.0598288e-66
4.0598283e-66
4.0598303e-66
4.0598383e-66
4.0598662e-66
4.0615602e-66
4.0604073e-66
4.0600037e-66
4.0598888e-66
4.0598618e-66
4.0598566e-66
4.0598562e-66
4.0598582e-66
4.0598662e-66
4.059894e-66
2.495556e-65
2.4948598e-65
2.4946158e-65
2.4945463e-65
2.4945301e-65
2.4945269e-65
2.4945265e-65
2.494527e-65
2.4945292e-65
2.4945377e-65
2.4948598e-65
2.4941641e-65
2.4939203e-65
2.4938508e-65
2.4938345e-65
2.4938314e-65
2.493831e-65
2.4938319e-65
2.4938357e-65
2.4938502e-65
2.4946158e-65
2.4939203e-65
2.4936765e-65
2.4936071e-65
2.4935908e-65
2.4935876e-65
2.4935873e-65
2.4935884e-65
2.493593e-65
2.493609e-65
2.4945463e-65
2.4938508e-65
2.4936071e-65
2.4935376e-65
2.4935213e-65
2.4935182e-65
2.4935179e-65
2.4935191e-65
2.4935238e-65
2.4935403e-65
2.4945301e-65
2.4938345e-65
2.4935908e-65
2.4935213e-65
2.4935051e-65
2.4935019e-65
2.4935017e-65
2.4935029e-65
2.4935076e-65
2.4935242e-65
2.4945269e-65
2.4938314e-65
2.4935876e-65
2.4935182e-65
2.4935019e-65
2.4934987e-65
2.4934985e-65
2.4934997e-65
2.4935045e-65
2.493521e-65
2.4945265e-65
2.493831e-65
2.4935873e-65
2.4935179e-65
2.4935017e-65
2.4934985e-65
2.4934983e-65
2.4934995e-65
2.4935043e-65
2.4935208e-65
2.494527e-65
2.4938319e-65
2.4935884e-65
2.4935191e-65
2.4935029e-65
2.4934997e-65
2.4934995e-65
2.4935007e-65
2.4935055e-65
2.493522e-65
2.4945292e-65
2.4938357e-65
2.493593e-65
2.4935238e-65
2.4935076e-65
2.4935045e-65
2.4935043e-65
2.4935055e-65
2.4935103e-65
2.4935268e-65
2.4945377e-65
2.4938502e-65
2.493609e-65
2.4935403e-65
2.4935242e-65
2.493521e-65
2.4935208e-65
2.493522e-65
2.4935268e-65
2.4935434e-65
1.5697903e-64
1.5693652e-64
1.5692159e-64
1.5691734e-64
1.5691634e-64
1.5691615e-64
1.5691612e-64
1.5691615e-64
1.5691629e-64
1.569168e-64
1.5693652e-64
1.5689403e-64
1.5687912e-64
1.5687487e-64
1.5687387e-64
1.5687367e-64
1.5687365e-64
1.5687371e-64
1.5687394e-64
1.5687482e-64
1.5692159e-64
1.5687912e-64
1.5686421e-64
1.5685995e-64
1.5685896e-64
1.5685876e-64
1.5685875e-64
1.5685882e-64
1.5685909e-64
1.5686007e-64
1.5691734e-64
1.5687487e-64
1.5685995e-64
1.568557e-64
1.5685471e-64
1.5685451e-64
1.568545e-64
1.5685457e-64
1.5685486e-64
1.5685586e-64
1.5691634e-64
1.5687387e-64
1.5685896e-64
1.5685471e-64
1.5685371e-64
1.5685352e-64
1.568535e-64
1.5685358e-64
1.5685387e-64
1.5685488e-64
1.5691615e-64
1.5687367e-64
1.5685876e-64
1.5685451e-64
1.5685352e-64
1.5685332e-64
1.5685331e-64
1.5685338e-64
1.5685368e-64
1.5685469e-64
1.5691612e-64
1.5687365e-64
1.5685875e-64
1.568545e-64
1.568535e-64
1.5685331e-64
1.5685329e-64
1.5685337e-64
1.5685366e-64
1.5685467e-64
1.5691615e-64
1.5687371e-64
1.5685882e-64
1.5685457e-64
1.5685358e-64
1.5685338e-64
1.5685337e-64
1.5685344e-64
1.5685374e-64
1.5685475e-64
1.5691629e-64
1.5687394e-64
1.5685909e-64
1.5685486e-64
1.5685387e-64
1.5685368e-64
1.5685366e-64
1.5685374e-64
1.5685403e-64
1.5685504e-64
1.569168e-64
1.5687482e-64
1.5686007e-64
1.5685586e-64
1.5685488e-64
1.5685469e-64
1.5685467e-64
1.5685475e-64
1.5685504e-64
1.5685605e-64
1.0113294e-63
1.0110636e-63
1.0109702e-63
1.0109435e-63
1.0109373e-63
1.010936e-63
1.0109359e-63
1.0109361e-63
1.0109369e-63
1.0109401e-63
1.0110636e-63
1.0107981e-63
1.0107047e-63
1.010678e-63
1.0106718e-63
1.0106706e-63
1.0106704e-63
1.0106708e-63
1.0106722e-63
1.0106777e-63
1.0109702e-63
1.0107047e-63
1.0106113e-63
1.0105846e-63
1.0105784e-63
1.0105772e-63
1.0105771e-63
1.0105775e-63
1.0105793e-63
1.0105854e-63
1.0109435e-63
1.010678e-63
1.0105846e-63
1.010558e-63
1.0105518e-63
1.0105505e-63
1.0105504e-63
1.0105509e-63
1.0105528e-63
1.010559e-63
1.0109373e-63
1.0106718e-63
1.0105784e-63
1.0105518e-63
1.0105455e-63
1.0105443e-63
1.0105442e-63
1.0105447e-63
1.0105465e-63
1.0105528e-63
1.010936e-63
1.0106706e-63
1.0105772e-63
1.0105505e-63
1.0105443e-63
1.0105431e-63
1.010543e-63
1.0105435e-63
1.0105453e-63
1.0105516e-63
1.0109359e-63
1.0106704e-63
1.0105771e-63
1.0105504e-63
1.0105442e-63
1.010543e-63
1.0105429e-63
1.0105434e-63
1.0105452e-63
1.0105515e-63
1.0109361e-63
1.0106708e-63
1.0105775e-63
1.0105509e-63
1.0105447e-63
1.0105435e-63
1.0105434e-63
1.0105439e-63
1.0105457e-63
1.010552e-63
1.0109369e-63
1.0106722e-63
1.0105793e-63
1.0105528e-63
1.0105465e-63
1.0105453e-63
1.0105452e-63
1.0105457e-63
1.0105476e-63
1.0105539e-63
1.0109401e-63
1.0106777e-63
1.0105854e-63
1.010559e-63
1.0105528e-63
1.0105516e-63
1.0105515e-63
1.010552e-63
1.0105539e-63
1.0105601e-63
6.6728229e-63
6.6711226e-63
6.6705235e-63
6.6703525e-63
6.6703124e-63
6.6703046e-63
6.6703036e-63
6.6703048e-63
6.6703102e-63
6.6703298e-63
6.6711226e-63
6.6694234e-63
6.6688246e-63
6.6686537e-63
6.6686136e-63
6.6686058e-63
6.668605e-63
6.6686072e-63
6.6686167e-63
6.6686515e-63
6.6705235e-63
6.6688246e-63
6.668226e-63
6.6680551e-63
6.668015e-63
6.6680072e-63
6.6680066e-63
6.6680094e-63
6.6680207e-63
6.6680596e-63
6.6703525e-63
6.6686537e-63
6.6680551e-63
6.6678842e-63
6.6678441e-63
6.6678364e-63
6.6678358e-63
6.6678388e-63
6.6678507e-63
6.6678905e-63
6.6703124e-63
6.6686136e-63
6.668015e-63
6.6678441e-63
6.6678041e-63
6.6677963e-63
6.6677957e-63
6.6677988e-63
6.6678108e-63
6.6678509e-63
6.6703046e-63
6.6686058e-63
6.6680072e-63
6.6678364e-63
6.6677963e-63
6.6677885e-63
6.6677879e-63
6.667791e-63
6.6678031e-63
6.6678432e-63
6.6703036e-63
6.668605e-63
6.6680066e-63
6.6678358e-63
6.6677957e-63
6.6677879e-63
6.6677874e-63
6.6677904e-63
6.6678025e-63
6.6678426e-63
6.6703048e-63
6.6686072e-63
6.6680094e-63
6.6678388e-63
6.6677988e-63
6.667791e-63
6.6677904e-63
6.6677935e-63
6.6678056e-63
6.6678457e-63
6.6703102e-63
6.6686167e-63
6.6680207e-63
6.6678507e-63
6.6678108e-63
6.6678031e-63
6.6678025e-63
6.6678056e-63
6.6678176e-63
6.6678577e-63
6.6703298e-63
6.6686515e-63
6.6680596e-63
6.6678905e-63
6.6678509e-63
6.6678432e-63
6.6678426e-63
6.6678457e-63
6.6678577e-63
6.6678979e-63
4.5089634e-62
4.5078498e-62
4.5074567e-62
4.5073444e-62
4.5073181e-62
4.5073129e-62
4.5073123e-62
4.5073131e-62
4.5073167e-62
4.5073293e-62
4.5078498e-62
4.5067368e-62
4.5063439e-62
4.5062317e-62
4.5062054e-62
4.5062003e-62
4.5061997e-62
4.5062012e-62
4.5062075e-62
4.5062302e-62
4.5074567e-62
4.5063439e-62
4.5059512e-62
4.505839e-62
4.5058126e-62
4.5058075e-62
4.5058071e-62
4.505809e-62
4.5058165e-62
4.5058419e-62
4.5073444e-62
4.5062317e-62
4.505839e-62
4.5057268e-62
4.5057005e-62
4.5056954e-62
4.505695e-62
4.505697e-62
4.5057049e-62
4.5057309e-62
4.5073181e-62
4.5062054e-62
4.5058126e-62
4.5057005e-62
4.5056742e-62
4.5056691e-62
4.5056687e-62
4.5056707e-62
4.5056787e-62
4.5057049e-62
4.5073129e-62
4.5062003e-62
4.5058075e-62
4.5056954e-62
4.5056691e-62
4.505664e-62
4.5056636e-62
4.5056656e-62
4.5056736e-62
4.5056999e-62
4.5073123e-62
4.5061997e-62
4.5058071e-62
4.505695e-62
4.5056687e-62
4.5056636e-62
4.5056632e-62
4.5056652e-62
4.5056732e-62
4.5056995e-62
4.5073131e-62
4.5062012e-62
4.505809e-62
4.505697e-62
4.5056707e-62
4.5056656e-62
4.5056652e-62
4.5056673e-62
4.5056753e-62
4.5057015e-62
4.5073167e-62
4.5062075e-62
4.5058165e-62
4.5057049e-62
4.5056787e-62
4.5056736e-62
4.5056732e-62
4.5056753e-62
4.5056833e-62
4.5057095e-62
4.5073293e-62
4.5062302e-62
4.5058419e-62
4.5057309e-62
4.5057049e-62
4.5056999e-62
4.5056995e-62
4.5057015e-62
4.5057095e-62
4.5057358e-62
3.1201303e-61
3.1193837e-61
3.1191198e-61
3.1190443e-61
3.1190266e-61
3.1190232e-61
3.1190227e-61
3.1190233e-61
3.1190257e-61
3.119034e-61
3.1193837e-61
3.1186376e-61
3.1183738e-61
3.1182984e-61
3.1182807e-61
3.1182772e-61
3.1182769e-61
3.1182779e-61
3.1182821e-61
3.1182973e-61
3.1191198e-61
3.1183738e-61
3.11811e-61
3.1180346e-61
3.118017e-61
3.1180135e-61
3.1180132e-61
3.1180145e-61
3.1180196e-61
3.1180366e-61
3.1190443e-61
3.1182984e-61
3.1180346e-61
3.1179593e-61
3.1179416e-61
3.1179382e-61
3.1179379e-61
3.1179393e-61
3.1179446e-61
3.1179621e-61
3.1190266e-61
3.1182807e-61
3.118017e-61
3.1179416e-61
3.1179239e-61
3.1179205e-61
3.1179202e-61
3.1179216e-61
3.117927e-61
3.1179446e-61
3.1190232e-61
3.1182772e-61
3.1180135e-61
3.1179382e-61
3.1179205e-61
3.117917e-61
3.1179168e-61
3.1179182e-61
3.1179236e-61
3.1179412e-61
3.1190227e-61
3.1182769e-61
3.1180132e-61
3.1179379e-61
3.1179202e-61
3.1179168e-61
3.1179165e-61
3.1179179e-61
3.1179233e-61
3.117941e-61
3.1190233e-61
3.1182779e-61
3.1180145e-61
3.1179393e-61
3.1179216e-61
3.1179182e-61
3.1179179e-61
3.1179193e-61
3.1179247e-61
3.1179423e-61
3.1190257e-61
3.1182821e-61
3.1180196e-61
3.1179446e-61
3.117927e-61
3.1179236e-61
3.1179233e-61
3.1179247e-61
3.1179302e-61
3.1179478e-61
3.119034e-61
3.1182973e-61
3.1180366e-61
3.1179621e-61
3.1179446e-61
3.1179412e-61
3.117941e-61
3.1179423e-61
3.1179478e-61
3.1179654e-61
2.2109093e-60
2.210397e-60
2.2102156e-60
2.2101638e-60
2.2101516e-60
2.2101492e-60
2.2101489e-60
2.2101493e-60
2.2101509e-60
2.2101565e-60
2.210397e-60
2.2098851e-60
2.2097038e-60
2.209652e-60
2.2096398e-60
2.2096374e-60
2.2096372e-60
2.2096379e-60
2.2096408e-60
2.2096512e-60
2.2102156e-60
2.2097038e-60
2.2095225e-60
2.2094707e-60
2.2094585e-60
2.2094562e-60
2.209456e-60
2.2094569e-60
2.2094604e-60
2.2094721e-60
2.2101638e-60
2.209652e-60
2.2094707e-60
2.2094189e-60
2.2094067e-60
2.2094043e-60
2.2094042e-60
2.2094051e-60
2.2094088e-60
2.2094208e-60
2.2101516e-60
2.2096398e-60
2.2094585e-60
2.2094067e-60
2.2093945e-60
2.2093922e-60
2.209392e-60
2.209393e-60
2.2093967e-60
2.2094088e-60
2.2101492e-60
2.2096374e-60
2.2094562e-60
2.2094043e-60
2.2093922e-60
2.2093898e-60
2.2093897e-60
2.2093906e-60
2.2093944e-60
2.2094065e-60
2.2101489e-60
2.2096372e-60
2.209456e-60
2.2094042e-60
2.209392e-60
2.2093897e-60
2.2093895e-60
2.2093905e-60
2.2093942e-60
2.2094063e-60
2.2101493e-60
2.2096379e-60
2.2094569e-60
2.2094051e-60
2.209393e-60
2.2093906e-60
2.2093905e-60
2.2093914e-60
2.2093952e-60
2.2094073e-60
2.2101509e-60
2.2096408e-60
2.2094604e-60
2.2094088e-60
2.2093967e-60
2.2093944e-60
2.2093942e-60
2.2093952e-60
2.2093989e-60
2.209411e-60
2.2101565e-60
2.2096512e-60
2.2094721e-60
2.2094208e-60
2.2094088e-60
2.2094065e-60
2.2094063e-60
2.2094073e-60
2.209411e-60
2.2094231e-60
1.6041274e-59
1.6037677e-59
1.6036402e-59
1.6036037e-59
1.6035951e-59
1.6035934e-59
1.6035932e-59
1.6035935e-59
1.6035947e-59
1.6035985e-59
1.6037677e-59
1.6034083e-59
1.6032808e-59
1.6032443e-59
1.6032357e-59
1.6032341e-59
1.6032339e-59
1.6032344e-59
1.6032365e-59
1.6032438e-59
1.6036402e-59
1.6032808e-59
1.6031533e-59
1.6031169e-59
1.6031083e-59
1.6031066e-59
1.6031065e-59
1.6031071e-59
1.6031096e-59
1.6031179e-59
1.6036037e-59
1.6032443e-59
1.6031169e-59
1.6030804e-59
1.6030718e-59
1.6030702e-59
1.60307e-59
1.6030707e-59
1.6030733e-59
1.6030818e-59
1.6035951e-59
1.6032357e-59
1.6031083e-59
1.6030718e-59
1.6030633e-59
1.6030616e-59
1.6030615e-59
1.6030622e-59
1.6030648e-59
1.6030733e-59
1.6035934e-59
1.6032341e-59
1.6031066e-59
1.6030702e-59
1.6030616e-59
1.6030599e-59
1.6030598e-59
1.6030605e-59
1.6030632e-59
1.6030717e-59
1.6035932e-59
1.6032339e-59
1.6031065e-59
1.60307e-59
1.6030615e-59
1.6030598e-59
1.6030597e-59
1.6030604e-59
1.6030631e-59
1.6030716e-59
1.6035935e-59
1.6032344e-59
1.6031071e-59
1.6030707e-59
1.6030622e-59
1.6030605e-59
1.6030604e-59
1.6030611e-59
1.6030638e-59
1.6030723e-59
1.6035947e-59
1.6032365e-59
1.6031096e-59
1.6030733e-59
1.6030648e-59
1.6030632e-59
1.6030631e-59
1.6030638e-59
1.6030664e-59
1.6030749e-59
1.6035985e-59
1.6032438e-59
1.6031179e-59
1.6030818e-59
1.6030733e-59
1.6030717e-59
1.6030716e-59
1.6030723e-59
1.6030749e-59
1.6030835e-59
1.1916213e-58
1.1913629e-58
1.1912711e-58
1.1912449e-58
1.1912387e-58
1.1912375e-58
1.1912373e-58
1.1912375e-58
1.1912384e-58
1.1912411e-58
1.1913629e-58
1.1911047e-58
1.1910129e-58
1.1909867e-58
1.1909805e-58
1.1909793e-58
1.1909792e-58
1.1909795e-58
1.190981e-58
1.1909863e-58
1.1912711e-58
1.1910129e-58
1.1909212e-58
1.1908949e-58
1.1908888e-58
1.1908876e-58
1.1908875e-58
1.1908879e-58
1.1908898e-58
1.1908957e-58
1.1912449e-58
1.1909867e-58
1.1908949e-58
1.1908687e-58
1.1908625e-58
1.1908613e-58
1.1908612e-58
1.1908617e-58
1.1908636e-58
1.1908697e-58
1.1912387e-58
1.1909805e-58
1.1908888e-58
1.1908625e-58
1.1908563e-58
1.1908552e-58
1.1908551e-58
1.1908556e-58
1.1908575e-58
1.1908636e-58
1.1912375e-58
1.1909793e-58
1.1908876e-58
1.1908613e-58
1.1908552e-58
1.190854e-58
1.1908539e-58
1.1908544e-58
1.1908563e-58
1.1908625e-58
1.1912373e-58
1.1909792e-58
1.1908875e-58
1.1908612e-58
1.1908551e-58
1.1908539e-58
1.1908538e-58
1.1908543e-58
1.1908562e-58
1.1908624e-58
1.1912375e-58
1.1909795e-58
1.1908879e-58
1.1908617e-58
1.1908556e-58
1.1908544e-58
1.1908543e-58
1.1908548e-58
1.1908567e-58
1.1908629e-58
1.1912384e-58
1.190981e-58
1.1908898e-58
1.1908636e-58
1.1908575e-58
1.1908563e-58
1.1908562e-58
1.1908567e-58
1.1908587e-58
1.1908648e-58
1.1912411e-58
1.1909863e-58
1.1908957e-58
1.1908697e-58
1.1908636e-58
1.1908625e-58
1.1908624e-58
1.1908629e-58
1.1908648e-58
1.190871e-58
9.0620155e-58
9.0601161e-58
9.0594404e-58
9.0592469e-58
9.0592014e-58
9.0591925e-58
9.0591914e-58
9.0591929e-58
9.0591991e-58
9.0592189e-58
9.0601161e-58
9.0582178e-58
9.0575424e-58
9.0573489e-58
9.0573035e-58
9.0572946e-58
9.0572938e-58
9.0572965e-58
9.0573077e-58
9.0573465e-58
9.0594404e-58
9.0575424e-58
9.0568672e-58
9.0566737e-58
9.0566283e-58
9.0566195e-58
9.0566188e-58
9.0566223e-58
9.0566358e-58
9.0566796e-58
9.0592469e-58
9.0573489e-58
9.0566737e-58
9.0564803e-58
9.0564349e-58
9.0564261e-58
9.0564255e-58
9.0564292e-58
9.0564434e-58
9.0564884e-58
9.0592014e-58
9.0573035e-58
9.0566283e-58
9.0564349e-58
9.0563894e-58
9.0563806e-58
9.0563801e-58
9.0563838e-58
9.0563982e-58
9.0564435e-58
9.0591925e-58
9.0572946e-58
9.0566195e-58
9.0564261e-58
9.0563806e-58
9.0563719e-58
9.0563713e-58
9.056375e-58
9.0563895e-58
9.0564348e-58
9.0591914e-58
9.0572938e-58
9.0566188e-58
9.0564255e-58
9.0563801e-58
9.0563713e-58
9.0563707e-58
9.0563745e-58
9.0563889e-58
9.0564342e-58
9.0591929e-58
9.0572965e-58
9.0566223e-58
9.0564292e-58
9.0563838e-58
9.056375e-58
9.0563745e-58
9.0563782e-58
9.0563927e-58
9.056438e-58
9.0591991e-58
9.0573077e-58
9.0566358e-58
9.0564434e-58
9.0563982e-58
9.0563895e-58
9.0563889e-58
9.0563927e-58
9.0564072e-58
9.0564525e-58
9.0592189e-58
9.0573465e-58
9.0566796e-58
9.0564884e-58
9.0564435e-58
9.0564348e-58
9.0564342e-58
9.056438e-58
9.0564525e-58
9.0564978e-58
7.054202e-57
7.0527737e-57
7.0522649e-57
7.052119e-57
7.0520847e-57
7.052078e-57
7.0520772e-57
7.0520784e-57
7.052083e-57
7.0520977e-57
7.0527737e-57
7.0513462e-57
7.0508376e-57
7.0506918e-57
7.0506576e-57
7.0506509e-57
7.0506503e-57
7.0506524e-57
7.0506609e-57
7.0506901e-57
7.0522649e-57
7.0508376e-57
7.0503291e-57
7.0501834e-57
7.0501491e-57
7.0501425e-57
7.050142e-57
7.0501446e-57
7.0501549e-57
7.050188e-57
7.052119e-57
7.0506918e-57
7.0501834e-57
7.0500376e-57
7.0500034e-57
7.0499968e-57
7.0499963e-57
7.0499991e-57
7.05001e-57
7.050044e-57
7.0520847e-57
7.0506576e-57
7.0501491e-57
7.0500034e-57
7.0499691e-57
7.0499625e-57
7.0499621e-57
7.049965e-57
7.049976e-57
7.0500101e-57
7.052078e-57
7.0506509e-57
7.0501425e-57
7.0499968e-57
7.0499625e-57
7.0499559e-57
7.0499555e-57
7.0499583e-57
7.0499694e-57
7.0500036e-57
7.0520772e-57
7.0506503e-57
7.050142e-57
7.0499963e-57
7.0499621e-57
7.0499555e-57
7.049955e-57
7.0499579e-57
7.0499689e-57
7.0500032e-57
7.0520784e-57
7.0506524e-57
7.0501446e-57
7.0499991e-57
7.049965e-57
7.0499583e-57
7.0499579e-57
7.0499608e-57
7.0499718e-57
7.0500061e-57
7.052083e-57
7.0506609e-57
7.0501549e-57
7.05001e-57
7.049976e-57
7.0499694e-57
7.0499689e-57
7.0499718e-57
7.0499829e-57
7.0500171e-57
7.0520977e-57
7.0506901e-57
7.050188e-57
7.050044e-57
7.0500101e-57
7.0500036e-57
7.0500032e-57
7.0500061e-57
7.0500171e-57
7.0500513e-57
5.6201833e-56
5.6190847e-56
5.6186928e-56
5.6185804e-56
5.618554e-56
5.6185489e-56
5.6185482e-56
5.6185491e-56
5.6185527e-56
5.6185639e-56
5.6190847e-56
5.6179868e-56
5.6175951e-56
5.6174828e-56
5.6174564e-56
5.6174512e-56
5.6174507e-56
5.6174524e-56
5.617459e-56
5.6174816e-56
5.6186928e-56
5.6175951e-56
5.6172035e-56
5.6170911e-56
5.6170647e-56
5.6170596e-56
5.6170592e-56
5.6170613e-56
5.6170694e-56
5.6170949e-56
5.6185804e-56
5.6174828e-56
5.6170911e-56
5.6169788e-56
5.6169524e-56
5.6169473e-56
5.616947e-56
5.6169492e-56
5.6169577e-56
5.616984e-56
5.618554e-56
5.6174564e-56
5.6170647e-56
5.6169524e-56
5.616926e-56
5.6169209e-56
5.6169206e-56
5.6169229e-56
5.6169314e-56
5.6169579e-56
5.6185489e-56
5.6174512e-56
5.6170596e-56
5.6169473e-56
5.6169209e-56
5.6169158e-56
5.6169155e-56
5.6169178e-56
5.6169264e-56
5.6169528e-56
5.6185482e-56
5.6174507e-56
5.6170592e-56
5.616947e-56
5.6169206e-56
5.6169155e-56
5.6169152e-56
5.6169174e-56
5.616926e-56
5.6169525e-56
5.6185491e-56
5.6174524e-56
5.6170613e-56
5.6169492e-56
5.6169229e-56
5.6169178e-56
5.6169174e-56
5.6169197e-56
5.6169283e-56
5.6169548e-56
5.6185527e-56
5.617459e-56
5.6170694e-56
5.6169577e-56
5.6169314e-56
5.6169264e-56
5.616926e-56
5.6169283e-56
5.6169369e-56
5.6169634e-56
5.6185639e-56
5.6174816e-56
5.6170949e-56
5.616984e-56
5.6169579e-56
5.6169528e-56
5.6169525e-56
5.6169548e-56
5.6169634e-56
5.6169899e-56
4.5821449e-55
4.5812809e-55
4.5809722e-55
4.5808836e-55
4.5808628e-55
4.5808587e-55
4.5808582e-55
4.5808589e-55
4.5808618e-55
4.5808705e-55
4.5812809e-55
4.5804173e-55
4.5801088e-55
4.5800202e-55
4.5799994e-55
4.5799954e-55
4.579995e-55
4.5799963e-55
4.5800016e-55
4.5800194e-55
4.5809722e-55
4.5801088e-55
4.5798003e-55
4.5797118e-55
4.579691e-55
4.579687e-55
4.5796867e-55
4.5796883e-55
4.5796947e-55
4.579715e-55
4.5808836e-55
4.5800202e-55
4.5797118e-55
4.5796233e-55
4.5796025e-55
4.5795984e-55
4.5795982e-55
4.5796e-55
4.5796067e-55
4.5796276e-55
4.5808628e-55
4.5799994e-55
4.579691e-55
4.5796025e-55
4.5795817e-55
4.5795776e-55
4.5795774e-55
4.5795792e-55
4.579586e-55
4.579607e-55
4.5808587e-55
4.5799954e-55
4.579687e-55
4.5795984e-55
4.5795776e-55
4.5795736e-55
4.5795734e-55
4.5795752e-55
4.579582e-55
4.579603e-55
4.5808582e-55
4.579995e-55
4.5796867e-55
4.5795982e-55
4.5795774e-55
4.5795734e-55
4.5795731e-55
4.5795749e-55
4.5795818e-55
4.5796028e-55
4.5808589e-55
4.5799963e-55
4.5796883e-55
4.5796e-55
4.5795792e-55
4.5795752e-55
4.5795749e-55
4.5795768e-55
4.5795836e-55
4.5796046e-55
4.5808618e-55
4.5800016e-55
4.5796947e-55
4.5796067e-55
4.579586e-55
4.579582e-55
4.5795818e-55
4.5795836e-55
4.5795905e-55
4.5796115e-55
4.5808705e-55
4.5800194e-55
4.579715e-55
4.5796276e-55
4.579607e-55
4.579603e-55
4.5796028e-55
4.5796046e-55
4.5796115e-55
4.5796324e-55
3.8223656e-54
3.8216708e-54
3.8214222e-54
3.8213509e-54
3.8213341e-54
3.8213308e-54
3.8213304e-54
3.821331e-54
3.8213333e-54
3.8213402e-54
3.8216708e-54
3.8209763e-54
3.8207279e-54
3.8206565e-54
3.8206398e-54
3.8206365e-54
3.8206362e-54
3.8206373e-54
3.8206416e-54
3.820656e-54
3.8214222e-54
3.8207279e-54
3.8204794e-54
3.8204081e-54
3.8203914e-54
3.8203881e-54
3.8203879e-54
3.8203892e-54
3.8203945e-54
3.8204109e-54
3.8213509e-54
3.8206565e-54
3.8204081e-54
3.8203368e-54
3.8203201e-54
3.8203168e-54
3.8203166e-54
3.8203181e-54
3.8203236e-54
3.8203405e-54
3.8213341e-54
3.8206398e-54
3.8203914e-54
3.8203201e-54
3.8203033e-54
3.8203e-54
3.8202998e-54
3.8203013e-54
3.8203069e-54
3.8203239e-54
3.8213308e-54
3.8206365e-54
3.8203881e-54
3.8203168e-54
3.8203e-54
3.8202968e-54
3.8202966e-54
3.8202981e-54
3.8203037e-54
3.8203207e-54
3.8213304e-54
3.8206362e-54
3.8203879e-54
3.8203166e-54
3.8202998e-54
3.8202966e-54
3.8202964e-54
3.8202979e-54
3.8203035e-54
3.8203205e-54
3.821331e-54
3.8206373e-54
3.8203892e-54
3.8203181e-54
3.8203013e-54
3.8202981e-54
3.8202979e-54
3.8202994e-54
3.820305e-54
3.820322e-54
3.8213333e-54
3.8206416e-54
3.8203945e-54
3.8203236e-54
3.8203069e-54
3.8203037e-54
3.8203035e-54
3.820305e-54
3.8203106e-54
3.8203276e-54
3.8213402e-54
3.820656e-54
3.8204109e-54
3.8203405e-54
3.8203239e-54
3.8203207e-54
3.8203205e-54
3.820322e-54
3.8203276e-54
3.8203446e-54
3.2618412e-53
3.26127e-53
3.2610654e-53
3.2610066e-53
3.2609928e-53
3.2609901e-53
3.2609898e-53
3.2609903e-53
3.2609922e-53
3.2609979e-53
3.26127e-53
3.2606991e-53
3.2604946e-53
3.2604358e-53
3.260422e-53
3.2604193e-53
3.2604191e-53
3.26042e-53
3.2604236e-53
3.2604355e-53
3.2610654e-53
3.2604946e-53
3.2602901e-53
3.2602314e-53
3.2602175e-53
3.2602149e-53
3.2602147e-53
3.2602158e-53
3.2602202e-53
3.2602338e-53
3.2610066e-53
3.2604358e-53
3.2602314e-53
3.2601726e-53
3.2601588e-53
3.2601561e-53
3.260156e-53
3.2601572e-53
3.2601618e-53
3.2601758e-53
3.2609928e-53
3.260422e-53
3.2602175e-53
3.2601588e-53
3.260145e-53
3.2601423e-53
3.2601422e-53
3.2601434e-53
3.2601481e-53
3.2601622e-53
3.2609901e-53
3.2604193e-53
3.2602149e-53
3.2601561e-53
3.2601423e-53
3.2601397e-53
3.2601395e-53
3.2601408e-53
3.2601454e-53
3.2601595e-53
3.2609898e-53
3.2604191e-53
3.2602147e-53
3.260156e-53
3.2601422e-53
3.2601395e-53
3.2601394e-53
3.2601406e-53
3.2601453e-53
3.2601594e-53
3.2609903e-53
3.26042e-53
3.2602158e-53
3.2601572e-53
3.2601434e-53
3.2601408e-53
3.2601406e-53
3.2601418e-53
3.2601465e-53
3.2601606e-53
3.2609922e-53
3.2604236e-53
3.2602202e-53
3.2601618e-53
3.2601481e-53
3.2601454e-53
3.2601453e-53
3.2601465e-53
3.2601512e-53
3.2601653e-53
3.2609979e-53
3.2604355e-53
3.2602338e-53
3.2601758e-53
3.2601622e-53
3.2601595e-53
3.2601594e-53
3.2601606e-53
3.2601653e-53
3.2601794e-53
2.8469197e-52
2.8464398e-52
2.8462676e-52
2.8462182e-52
2.8462065e-52
2.8462043e-52
2.846204e-52
2.8462044e-52
2.8462061e-52
2.8462108e-52
2.8464398e-52
2.8459601e-52
2.845788e-52
2.8457386e-52
2.845727e-52
2.8457247e-52
2.8457245e-52
2.8457253e-52
2.8457283e-52
2.8457384e-52
2.8462676e-52
2.845788e-52
2.845616e-52
2.8455666e-52
2.845555e-52
2.8455527e-52
2.8455525e-52
2.8455535e-52
2.8455573e-52
2.8455688e-52
2.8462182e-52
2.8457386e-52
2.8455666e-52
2.8455171e-52
2.8455055e-52
2.8455033e-52
2.8455031e-52
2.8455042e-52
2.8455081e-52
2.84552e-52
2.8462065e-52
2.845727e-52
2.845555e-52
2.8455055e-52
2.8454939e-52
2.8454916e-52
2.8454915e-52
2.8454926e-52
2.8454966e-52
2.8455085e-52
2.8462043e-52
2.8457247e-52
2.8455527e-52
2.8455033e-52
2.8454916e-52
2.8454894e-52
2.8454893e-52
2.8454903e-52
2.8454943e-52
2.8455063e-52
2.846204e-52
2.8457245e-52
2.8455525e-52
2.8455031e-52
2.8454915e-52
2.8454893e-52
2.8454891e-52
2.8454902e-52
2.8454942e-52
2.8455062e-52
2.8462044e-52
2.8457253e-52
2.8455535e-52
2.8455042e-52
2.8454926e-52
2.8454903e-52
2.8454902e-52
2.8454913e-52
2.8454953e-52
2.8455072e-52
2.8462061e-52
2.8457283e-52
2.8455573e-52
2.8455081e-52
2.8454966e-52
2.8454943e-52
2.8454942e-52
2.8454953e-52
2.8454993e-52
2.8455112e-52
2.8462108e-52
2.8457384e-52
2.8455688e-52
2.84552e-52
2.8455085e-52
2.8455063e-52
2.8455062e-52
2.8455072e-52