/*--------------------------------*- C++ -*----------------------------------*\
| =========                 |                                                 |
| \\      /  F ield         | OpenFOAM: The Open Source CFD Toolbox           |
|  \\    /   O peration     | Version:  dev                                   |
|   \\  /    A nd           | Web:      www.OpenFOAM.org                      |
|    \\/     M anipulation  |                                                 |
\*---------------------------------------------------------------------------*/
FoamFile
{
    version     2.0;
    format      ascii;
    class       volScalarField;
    location    "11";
    object      A_0;
}
// * * * * * * * * * * * * * * * * * * * * * * * * * * * * * * * * * * * * * //

dimensions      [0 0 0 0 1 0 0];

internalField   nonuniform List<scalar> 
10000
(
2.8944109e-69
2.8934806e-69
2.8931594e-69
2.8930682e-69
2.8930469e-69
2.8930427e-69
2.8930422e-69
2.8930428e-69
2.8930458e-69
2.8930577e-69
2.8934806e-69
2.8925509e-69
2.8922299e-69
2.8921388e-69
2.8921175e-69
2.8921133e-69
2.8921129e-69
2.892114e-69
2.8921189e-69
2.8921381e-69
2.8931594e-69
2.8922299e-69
2.8919089e-69
2.8918179e-69
2.8917965e-69
2.8917924e-69
2.891792e-69
2.8917934e-69
2.8917992e-69
2.8918204e-69
2.8930682e-69
2.8921388e-69
2.8918179e-69
2.8917268e-69
2.8917055e-69
2.8917013e-69
2.891701e-69
2.8917025e-69
2.8917085e-69
2.8917302e-69
2.8930469e-69
2.8921175e-69
2.8917965e-69
2.8917055e-69
2.8916842e-69
2.89168e-69
2.8916797e-69
2.8916812e-69
2.8916873e-69
2.891709e-69
2.8930427e-69
2.8921133e-69
2.8917924e-69
2.8917013e-69
2.89168e-69
2.8916759e-69
2.8916756e-69
2.8916771e-69
2.8916832e-69
2.891705e-69
2.8930422e-69
2.8921129e-69
2.891792e-69
2.891701e-69
2.8916797e-69
2.8916756e-69
2.8916752e-69
2.8916767e-69
2.8916829e-69
2.8917046e-69
2.8930428e-69
2.892114e-69
2.8917934e-69
2.8917025e-69
2.8916812e-69
2.8916771e-69
2.8916767e-69
2.8916782e-69
2.8916844e-69
2.8917061e-69
2.8930458e-69
2.8921189e-69
2.8917992e-69
2.8917085e-69
2.8916873e-69
2.8916832e-69
2.8916829e-69
2.8916844e-69
2.8916905e-69
2.8917123e-69
2.8930577e-69
2.8921381e-69
2.8918204e-69
2.8917302e-69
2.891709e-69
2.891705e-69
2.8917046e-69
2.8917061e-69
2.8917123e-69
2.891734e-69
1.9570895e-68
1.9564771e-68
1.9562643e-68
1.9562039e-68
1.9561897e-68
1.9561869e-68
1.9561866e-68
1.956187e-68
1.956189e-68
1.9561971e-68
1.9564771e-68
1.9558651e-68
1.9556524e-68
1.955592e-68
1.9555779e-68
1.9555751e-68
1.9555749e-68
1.9555756e-68
1.9555788e-68
1.9555919e-68
1.9562643e-68
1.9556524e-68
1.9554398e-68
1.9553794e-68
1.9553653e-68
1.9553625e-68
1.9553623e-68
1.9553632e-68
1.9553671e-68
1.9553814e-68
1.9562039e-68
1.955592e-68
1.9553794e-68
1.955319e-68
1.9553049e-68
1.9553022e-68
1.9553019e-68
1.9553029e-68
1.955307e-68
1.9553216e-68
1.9561897e-68
1.9555779e-68
1.9553653e-68
1.9553049e-68
1.9552908e-68
1.955288e-68
1.9552878e-68
1.9552888e-68
1.9552929e-68
1.9553076e-68
1.9561869e-68
1.9555751e-68
1.9553625e-68
1.9553022e-68
1.955288e-68
1.9552853e-68
1.9552851e-68
1.9552861e-68
1.9552902e-68
1.9553049e-68
1.9561866e-68
1.9555749e-68
1.9553623e-68
1.9553019e-68
1.9552878e-68
1.9552851e-68
1.9552848e-68
1.9552859e-68
1.9552899e-68
1.9553047e-68
1.956187e-68
1.9555756e-68
1.9553632e-68
1.9553029e-68
1.9552888e-68
1.9552861e-68
1.9552859e-68
1.9552869e-68
1.955291e-68
1.9553057e-68
1.956189e-68
1.9555788e-68
1.9553671e-68
1.955307e-68
1.9552929e-68
1.9552902e-68
1.9552899e-68
1.955291e-68
1.955295e-68
1.9553098e-68
1.9561971e-68
1.9555919e-68
1.9553814e-68
1.9553216e-68
1.9553076e-68
1.9553049e-68
1.9553047e-68
1.9553057e-68
1.9553098e-68
1.9553246e-68
1.1253284e-67
1.1249859e-67
1.1248666e-67
1.1248327e-67
1.1248248e-67
1.1248232e-67
1.124823e-67
1.1248232e-67
1.1248243e-67
1.1248289e-67
1.1249859e-67
1.1246436e-67
1.1245244e-67
1.1244905e-67
1.1244826e-67
1.1244811e-67
1.1244809e-67
1.1244813e-67
1.1244831e-67
1.1244904e-67
1.1248666e-67
1.1245244e-67
1.1244052e-67
1.1243714e-67
1.1243634e-67
1.1243619e-67
1.1243617e-67
1.1243623e-67
1.1243644e-67
1.1243725e-67
1.1248327e-67
1.1244905e-67
1.1243714e-67
1.1243375e-67
1.1243295e-67
1.124328e-67
1.1243279e-67
1.1243284e-67
1.1243307e-67
1.1243389e-67
1.1248248e-67
1.1244826e-67
1.1243634e-67
1.1243295e-67
1.1243216e-67
1.1243201e-67
1.12432e-67
1.1243205e-67
1.1243228e-67
1.1243311e-67
1.1248232e-67
1.1244811e-67
1.1243619e-67
1.124328e-67
1.1243201e-67
1.1243185e-67
1.1243184e-67
1.124319e-67
1.1243213e-67
1.1243296e-67
1.124823e-67
1.1244809e-67
1.1243617e-67
1.1243279e-67
1.12432e-67
1.1243184e-67
1.1243183e-67
1.1243189e-67
1.1243212e-67
1.1243294e-67
1.1248232e-67
1.1244813e-67
1.1243623e-67
1.1243284e-67
1.1243205e-67
1.124319e-67
1.1243189e-67
1.1243194e-67
1.1243217e-67
1.12433e-67
1.1248243e-67
1.1244831e-67
1.1243644e-67
1.1243307e-67
1.1243228e-67
1.1243213e-67
1.1243212e-67
1.1243217e-67
1.124324e-67
1.1243323e-67
1.1248289e-67
1.1244904e-67
1.1243725e-67
1.1243389e-67
1.1243311e-67
1.1243296e-67
1.1243294e-67
1.12433e-67
1.1243323e-67
1.1243406e-67
6.5922289e-67
6.5902787e-67
6.5895981e-67
6.5894046e-67
6.5893592e-67
6.5893504e-67
6.5893492e-67
6.5893506e-67
6.5893568e-67
6.5893819e-67
6.5902787e-67
6.5883298e-67
6.5876496e-67
6.5874561e-67
6.5874108e-67
6.587402e-67
6.5874011e-67
6.5874035e-67
6.5874139e-67
6.5874551e-67
6.5895981e-67
6.5876496e-67
6.5869695e-67
6.5867761e-67
6.5867308e-67
6.586722e-67
6.5867212e-67
6.5867242e-67
6.5867367e-67
6.5867821e-67
6.5894046e-67
6.5874561e-67
6.5867761e-67
6.5865827e-67
6.5865374e-67
6.5865286e-67
6.5865279e-67
6.5865311e-67
6.5865441e-67
6.5865906e-67
6.5893592e-67
6.5874108e-67
6.5867308e-67
6.5865374e-67
6.5864921e-67
6.5864833e-67
6.5864826e-67
6.5864859e-67
6.5864991e-67
6.5865458e-67
6.5893504e-67
6.587402e-67
6.586722e-67
6.5865286e-67
6.5864833e-67
6.5864746e-67
6.5864739e-67
6.5864771e-67
6.5864904e-67
6.5865371e-67
6.5893492e-67
6.5874011e-67
6.5867212e-67
6.5865279e-67
6.5864826e-67
6.5864739e-67
6.5864731e-67
6.5864764e-67
6.5864897e-67
6.5865364e-67
6.5893506e-67
6.5874035e-67
6.5867242e-67
6.5865311e-67
6.5864859e-67
6.5864771e-67
6.5864764e-67
6.5864797e-67
6.5864929e-67
6.5865397e-67
6.5893568e-67
6.5874139e-67
6.5867367e-67
6.5865441e-67
6.5864991e-67
6.5864904e-67
6.5864897e-67
6.5864929e-67
6.5865062e-67
6.5865529e-67
6.5893819e-67
6.5874551e-67
6.5867821e-67
6.5865906e-67
6.5865458e-67
6.5865371e-67
6.5865364e-67
6.5865397e-67
6.5865529e-67
6.5865997e-67
3.9545631e-66
3.9534264e-66
3.9530289e-66
3.9529158e-66
3.9528893e-66
3.9528841e-66
3.9528835e-66
3.9528843e-66
3.9528879e-66
3.9529022e-66
3.9534264e-66
3.9522905e-66
3.9518932e-66
3.9517801e-66
3.9517537e-66
3.9517485e-66
3.951748e-66
3.9517494e-66
3.9517555e-66
3.9517793e-66
3.9530289e-66
3.9518932e-66
3.951496e-66
3.951383e-66
3.9513565e-66
3.9513514e-66
3.9513509e-66
3.9513527e-66
3.95136e-66
3.9513864e-66
3.9529158e-66
3.9517801e-66
3.951383e-66
3.95127e-66
3.9512435e-66
3.9512384e-66
3.9512379e-66
3.9512398e-66
3.9512475e-66
3.9512745e-66
3.9528893e-66
3.9517537e-66
3.9513565e-66
3.9512435e-66
3.951217e-66
3.9512119e-66
3.9512115e-66
3.9512134e-66
3.9512212e-66
3.9512482e-66
3.9528841e-66
3.9517485e-66
3.9513514e-66
3.9512384e-66
3.9512119e-66
3.9512068e-66
3.9512064e-66
3.9512083e-66
3.9512161e-66
3.9512432e-66
3.9528835e-66
3.951748e-66
3.9513509e-66
3.9512379e-66
3.9512115e-66
3.9512064e-66
3.9512059e-66
3.9512079e-66
3.9512157e-66
3.9512428e-66
3.9528843e-66
3.9517494e-66
3.9513527e-66
3.9512398e-66
3.9512134e-66
3.9512083e-66
3.9512079e-66
3.9512098e-66
3.9512176e-66
3.9512447e-66
3.9528879e-66
3.9517555e-66
3.95136e-66
3.9512475e-66
3.9512212e-66
3.9512161e-66
3.9512157e-66
3.9512176e-66
3.9512254e-66
3.9512525e-66
3.9529022e-66
3.9517793e-66
3.9513864e-66
3.9512745e-66
3.9512482e-66
3.9512432e-66
3.9512428e-66
3.9512447e-66
3.9512525e-66
3.9512796e-66
2.4296684e-65
2.4289901e-65
2.4287525e-65
2.4286848e-65
2.428669e-65
2.4286659e-65
2.4286655e-65
2.4286659e-65
2.4286681e-65
2.4286764e-65
2.4289901e-65
2.4283123e-65
2.4280748e-65
2.4280072e-65
2.4279913e-65
2.4279882e-65
2.4279879e-65
2.4279888e-65
2.4279924e-65
2.4280066e-65
2.4287525e-65
2.4280748e-65
2.4278374e-65
2.4277697e-65
2.4277539e-65
2.4277508e-65
2.4277506e-65
2.4277516e-65
2.427756e-65
2.4277717e-65
2.4286848e-65
2.4280072e-65
2.4277697e-65
2.4277021e-65
2.4276863e-65
2.4276832e-65
2.427683e-65
2.4276841e-65
2.4276887e-65
2.4277047e-65
2.428669e-65
2.4279913e-65
2.4277539e-65
2.4276863e-65
2.4276704e-65
2.4276674e-65
2.4276671e-65
2.4276683e-65
2.427673e-65
2.427689e-65
2.4286659e-65
2.4279882e-65
2.4277508e-65
2.4276832e-65
2.4276674e-65
2.4276643e-65
2.4276641e-65
2.4276652e-65
2.4276699e-65
2.427686e-65
2.4286655e-65
2.4279879e-65
2.4277506e-65
2.427683e-65
2.4276671e-65
2.4276641e-65
2.4276638e-65
2.427665e-65
2.4276697e-65
2.4276858e-65
2.4286659e-65
2.4279888e-65
2.4277516e-65
2.4276841e-65
2.4276683e-65
2.4276652e-65
2.427665e-65
2.4276662e-65
2.4276708e-65
2.4276869e-65
2.4286681e-65
2.4279924e-65
2.427756e-65
2.4276887e-65
2.427673e-65
2.4276699e-65
2.4276697e-65
2.4276708e-65
2.4276755e-65
2.4276916e-65
2.4286764e-65
2.4280066e-65
2.4277717e-65
2.4277047e-65
2.427689e-65
2.427686e-65
2.4276858e-65
2.4276869e-65
2.4276916e-65
2.4277077e-65
1.5288991e-64
1.5284848e-64
1.5283393e-64
1.5282979e-64
1.5282882e-64
1.5282863e-64
1.528286e-64
1.5282863e-64
1.5282876e-64
1.5282926e-64
1.5284848e-64
1.5280707e-64
1.5279254e-64
1.5278839e-64
1.5278742e-64
1.5278723e-64
1.5278721e-64
1.5278727e-64
1.5278749e-64
1.5278835e-64
1.5283393e-64
1.5279254e-64
1.5277801e-64
1.5277386e-64
1.5277289e-64
1.5277271e-64
1.5277269e-64
1.5277276e-64
1.5277303e-64
1.5277398e-64
1.5282979e-64
1.5278839e-64
1.5277386e-64
1.5276972e-64
1.5276875e-64
1.5276856e-64
1.5276855e-64
1.5276862e-64
1.5276891e-64
1.5276988e-64
1.5282882e-64
1.5278742e-64
1.5277289e-64
1.5276875e-64
1.5276778e-64
1.5276759e-64
1.5276758e-64
1.5276765e-64
1.5276794e-64
1.5276892e-64
1.5282863e-64
1.5278723e-64
1.5277271e-64
1.5276856e-64
1.5276759e-64
1.5276741e-64
1.5276739e-64
1.5276746e-64
1.5276775e-64
1.5276873e-64
1.528286e-64
1.5278721e-64
1.5277269e-64
1.5276855e-64
1.5276758e-64
1.5276739e-64
1.5276738e-64
1.5276745e-64
1.5276774e-64
1.5276872e-64
1.5282863e-64
1.5278727e-64
1.5277276e-64
1.5276862e-64
1.5276765e-64
1.5276746e-64
1.5276745e-64
1.5276752e-64
1.5276781e-64
1.5276879e-64
1.5282876e-64
1.5278749e-64
1.5277303e-64
1.5276891e-64
1.5276794e-64
1.5276775e-64
1.5276774e-64
1.5276781e-64
1.527681e-64
1.5276908e-64
1.5282926e-64
1.5278835e-64
1.5277398e-64
1.5276988e-64
1.5276892e-64
1.5276873e-64
1.5276872e-64
1.5276879e-64
1.5276908e-64
1.5277006e-64
9.8534511e-64
9.8508604e-64
9.8499494e-64
9.8496896e-64
9.8496287e-64
9.8496168e-64
9.8496153e-64
9.8496172e-64
9.8496254e-64
9.8496558e-64
9.8508604e-64
9.8482712e-64
9.8473607e-64
9.8471011e-64
9.8470402e-64
9.8470283e-64
9.8470271e-64
9.8470305e-64
9.8470447e-64
9.847098e-64
9.8499494e-64
9.8473607e-64
9.8464504e-64
9.8461908e-64
9.84613e-64
9.8461182e-64
9.8461171e-64
9.8461214e-64
9.8461384e-64
9.8461978e-64
9.8496896e-64
9.8471011e-64
9.8461908e-64
9.8459312e-64
9.8458704e-64
9.8458586e-64
9.8458577e-64
9.8458622e-64
9.8458801e-64
9.8459409e-64
9.8496287e-64
9.8470402e-64
9.84613e-64
9.8458704e-64
9.8458095e-64
9.8457978e-64
9.8457968e-64
9.8458014e-64
9.8458196e-64
9.8458807e-64
9.8496168e-64
9.8470283e-64
9.8461182e-64
9.8458586e-64
9.8457978e-64
9.845786e-64
9.8457851e-64
9.8457897e-64
9.8458079e-64
9.845869e-64
9.8496153e-64
9.8470271e-64
9.8461171e-64
9.8458577e-64
9.8457968e-64
9.8457851e-64
9.8457842e-64
9.8457888e-64
9.845807e-64
9.8458681e-64
9.8496172e-64
9.8470305e-64
9.8461214e-64
9.8458622e-64
9.8458014e-64
9.8457897e-64
9.8457888e-64
9.8457934e-64
9.8458116e-64
9.8458727e-64
9.8496254e-64
9.8470447e-64
9.8461384e-64
9.8458801e-64
9.8458196e-64
9.8458079e-64
9.845807e-64
9.8458116e-64
9.8458298e-64
9.8458909e-64
9.8496558e-64
9.847098e-64
9.8461978e-64
9.8459409e-64
9.8458807e-64
9.845869e-64
9.8458681e-64
9.8458727e-64
9.8458909e-64
9.8459521e-64
6.5037669e-63
6.5021085e-63
6.5015243e-63
6.5013576e-63
6.5013186e-63
6.5013109e-63
6.5013099e-63
6.5013112e-63
6.5013164e-63
6.5013355e-63
6.5021085e-63
6.5004511e-63
6.4998673e-63
6.4997007e-63
6.4996616e-63
6.499654e-63
6.4996532e-63
6.4996554e-63
6.4996646e-63
6.4996986e-63
6.5015243e-63
6.4998673e-63
6.4992836e-63
6.499117e-63
6.4990779e-63
6.4990703e-63
6.4990697e-63
6.4990724e-63
6.4990835e-63
6.4991214e-63
6.5013576e-63
6.4997007e-63
6.499117e-63
6.4989504e-63
6.4989114e-63
6.4989038e-63
6.4989032e-63
6.4989061e-63
6.4989177e-63
6.4989566e-63
6.5013186e-63
6.4996616e-63
6.4990779e-63
6.4989114e-63
6.4988723e-63
6.4988647e-63
6.4988642e-63
6.4988672e-63
6.4988789e-63
6.4989179e-63
6.5013109e-63
6.499654e-63
6.4990703e-63
6.4989038e-63
6.4988647e-63
6.4988572e-63
6.4988566e-63
6.4988596e-63
6.4988714e-63
6.4989105e-63
6.5013099e-63
6.4996532e-63
6.4990697e-63
6.4989032e-63
6.4988642e-63
6.4988566e-63
6.498856e-63
6.498859e-63
6.4988708e-63
6.4989099e-63
6.5013112e-63
6.4996554e-63
6.4990724e-63
6.4989061e-63
6.4988672e-63
6.4988596e-63
6.498859e-63
6.498862e-63
6.4988738e-63
6.4989129e-63
6.5013164e-63
6.4996646e-63
6.4990835e-63
6.4989177e-63
6.4988789e-63
6.4988714e-63
6.4988708e-63
6.4988738e-63
6.4988856e-63
6.4989247e-63
6.5013355e-63
6.4996986e-63
6.4991214e-63
6.4989566e-63
6.4989179e-63
6.4989105e-63
6.4989099e-63
6.4989129e-63
6.4989247e-63
6.4989638e-63
4.3963547e-62
4.3952681e-62
4.3948847e-62
4.3947752e-62
4.3947495e-62
4.3947445e-62
4.3947438e-62
4.3947447e-62
4.3947481e-62
4.3947604e-62
4.3952681e-62
4.3941821e-62
4.3937989e-62
4.3936895e-62
4.3936638e-62
4.3936588e-62
4.3936583e-62
4.3936598e-62
4.3936658e-62
4.393688e-62
4.3948847e-62
4.3937989e-62
4.3934158e-62
4.3933064e-62
4.3932807e-62
4.3932757e-62
4.3932753e-62
4.3932771e-62
4.3932845e-62
4.3933093e-62
4.3947752e-62
4.3936895e-62
4.3933064e-62
4.393197e-62
4.3931713e-62
4.3931664e-62
4.393166e-62
4.3931679e-62
4.3931756e-62
4.393201e-62
4.3947495e-62
4.3936638e-62
4.3932807e-62
4.3931713e-62
4.3931457e-62
4.3931407e-62
4.3931403e-62
4.3931423e-62
4.3931501e-62
4.3931757e-62
4.3947445e-62
4.3936588e-62
4.3932757e-62
4.3931664e-62
4.3931407e-62
4.3931357e-62
4.3931354e-62
4.3931374e-62
4.3931451e-62
4.3931707e-62
4.3947438e-62
4.3936583e-62
4.3932753e-62
4.393166e-62
4.3931403e-62
4.3931354e-62
4.393135e-62
4.393137e-62
4.3931448e-62
4.3931704e-62
4.3947447e-62
4.3936598e-62
4.3932771e-62
4.3931679e-62
4.3931423e-62
4.3931374e-62
4.393137e-62
4.393139e-62
4.3931468e-62
4.3931724e-62
4.3947481e-62
4.3936658e-62
4.3932845e-62
4.3931756e-62
4.3931501e-62
4.3931451e-62
4.3931448e-62
4.3931468e-62
4.3931546e-62
4.3931802e-62
4.3947604e-62
4.393688e-62
4.3933093e-62
4.393201e-62
4.3931757e-62
4.3931707e-62
4.3931704e-62
4.3931724e-62
4.3931802e-62
4.3932058e-62
3.0433394e-61
3.0426107e-61
3.0423531e-61
3.0422796e-61
3.0422623e-61
3.0422589e-61
3.0422585e-61
3.042259e-61
3.0422614e-61
3.0422694e-61
3.0426107e-61
3.0418824e-61
3.041625e-61
3.0415514e-61
3.0415342e-61
3.0415308e-61
3.0415305e-61
3.0415315e-61
3.0415356e-61
3.0415504e-61
3.0423531e-61
3.041625e-61
3.0413676e-61
3.0412941e-61
3.0412768e-61
3.0412735e-61
3.0412732e-61
3.0412744e-61
3.0412794e-61
3.041296e-61
3.0422796e-61
3.0415514e-61
3.0412941e-61
3.0412205e-61
3.0412033e-61
3.0411999e-61
3.0411997e-61
3.041201e-61
3.0412062e-61
3.0412233e-61
3.0422623e-61
3.0415342e-61
3.0412768e-61
3.0412033e-61
3.041186e-61
3.0411827e-61
3.0411825e-61
3.0411838e-61
3.0411891e-61
3.0412062e-61
3.0422589e-61
3.0415308e-61
3.0412735e-61
3.0411999e-61
3.0411827e-61
3.0411794e-61
3.0411791e-61
3.0411805e-61
3.0411858e-61
3.0412029e-61
3.0422585e-61
3.0415305e-61
3.0412732e-61
3.0411997e-61
3.0411825e-61
3.0411791e-61
3.0411789e-61
3.0411802e-61
3.0411855e-61
3.0412027e-61
3.042259e-61
3.0415315e-61
3.0412744e-61
3.041201e-61
3.0411838e-61
3.0411805e-61
3.0411802e-61
3.0411816e-61
3.0411869e-61
3.0412041e-61
3.0422614e-61
3.0415356e-61
3.0412794e-61
3.0412062e-61
3.0411891e-61
3.0411858e-61
3.0411855e-61
3.0411869e-61
3.0411922e-61
3.0412093e-61
3.0422694e-61
3.0415504e-61
3.041296e-61
3.0412233e-61
3.0412062e-61
3.0412029e-61
3.0412027e-61
3.0412041e-61
3.0412093e-61
3.0412265e-61
2.1573033e-60
2.1568032e-60
2.1566261e-60
2.1565755e-60
2.1565636e-60
2.1565613e-60
2.156561e-60
2.1565614e-60
2.156563e-60
2.1565684e-60
2.1568032e-60
2.1563033e-60
2.1561263e-60
2.1560757e-60
2.1560638e-60
2.1560615e-60
2.1560613e-60
2.156062e-60
2.1560648e-60
2.156075e-60
2.1566261e-60
2.1561263e-60
2.1559494e-60
2.1558988e-60
2.1558869e-60
2.1558846e-60
2.1558844e-60
2.1558853e-60
2.1558887e-60
2.1559001e-60
2.1565755e-60
2.1560757e-60
2.1558988e-60
2.1558482e-60
2.1558363e-60
2.155834e-60
2.1558339e-60
2.1558348e-60
2.1558384e-60
2.1558501e-60
2.1565636e-60
2.1560638e-60
2.1558869e-60
2.1558363e-60
2.1558245e-60
2.1558222e-60
2.155822e-60
2.1558229e-60
2.1558266e-60
2.1558384e-60
2.1565613e-60
2.1560615e-60
2.1558846e-60
2.155834e-60
2.1558222e-60
2.1558199e-60
2.1558197e-60
2.1558206e-60
2.1558243e-60
2.1558361e-60
2.156561e-60
2.1560613e-60
2.1558844e-60
2.1558339e-60
2.155822e-60
2.1558197e-60
2.1558195e-60
2.1558205e-60
2.1558241e-60
2.155836e-60
2.1565614e-60
2.156062e-60
2.1558853e-60
2.1558348e-60
2.1558229e-60
2.1558206e-60
2.1558205e-60
2.1558214e-60
2.1558251e-60
2.1558369e-60
2.156563e-60
2.1560648e-60
2.1558887e-60
2.1558384e-60
2.1558266e-60
2.1558243e-60
2.1558241e-60
2.1558251e-60
2.1558288e-60
2.1558406e-60
2.1565684e-60
2.156075e-60
2.1559001e-60
2.1558501e-60
2.1558384e-60
2.1558361e-60
2.155836e-60
2.1558369e-60
2.1558406e-60
2.1558524e-60
1.5658233e-59
1.565472e-59
1.5653474e-59
1.5653118e-59
1.5653034e-59
1.5653018e-59
1.5653016e-59
1.5653018e-59
1.565303e-59
1.5653067e-59
1.565472e-59
1.5651209e-59
1.5649964e-59
1.5649607e-59
1.5649524e-59
1.5649507e-59
1.5649506e-59
1.5649511e-59
1.5649531e-59
1.5649602e-59
1.5653474e-59
1.5649964e-59
1.5648719e-59
1.5648363e-59
1.5648279e-59
1.5648263e-59
1.5648262e-59
1.5648268e-59
1.5648292e-59
1.5648373e-59
1.5653118e-59
1.5649607e-59
1.5648363e-59
1.5648007e-59
1.5647923e-59
1.5647907e-59
1.5647906e-59
1.5647912e-59
1.5647938e-59
1.564802e-59
1.5653034e-59
1.5649524e-59
1.5648279e-59
1.5647923e-59
1.5647839e-59
1.5647823e-59
1.5647822e-59
1.5647829e-59
1.5647855e-59
1.5647938e-59
1.5653018e-59
1.5649507e-59
1.5648263e-59
1.5647907e-59
1.5647823e-59
1.5647807e-59
1.5647806e-59
1.5647813e-59
1.5647839e-59
1.5647922e-59
1.5653016e-59
1.5649506e-59
1.5648262e-59
1.5647906e-59
1.5647822e-59
1.5647806e-59
1.5647805e-59
1.5647812e-59
1.5647838e-59
1.5647921e-59
1.5653018e-59
1.5649511e-59
1.5648268e-59
1.5647912e-59
1.5647829e-59
1.5647813e-59
1.5647812e-59
1.5647818e-59
1.5647844e-59
1.5647927e-59
1.565303e-59
1.5649531e-59
1.5648292e-59
1.5647938e-59
1.5647855e-59
1.5647839e-59
1.5647838e-59
1.5647844e-59
1.564787e-59
1.5647954e-59
1.5653067e-59
1.5649602e-59
1.5648373e-59
1.564802e-59
1.5647938e-59
1.5647922e-59
1.5647921e-59
1.5647927e-59
1.5647954e-59
1.5648037e-59
1.163608e-58
1.1633555e-58
1.1632658e-58
1.1632402e-58
1.1632341e-58
1.1632329e-58
1.1632328e-58
1.163233e-58
1.1632338e-58
1.1632365e-58
1.1633555e-58
1.1631031e-58
1.1630135e-58
1.1629878e-58
1.1629818e-58
1.1629807e-58
1.1629805e-58
1.1629809e-58
1.1629824e-58
1.1629875e-58
1.1632658e-58
1.1630135e-58
1.1629239e-58
1.1628982e-58
1.1628922e-58
1.1628911e-58
1.162891e-58
1.1628914e-58
1.1628932e-58
1.162899e-58
1.1632402e-58
1.1629878e-58
1.1628982e-58
1.1628726e-58
1.1628666e-58
1.1628654e-58
1.1628653e-58
1.1628658e-58
1.1628677e-58
1.1628736e-58
1.1632341e-58
1.1629818e-58
1.1628922e-58
1.1628666e-58
1.1628606e-58
1.1628594e-58
1.1628593e-58
1.1628598e-58
1.1628617e-58
1.1628677e-58
1.1632329e-58
1.1629807e-58
1.1628911e-58
1.1628654e-58
1.1628594e-58
1.1628582e-58
1.1628582e-58
1.1628586e-58
1.1628605e-58
1.1628665e-58
1.1632328e-58
1.1629805e-58
1.162891e-58
1.1628653e-58
1.1628593e-58
1.1628582e-58
1.1628581e-58
1.1628586e-58
1.1628605e-58
1.1628665e-58
1.163233e-58
1.1629809e-58
1.1628914e-58
1.1628658e-58
1.1628598e-58
1.1628586e-58
1.1628586e-58
1.1628591e-58
1.162861e-58
1.1628669e-58
1.1632338e-58
1.1629824e-58
1.1628932e-58
1.1628677e-58
1.1628617e-58
1.1628605e-58
1.1628605e-58
1.162861e-58
1.1628629e-58
1.1628688e-58
1.1632365e-58
1.1629875e-58
1.162899e-58
1.1628736e-58
1.1628677e-58
1.1628665e-58
1.1628665e-58
1.1628669e-58
1.1628688e-58
1.1628748e-58
8.8523524e-58
8.8504956e-58
8.8498353e-58
8.8496462e-58
8.8496017e-58
8.8495931e-58
8.849592e-58
8.8495935e-58
8.8495995e-58
8.8496188e-58
8.8504956e-58
8.8486399e-58
8.8479799e-58
8.8477908e-58
8.8477464e-58
8.8477378e-58
8.847737e-58
8.8477397e-58
8.8477506e-58
8.8477885e-58
8.8498353e-58
8.8479799e-58
8.84732e-58
8.847131e-58
8.8470866e-58
8.847078e-58
8.8470773e-58
8.8470807e-58
8.8470939e-58
8.8471367e-58
8.8496462e-58
8.8477908e-58
8.847131e-58
8.846942e-58
8.8468976e-58
8.846889e-58
8.8468884e-58
8.846892e-58
8.846906e-58
8.8469499e-58
8.8496017e-58
8.8477464e-58
8.8470866e-58
8.8468976e-58
8.8468532e-58
8.8468447e-58
8.8468441e-58
8.8468478e-58
8.8468619e-58
8.846906e-58
8.8495931e-58
8.8477378e-58
8.847078e-58
8.846889e-58
8.8468447e-58
8.8468361e-58
8.8468355e-58
8.8468392e-58
8.8468533e-58
8.8468976e-58
8.849592e-58
8.847737e-58
8.8470773e-58
8.8468884e-58
8.8468441e-58
8.8468355e-58
8.8468349e-58
8.8468386e-58
8.8468528e-58
8.846897e-58
8.8495935e-58
8.8477397e-58
8.8470807e-58
8.846892e-58
8.8468478e-58
8.8468392e-58
8.8468386e-58
8.8468423e-58
8.8468564e-58
8.8469007e-58
8.8495995e-58
8.8477506e-58
8.8470939e-58
8.846906e-58
8.8468619e-58
8.8468533e-58
8.8468528e-58
8.8468564e-58
8.8468706e-58
8.8469148e-58
8.8496188e-58
8.8477885e-58
8.8471367e-58
8.8469499e-58
8.846906e-58
8.8468976e-58
8.846897e-58
8.8469007e-58
8.8469148e-58
8.8469591e-58
6.8936328e-57
6.892236e-57
6.8917385e-57
6.891596e-57
6.8915625e-57
6.891556e-57
6.8915551e-57
6.8915563e-57
6.8915608e-57
6.8915752e-57
6.892236e-57
6.89084e-57
6.8903428e-57
6.8902003e-57
6.8901668e-57
6.8901603e-57
6.8901597e-57
6.8901618e-57
6.8901701e-57
6.8901987e-57
6.8917385e-57
6.8903428e-57
6.8898457e-57
6.8897032e-57
6.8896697e-57
6.8896633e-57
6.8896628e-57
6.8896653e-57
6.8896754e-57
6.8897078e-57
6.891596e-57
6.8902003e-57
6.8897032e-57
6.8895608e-57
6.8895273e-57
6.8895208e-57
6.8895204e-57
6.8895232e-57
6.8895338e-57
6.889567e-57
6.8915625e-57
6.8901668e-57
6.8896697e-57
6.8895273e-57
6.8894939e-57
6.8894874e-57
6.889487e-57
6.8894898e-57
6.8895005e-57
6.8895339e-57
6.891556e-57
6.8901603e-57
6.8896633e-57
6.8895208e-57
6.8894874e-57
6.8894809e-57
6.8894805e-57
6.8894833e-57
6.8894941e-57
6.8895275e-57
6.8915551e-57
6.8901597e-57
6.8896628e-57
6.8895204e-57
6.889487e-57
6.8894805e-57
6.8894801e-57
6.8894829e-57
6.8894937e-57
6.8895271e-57
6.8915563e-57
6.8901618e-57
6.8896653e-57
6.8895232e-57
6.8894898e-57
6.8894833e-57
6.8894829e-57
6.8894857e-57
6.8894965e-57
6.88953e-57
6.8915608e-57
6.8901701e-57
6.8896754e-57
6.8895338e-57
6.8895005e-57
6.8894941e-57
6.8894937e-57
6.8894965e-57
6.8895073e-57
6.8895407e-57
6.8915752e-57
6.8901987e-57
6.8897078e-57
6.889567e-57
6.8895339e-57
6.8895275e-57
6.8895271e-57
6.88953e-57
6.8895407e-57
6.8895742e-57
5.4943709e-56
5.4932962e-56
5.4929129e-56
5.492803e-56
5.4927772e-56
5.4927721e-56
5.4927715e-56
5.4927724e-56
5.4927759e-56
5.4927869e-56
5.4932962e-56
5.4922221e-56
5.491839e-56
5.4917292e-56
5.4917033e-56
5.4916983e-56
5.4916979e-56
5.4916995e-56
5.491706e-56
5.491728e-56
5.4929129e-56
5.491839e-56
5.4914559e-56
5.4913461e-56
5.4913203e-56
5.4913153e-56
5.491315e-56
5.491317e-56
5.4913248e-56
5.4913498e-56
5.492803e-56
5.4917292e-56
5.4913461e-56
5.4912363e-56
5.4912105e-56
5.4912055e-56
5.4912052e-56
5.4912074e-56
5.4912156e-56
5.4912414e-56
5.4927772e-56
5.4917033e-56
5.4913203e-56
5.4912105e-56
5.4911847e-56
5.4911797e-56
5.4911794e-56
5.4911816e-56
5.49119e-56
5.4912159e-56
5.4927721e-56
5.4916983e-56
5.4913153e-56
5.4912055e-56
5.4911797e-56
5.4911747e-56
5.4911744e-56
5.4911766e-56
5.491185e-56
5.4912109e-56
5.4927715e-56
5.4916979e-56
5.491315e-56
5.4912052e-56
5.4911794e-56
5.4911744e-56
5.4911741e-56
5.4911763e-56
5.4911847e-56
5.4912106e-56
5.4927724e-56
5.4916995e-56
5.491317e-56
5.4912074e-56
5.4911816e-56
5.4911766e-56
5.4911763e-56
5.4911785e-56
5.4911869e-56
5.4912128e-56
5.4927759e-56
5.491706e-56
5.4913248e-56
5.4912156e-56
5.49119e-56
5.491185e-56
5.4911847e-56
5.4911869e-56
5.4911953e-56
5.4912212e-56
5.4927869e-56
5.491728e-56
5.4913498e-56
5.4912414e-56
5.4912159e-56
5.4912109e-56
5.4912106e-56
5.4912128e-56
5.4912212e-56
5.4912471e-56
4.4813041e-55
4.4804585e-55
4.4801565e-55
4.4800698e-55
4.4800495e-55
4.4800455e-55
4.480045e-55
4.4800457e-55
4.4800485e-55
4.480057e-55
4.4804585e-55
4.4796133e-55
4.4793115e-55
4.4792249e-55
4.4792045e-55
4.4792005e-55
4.4792002e-55
4.4792015e-55
4.4792066e-55
4.4792241e-55
4.4801565e-55
4.4793115e-55
4.4790096e-55
4.4789231e-55
4.4789027e-55
4.4788988e-55
4.4788985e-55
4.4789001e-55
4.4789064e-55
4.4789262e-55
4.4800698e-55
4.4792249e-55
4.4789231e-55
4.4788365e-55
4.4788161e-55
4.4788122e-55
4.4788119e-55
4.4788137e-55
4.4788203e-55
4.4788407e-55
4.4800495e-55
4.4792045e-55
4.4789027e-55
4.4788161e-55
4.4787958e-55
4.4787919e-55
4.4787916e-55
4.4787934e-55
4.4788001e-55
4.4788206e-55
4.4800455e-55
4.4792005e-55
4.4788988e-55
4.4788122e-55
4.4787919e-55
4.4787879e-55
4.4787877e-55
4.4787895e-55
4.4787962e-55
4.4788167e-55
4.480045e-55
4.4792002e-55
4.4788985e-55
4.4788119e-55
4.4787916e-55
4.4787877e-55
4.4787874e-55
4.4787892e-55
4.4787959e-55
4.4788164e-55
4.4800457e-55
4.4792015e-55
4.4789001e-55
4.4788137e-55
4.4787934e-55
4.4787895e-55
4.4787892e-55
4.478791e-55
4.4787977e-55
4.4788182e-55
4.4800485e-55
4.4792066e-55
4.4789064e-55
4.4788203e-55
4.4788001e-55
4.4787962e-55
4.4787959e-55
4.4787977e-55
4.4788044e-55
4.4788249e-55
4.480057e-55
4.4792241e-55
4.4789262e-55
4.4788407e-55
4.4788206e-55
4.4788167e-55
4.4788164e-55
4.4788182e-55
4.4788249e-55
4.4788455e-55
3.7397e-54
3.7390197e-54
3.7387764e-54
3.7387066e-54
3.7386901e-54
3.7386869e-54
3.7386865e-54
3.7386871e-54
3.7386894e-54
3.7386962e-54
3.7390197e-54
3.7383398e-54
3.7380966e-54
3.7380268e-54
3.7380104e-54
3.7380072e-54
3.7380069e-54
3.7380079e-54
3.7380122e-54
3.7380263e-54
3.7387764e-54
3.7380966e-54
3.7378534e-54
3.7377836e-54
3.7377672e-54
3.7377641e-54
3.7377638e-54
3.7377652e-54
3.7377703e-54
3.7377863e-54
3.7387066e-54
3.7380268e-54
3.7377836e-54
3.7377139e-54
3.7376975e-54
3.7376943e-54
3.7376941e-54
3.7376955e-54
3.7377009e-54
3.7377174e-54
3.7386901e-54
3.7380104e-54
3.7377672e-54
3.7376975e-54
3.7376811e-54
3.7376779e-54
3.7376777e-54
3.7376791e-54
3.7376846e-54
3.7377012e-54
3.7386869e-54
3.7380072e-54
3.7377641e-54
3.7376943e-54
3.7376779e-54
3.7376747e-54
3.7376745e-54
3.737676e-54
3.7376815e-54
3.7376981e-54
3.7386865e-54
3.7380069e-54
3.7377638e-54
3.7376941e-54
3.7376777e-54
3.7376745e-54
3.7376743e-54
3.7376758e-54
3.7376813e-54
3.7376979e-54
3.7386871e-54
3.7380079e-54
3.7377652e-54
3.7376955e-54
3.7376791e-54
3.737676e-54
3.7376758e-54
3.7376772e-54
3.7376827e-54
3.7376994e-54
3.7386894e-54
3.7380122e-54
3.7377703e-54
3.7377009e-54
3.7376846e-54
3.7376815e-54
3.7376813e-54
3.7376827e-54
3.7376882e-54
3.7377048e-54
3.7386962e-54
3.7380263e-54
3.7377863e-54
3.7377174e-54
3.7377012e-54
3.7376981e-54
3.7376979e-54
3.7376994e-54
3.7377048e-54
3.7377215e-54
3.1925456e-53
3.1919861e-53
3.1917858e-53
3.1917283e-53
3.1917147e-53
3.1917121e-53
3.1917118e-53
3.1917122e-53
3.1917141e-53
3.1917197e-53
3.1919861e-53
3.191427e-53
3.1912267e-53
3.1911692e-53
3.1911557e-53
3.191153e-53
3.1911528e-53
3.1911537e-53
3.1911572e-53
3.1911689e-53
3.1917858e-53
3.1912267e-53
3.1910265e-53
3.190969e-53
3.1909555e-53
3.1909528e-53
3.1909527e-53
3.1909538e-53
3.190958e-53
3.1909714e-53
3.1917283e-53
3.1911692e-53
3.190969e-53
3.1909115e-53
3.190898e-53
3.1908953e-53
3.1908952e-53
3.1908964e-53
3.1909009e-53
3.1909146e-53
3.1917147e-53
3.1911557e-53
3.1909555e-53
3.190898e-53
3.1908845e-53
3.1908818e-53
3.1908817e-53
3.1908829e-53
3.1908875e-53
3.1909012e-53
3.1917121e-53
3.191153e-53
3.1909528e-53
3.1908953e-53
3.1908818e-53
3.1908792e-53
3.1908791e-53
3.1908803e-53
3.1908849e-53
3.1908987e-53
3.1917118e-53
3.1911528e-53
3.1909527e-53
3.1908952e-53
3.1908817e-53
3.1908791e-53
3.1908789e-53
3.1908801e-53
3.1908847e-53
3.1908985e-53
3.1917122e-53
3.1911537e-53
3.1909538e-53
3.1908964e-53
3.1908829e-53
3.1908803e-53
3.1908801e-53
3.1908814e-53
3.1908859e-53
3.1908997e-53
3.1917141e-53
3.1911572e-53
3.190958e-53
3.1909009e-53
3.1908875e-53
3.1908849e-53
3.1908847e-53
3.1908859e-53
3.1908905e-53
3.1909043e-53
3.1917197e-53
3.1911689e-53
3.1909714e-53
3.1909146e-53
3.1909012e-53
3.1908987e-53
3.1908985e-53
3.1908997e-53
3.1909043e-53
3.1909181e-53
2.7875333e-52
2.7870631e-52
2.7868944e-52
2.786846e-52
2.7868346e-52
2.7868324e-52
2.7868321e-52
2.7868325e-52
2.7868341e-52
2.7868388e-52
2.7870631e-52
2.7865931e-52
2.7864245e-52
2.7863761e-52
2.7863647e-52
2.7863625e-52
2.7863623e-52
2.786363e-52
2.7863661e-52
2.7863759e-52
2.7868944e-52
2.7864245e-52
2.786256e-52
2.7862076e-52
2.7861962e-52
2.786194e-52
2.7861939e-52
2.7861948e-52
2.7861985e-52
2.7862098e-52
2.786846e-52
2.7863761e-52
2.7862076e-52
2.7861592e-52
2.7861478e-52
2.7861456e-52
2.7861455e-52
2.7861465e-52
2.7861503e-52
2.786162e-52
2.7868346e-52
2.7863647e-52
2.7861962e-52
2.7861478e-52
2.7861364e-52
2.7861342e-52
2.7861341e-52
2.7861351e-52
2.786139e-52
2.7861507e-52
2.7868324e-52
2.7863625e-52
2.786194e-52
2.7861456e-52
2.7861342e-52
2.786132e-52
2.7861319e-52
2.7861329e-52
2.7861369e-52
2.7861486e-52
2.7868321e-52
2.7863623e-52
2.7861939e-52
2.7861455e-52
2.7861341e-52
2.7861319e-52
2.7861318e-52
2.7861328e-52
2.7861367e-52
2.7861484e-52
2.7868325e-52
2.786363e-52
2.7861948e-52
2.7861465e-52
2.7861351e-52
2.7861329e-52
2.7861328e-52
2.7861339e-52
2.7861378e-52
2.7861495e-52
2.7868341e-52
2.7863661e-52
2.7861985e-52
2.7861503e-52
2.786139e-52
2.7861369e-52
2.7861367e-52
2.7861378e-52
2.7861417e-52
2.7861534e-52
2.7868388e-52
2.7863759e-52
2.7862098e-52
2.786162e-52
2.7861507e-52
2.7861486e-52
2.7861484e-52
2.7861495e-52