/*--------------------------------*- C++ -*----------------------------------*\
| =========                 |                                                 |
| \\      /  F ield         | OpenFOAM: The Open Source CFD Toolbox           |
|  \\    /   O peration     | Version:  dev                                   |
|   \\  /    A nd           | Web:      www.OpenFOAM.org                      |
|    \\/     M anipulation  |                                                 |
\*---------------------------------------------------------------------------*/
FoamFile
{
    version     2.0;
    format      ascii;
    class       volScalarField;
    location    "60.995";
    object      A;
}
// * * * * * * * * * * * * * * * * * * * * * * * * * * * * * * * * * * * * * //

dimensions      [0 0 0 0 1 0 0];

internalField   nonuniform List<scalar> 
10000
(
4.0511418e-29
4.0444398e-29
4.0412418e-29
4.0397643e-29
4.0391464e-29
4.0389324e-29
4.038923e-29
4.0390903e-29
4.0395577e-29
4.0406022e-29
4.0444398e-29
4.0377694e-29
4.0345821e-29
4.0331087e-29
4.0324929e-29
4.032281e-29
4.0322764e-29
4.032457e-29
4.0329621e-29
4.0341193e-29
4.0412418e-29
4.0345821e-29
4.0314005e-29
4.02993e-29
4.0293159e-29
4.0291062e-29
4.0291066e-29
4.0292989e-29
4.0298282e-29
4.0310226e-29
4.0397643e-29
4.0331087e-29
4.02993e-29
4.0284611e-29
4.0278481e-29
4.02764e-29
4.0276437e-29
4.0278429e-29
4.0283839e-29
4.0295911e-29
4.0391464e-29
4.0324929e-29
4.0293159e-29
4.0278481e-29
4.0272359e-29
4.0270288e-29
4.0270343e-29
4.0272368e-29
4.0277826e-29
4.0289942e-29
4.0389324e-29
4.032281e-29
4.0291062e-29
4.02764e-29
4.0270288e-29
4.0268224e-29
4.0268288e-29
4.0270326e-29
4.0275802e-29
4.0287933e-29
4.038923e-29
4.0322764e-29
4.0291066e-29
4.0276437e-29
4.0270343e-29
4.0268288e-29
4.0268358e-29
4.0270402e-29
4.0275885e-29
4.0288022e-29
4.0390903e-29
4.032457e-29
4.0292989e-29
4.0278429e-29
4.0272368e-29
4.0270326e-29
4.0270402e-29
4.027245e-29
4.0277937e-29
4.0290078e-29
4.0395577e-29
4.0329621e-29
4.0298282e-29
4.0283839e-29
4.0277826e-29
4.0275802e-29
4.0275885e-29
4.0277937e-29
4.0283431e-29
4.0295582e-29
4.0406022e-29
4.0341193e-29
4.0310226e-29
4.0295911e-29
4.0289942e-29
4.0287933e-29
4.0288022e-29
4.0290078e-29
4.0295582e-29
4.0307769e-29
1.4104025e-28
1.4081557e-28
1.4070559e-28
1.4065467e-28
1.4063337e-28
1.4062598e-28
1.4062565e-28
1.4063139e-28
1.4064746e-28
1.4068477e-28
1.4081557e-28
1.4059192e-28
1.404823e-28
1.4043153e-28
1.4041029e-28
1.4040298e-28
1.4040281e-28
1.4040901e-28
1.404264e-28
1.4046764e-28
1.4070559e-28
1.404823e-28
1.4037289e-28
1.4032221e-28
1.4030103e-28
1.4029379e-28
1.402938e-28
1.4030041e-28
1.4031863e-28
1.4036117e-28
1.4065467e-28
1.4043153e-28
1.4032221e-28
1.4027158e-28
1.4025044e-28
1.4024326e-28
1.4024338e-28
1.4025023e-28
1.4026886e-28
1.4031184e-28
1.4063337e-28
1.4041029e-28
1.4030103e-28
1.4025044e-28
1.4022933e-28
1.4022218e-28
1.4022237e-28
1.4022933e-28
1.4024813e-28
1.4029126e-28
1.4062598e-28
1.4040298e-28
1.4029379e-28
1.4024326e-28
1.4022218e-28
1.4021506e-28
1.4021528e-28
1.4022229e-28
1.4024114e-28
1.4028433e-28
1.4062565e-28
1.4040281e-28
1.402938e-28
1.4024338e-28
1.4022237e-28
1.4021528e-28
1.4021551e-28
1.4022254e-28
1.4024142e-28
1.4028463e-28
1.4063139e-28
1.4040901e-28
1.4030041e-28
1.4025023e-28
1.4022933e-28
1.4022229e-28
1.4022254e-28
1.4022958e-28
1.4024848e-28
1.402917e-28
1.4064746e-28
1.404264e-28
1.4031863e-28
1.4026886e-28
1.4024813e-28
1.4024114e-28
1.4024142e-28
1.4024848e-28
1.402674e-28
1.4031066e-28
1.4068477e-28
1.4046764e-28
1.4036117e-28
1.4031184e-28
1.4029126e-28
1.4028433e-28
1.4028463e-28
1.402917e-28
1.4031066e-28
1.4035404e-28
3.1153438e-28
3.1105401e-28
3.1081608e-28
3.1070564e-28
3.1065937e-28
3.1064332e-28
3.1064256e-28
3.1065493e-28
3.1068955e-28
3.1077236e-28
3.1105401e-28
3.105758e-28
3.1033864e-28
3.1022851e-28
3.1018239e-28
3.1016649e-28
3.101661e-28
3.1017947e-28
3.1021699e-28
3.1030848e-28
3.1081608e-28
3.1033864e-28
3.1010191e-28
3.0999198e-28
3.0994599e-28
3.0993026e-28
3.0993025e-28
3.0994452e-28
3.0998388e-28
3.1007821e-28
3.1070564e-28
3.1022851e-28
3.0999198e-28
3.0988217e-28
3.0983626e-28
3.0982066e-28
3.098209e-28
3.098357e-28
3.0987594e-28
3.0997125e-28
3.1065937e-28
3.1018239e-28
3.0994599e-28
3.0983626e-28
3.0979042e-28
3.0977489e-28
3.0977527e-28
3.0979031e-28
3.0983092e-28
3.0992657e-28
3.1064332e-28
3.1016649e-28
3.0993026e-28
3.0982066e-28
3.0977489e-28
3.0975941e-28
3.0975985e-28
3.09775e-28
3.0981576e-28
3.0991151e-28
3.1064256e-28
3.101661e-28
3.0993025e-28
3.098209e-28
3.0977527e-28
3.0975985e-28
3.0976034e-28
3.0977553e-28
3.0981634e-28
3.0991214e-28
3.1065493e-28
3.1017947e-28
3.0994452e-28
3.098357e-28
3.0979031e-28
3.09775e-28
3.0977553e-28
3.0979076e-28
3.098316e-28
3.0992743e-28
3.1068955e-28
3.1021699e-28
3.0998388e-28
3.0987594e-28
3.0983092e-28
3.0981576e-28
3.0981634e-28
3.098316e-28
3.0987248e-28
3.0996839e-28
3.1077236e-28
3.1030848e-28
3.1007821e-28
3.0997125e-28
3.0992657e-28
3.0991151e-28
3.0991214e-28
3.0992743e-28
3.0996839e-28
3.100646e-28
6.4125829e-28
6.4030092e-28
6.3982352e-28
6.3960136e-28
6.3950816e-28
6.3947577e-28
6.3947417e-28
6.394988e-28
6.3956766e-28
6.3973338e-28
6.4030092e-28
6.3934782e-28
6.3887194e-28
6.3865038e-28
6.3855748e-28
6.3852541e-28
6.3852455e-28
6.3855124e-28
6.3862602e-28
6.3880954e-28
6.3982352e-28
6.3887194e-28
6.3839689e-28
6.3817575e-28
6.3808309e-28
6.3805137e-28
6.3805129e-28
6.3807982e-28
6.3815837e-28
6.3834771e-28
6.3960136e-28
6.3865038e-28
6.3817575e-28
6.3795484e-28
6.3786236e-28
6.3783089e-28
6.3783133e-28
6.3786092e-28
6.3794129e-28
6.3813263e-28
6.3950816e-28
6.3855748e-28
6.3808309e-28
6.3786236e-28
6.3777001e-28
6.3773869e-28
6.377394e-28
6.3776951e-28
6.3785062e-28
6.3804265e-28
6.3947577e-28
6.3852541e-28
6.3805137e-28
6.3783089e-28
6.3773869e-28
6.3770747e-28
6.3770832e-28
6.3773864e-28
6.3782004e-28
6.380123e-28
6.3947417e-28
6.3852455e-28
6.3805129e-28
6.3783133e-28
6.377394e-28
6.3770832e-28
6.3770926e-28
6.3773967e-28
6.3782118e-28
6.3801353e-28
6.394988e-28
6.3855124e-28
6.3807982e-28
6.3786092e-28
6.3776951e-28
6.3773864e-28
6.3773967e-28
6.3777014e-28
6.3785172e-28
6.3804412e-28
6.3956766e-28
6.3862602e-28
6.3815837e-28
6.3794129e-28
6.3785062e-28
6.3782004e-28
6.3782118e-28
6.3785172e-28
6.3793338e-28
6.3812595e-28
6.3973338e-28
6.3880954e-28
6.3834771e-28
6.3813263e-28
6.3804265e-28
6.380123e-28
6.3801353e-28
6.3804412e-28
6.3812595e-28
6.3831911e-28
1.3101287e-27
1.3082355e-27
1.3072869e-27
1.3068444e-27
1.3066585e-27
1.3065938e-27
1.3065904e-27
1.3066389e-27
1.3067741e-27
1.3070984e-27
1.3082355e-27
1.3063506e-27
1.305405e-27
1.3049637e-27
1.3047783e-27
1.3047143e-27
1.3047124e-27
1.3047651e-27
1.3049124e-27
1.3052728e-27
1.3072869e-27
1.305405e-27
1.304461e-27
1.3040205e-27
1.3038357e-27
1.3037723e-27
1.303772e-27
1.3038284e-27
1.3039833e-27
1.3043556e-27
1.3068444e-27
1.3049637e-27
1.3040205e-27
1.3035804e-27
1.303396e-27
1.3033331e-27
1.3033339e-27
1.3033925e-27
1.303551e-27
1.3039273e-27
1.3066585e-27
1.3047783e-27
1.3038357e-27
1.303396e-27
1.3032117e-27
1.3031492e-27
1.3031505e-27
1.3032101e-27
1.3033702e-27
1.3037479e-27
1.3065938e-27
1.3047143e-27
1.3037723e-27
1.3033331e-27
1.3031492e-27
1.3030868e-27
1.3030884e-27
1.3031485e-27
1.3033092e-27
1.3036873e-27
1.3065904e-27
1.3047124e-27
1.303772e-27
1.3033339e-27
1.3031505e-27
1.3030884e-27
1.3030902e-27
1.3031505e-27
1.3033113e-27
1.3036897e-27
1.3066389e-27
1.3047651e-27
1.3038284e-27
1.3033925e-27
1.3032101e-27
1.3031485e-27
1.3031505e-27
1.3032108e-27
1.3033718e-27
1.3037503e-27
1.3067741e-27
1.3049124e-27
1.3039833e-27
1.303551e-27
1.3033702e-27
1.3033092e-27
1.3033113e-27
1.3033718e-27
1.303533e-27
1.3039118e-27
1.3070984e-27
1.3052728e-27
1.3043556e-27
1.3039273e-27
1.3037479e-27
1.3036873e-27
1.3036897e-27
1.3037503e-27
1.3039118e-27
1.3042918e-27
2.6962312e-27
2.6924615e-27
2.6905649e-27
2.6896781e-27
2.689305e-27
2.6891749e-27
2.6891678e-27
2.689264e-27
2.6895308e-27
2.6901661e-27
2.6924615e-27
2.6887082e-27
2.6868175e-27
2.685933e-27
2.685561e-27
2.6854323e-27
2.6854282e-27
2.685533e-27
2.6858244e-27
2.6865337e-27
2.6905649e-27
2.6868175e-27
2.68493e-27
2.6840471e-27
2.6836762e-27
2.6835489e-27
2.683548e-27
2.6836603e-27
2.6839674e-27
2.6847009e-27
2.6896781e-27
2.685933e-27
2.6840471e-27
2.6831652e-27
2.682795e-27
2.6826687e-27
2.68267e-27
2.6827867e-27
2.6831013e-27
2.683843e-27
2.689305e-27
2.685561e-27
2.6836762e-27
2.682795e-27
2.6824252e-27
2.6822995e-27
2.682302e-27
2.6824208e-27
2.6827385e-27
2.6834831e-27
2.6891749e-27
2.6854323e-27
2.6835489e-27
2.6826687e-27
2.6822995e-27
2.6821743e-27
2.6821773e-27
2.682297e-27
2.6826159e-27
2.6833615e-27
2.6891678e-27
2.6854282e-27
2.683548e-27
2.68267e-27
2.682302e-27
2.6821773e-27
2.6821807e-27
2.6823008e-27
2.6826201e-27
2.683366e-27
2.689264e-27
2.685533e-27
2.6836603e-27
2.6827867e-27
2.6824208e-27
2.682297e-27
2.6823008e-27
2.6824211e-27
2.6827406e-27
2.6834869e-27
2.6895308e-27
2.6858244e-27
2.6839674e-27
2.6831013e-27
2.6827385e-27
2.6826159e-27
2.6826201e-27
2.6827406e-27
2.6830605e-27
2.6838073e-27
2.6901661e-27
2.6865337e-27
2.6847009e-27
2.683843e-27
2.6834831e-27
2.6833615e-27
2.683366e-27
2.6834869e-27
2.6838073e-27
2.6845564e-27
5.6098858e-27
5.6023001e-27
5.5984691e-27
5.5966737e-27
5.5959171e-27
5.5956531e-27
5.595638e-27
5.5958306e-27
5.5963624e-27
5.5976178e-27
5.6023001e-27
5.5947471e-27
5.5909278e-27
5.589137e-27
5.5883828e-27
5.5881215e-27
5.5881126e-27
5.5883229e-27
5.5889054e-27
5.5903141e-27
5.5984691e-27
5.5909278e-27
5.587115e-27
5.5853274e-27
5.5845753e-27
5.5843168e-27
5.5843146e-27
5.5845405e-27
5.5851553e-27
5.586614e-27
5.5966737e-27
5.589137e-27
5.5853274e-27
5.5835418e-27
5.5827911e-27
5.5825347e-27
5.5825369e-27
5.5827719e-27
5.5834022e-27
5.584878e-27
5.5959171e-27
5.5883828e-27
5.5845753e-27
5.5827911e-27
5.5820414e-27
5.5817863e-27
5.5817908e-27
5.5820301e-27
5.5826669e-27
5.5841486e-27
5.5956531e-27
5.5881215e-27
5.5843168e-27
5.5825347e-27
5.5817863e-27
5.5815321e-27
5.5815378e-27
5.5817789e-27
5.5824181e-27
5.5839018e-27
5.595638e-27
5.5881126e-27
5.5843146e-27
5.5825369e-27
5.5817908e-27
5.5815378e-27
5.5815443e-27
5.5817862e-27
5.5824262e-27
5.5839107e-27
5.5958306e-27
5.5883229e-27
5.5845405e-27
5.5827719e-27
5.5820301e-27
5.5817789e-27
5.5817862e-27
5.5820286e-27
5.5826691e-27
5.5841541e-27
5.5963624e-27
5.5889054e-27
5.5851553e-27
5.5834022e-27
5.5826669e-27
5.5824181e-27
5.5824262e-27
5.5826691e-27
5.5833104e-27
5.5847965e-27
5.5976178e-27
5.5903141e-27
5.586614e-27
5.584878e-27
5.5841486e-27
5.5839018e-27
5.5839107e-27
5.5841541e-27
5.5847965e-27
5.5862871e-27
1.181174e-26
1.17963e-26
1.1788473e-26
1.1784797e-26
1.1783245e-26
1.1782703e-26
1.1782671e-26
1.1783061e-26
1.1784133e-26
1.1786642e-26
1.17963e-26
1.1780925e-26
1.1773122e-26
1.1769455e-26
1.1767908e-26
1.1767372e-26
1.1767353e-26
1.176778e-26
1.1768958e-26
1.1771787e-26
1.1788473e-26
1.1773122e-26
1.1765332e-26
1.1761671e-26
1.1760129e-26
1.1759598e-26
1.1759593e-26
1.1760052e-26
1.1761298e-26
1.1764232e-26
1.1784797e-26
1.1769455e-26
1.1761671e-26
1.1758015e-26
1.1756475e-26
1.1755949e-26
1.1755953e-26
1.1756431e-26
1.1757709e-26
1.1760679e-26
1.1783245e-26
1.1767908e-26
1.1760129e-26
1.1756475e-26
1.1754938e-26
1.1754414e-26
1.1754423e-26
1.1754911e-26
1.1756202e-26
1.1759184e-26
1.1782703e-26
1.1767372e-26
1.1759598e-26
1.1755949e-26
1.1754414e-26
1.1753893e-26
1.1753904e-26
1.1754395e-26
1.1755691e-26
1.1758677e-26
1.1782671e-26
1.1767353e-26
1.1759593e-26
1.1755953e-26
1.1754423e-26
1.1753904e-26
1.1753916e-26
1.1754409e-26
1.1755707e-26
1.1758695e-26
1.1783061e-26
1.176778e-26
1.1760052e-26
1.1756431e-26
1.1754911e-26
1.1754395e-26
1.1754409e-26
1.1754903e-26
1.1756202e-26
1.1759191e-26
1.1784133e-26
1.1768958e-26
1.1761298e-26
1.1757709e-26
1.1756202e-26
1.1755691e-26
1.1755707e-26
1.1756202e-26
1.1757503e-26
1.1760494e-26
1.1786642e-26
1.1771787e-26
1.1764232e-26
1.1760679e-26
1.1759184e-26
1.1758677e-26
1.1758695e-26
1.1759191e-26
1.1760494e-26
1.1763494e-26
2.5174259e-26
2.514246e-26
2.5126282e-26
2.5118666e-26
2.5115448e-26
2.5114322e-26
2.5114252e-26
2.5115052e-26
2.5117239e-26
2.512231e-26
2.514246e-26
2.5110796e-26
2.5094666e-26
2.5087069e-26
2.508386e-26
2.5082746e-26
2.5082703e-26
2.5083581e-26
2.5085992e-26
2.5091742e-26
2.5126282e-26
2.5094666e-26
2.5078563e-26
2.5070979e-26
2.5067779e-26
2.5066677e-26
2.5066664e-26
2.506761e-26
2.5070164e-26
2.5076135e-26
2.5118666e-26
2.5087069e-26
2.5070979e-26
2.5063404e-26
2.506021e-26
2.5059117e-26
2.5059123e-26
2.506011e-26
2.5062731e-26
2.5068778e-26
2.5115448e-26
2.508386e-26
2.5067779e-26
2.506021e-26
2.5057021e-26
2.5055933e-26
2.505595e-26
2.5056955e-26
2.5059605e-26
2.5065678e-26
2.5114322e-26
2.5082746e-26
2.5066677e-26
2.5059117e-26
2.5055933e-26
2.505485e-26
2.5054872e-26
2.5055885e-26
2.5058545e-26
2.5064627e-26
2.5114252e-26
2.5082703e-26
2.5066664e-26
2.5059123e-26
2.505595e-26
2.5054872e-26
2.5054897e-26
2.5055913e-26
2.5058578e-26
2.5064663e-26
2.5115052e-26
2.5083581e-26
2.506761e-26
2.506011e-26
2.5056955e-26
2.5055885e-26
2.5055913e-26
2.5056932e-26
2.5059599e-26
2.5065686e-26
2.5117239e-26
2.5085992e-26
2.5070164e-26
2.5062731e-26
2.5059605e-26
2.5058545e-26
2.5058578e-26
2.5059599e-26
2.5062268e-26
2.506836e-26
2.512231e-26
2.5091742e-26
2.5076135e-26
2.5068778e-26
2.5065678e-26
2.5064627e-26
2.5064663e-26
2.5065686e-26
2.506836e-26
2.507447e-26
5.4316489e-26
5.425022e-26
5.4216385e-26
5.4200421e-26
5.4193666e-26
5.4191299e-26
5.4191147e-26
5.4192806e-26
5.4197321e-26
5.4207698e-26
5.425022e-26
5.418423e-26
5.4150493e-26
5.4134568e-26
5.4127833e-26
5.4125491e-26
5.4125398e-26
5.4127223e-26
5.4132218e-26
5.4144048e-26
5.4216385e-26
5.4150493e-26
5.4116811e-26
5.4100914e-26
5.4094198e-26
5.4091882e-26
5.4091851e-26
5.4093824e-26
5.4099122e-26
5.4111425e-26
5.4200421e-26
5.4134568e-26
5.4100914e-26
5.4085035e-26
5.4078331e-26
5.4076035e-26
5.4076045e-26
5.4078103e-26
5.4083548e-26
5.4096013e-26
5.4193666e-26
5.4127833e-26
5.4094198e-26
5.4078331e-26
5.4071637e-26
5.4069352e-26
5.4069385e-26
5.4071483e-26
5.4076988e-26
5.4089509e-26
5.4191299e-26
5.4125491e-26
5.4091882e-26
5.4076035e-26
5.4069352e-26
5.4067076e-26
5.406712e-26
5.4069235e-26
5.4074763e-26
5.4087302e-26
5.4191147e-26
5.4125398e-26
5.4091851e-26
5.4076045e-26
5.4069385e-26
5.406712e-26
5.406717e-26
5.4069293e-26
5.4074829e-26
5.4087375e-26
5.4192806e-26
5.4127223e-26
5.4093824e-26
5.4078103e-26
5.4071483e-26
5.4069235e-26
5.4069293e-26
5.407142e-26
5.4076961e-26
5.4089511e-26
5.4197321e-26
5.4132218e-26
5.4099122e-26
5.4083548e-26
5.4076988e-26
5.4074763e-26
5.4074829e-26
5.4076961e-26
5.4082507e-26
5.4095068e-26
5.4207698e-26
5.4144048e-26
5.4111425e-26
5.4096013e-26
5.4089509e-26
5.4087302e-26
5.4087375e-26
5.4089511e-26
5.4095068e-26
5.4107664e-26
1.1865042e-25
1.1851067e-25
1.1843906e-25
1.184052e-25
1.1839085e-25
1.1838582e-25
1.1838549e-25
1.1838897e-25
1.1839841e-25
1.1841989e-25
1.1851067e-25
1.183715e-25
1.1830009e-25
1.1826631e-25
1.1825201e-25
1.1824703e-25
1.1824682e-25
1.1825067e-25
1.1826114e-25
1.1828578e-25
1.1843906e-25
1.1830009e-25
1.182288e-25
1.1819509e-25
1.1818082e-25
1.181759e-25
1.1817583e-25
1.1817999e-25
1.1819112e-25
1.1821678e-25
1.184052e-25
1.1826631e-25
1.1819509e-25
1.181614e-25
1.1814717e-25
1.1814228e-25
1.181423e-25
1.1814665e-25
1.1815809e-25
1.1818411e-25
1.1839085e-25
1.1825201e-25
1.1818082e-25
1.1814717e-25
1.1813295e-25
1.1812809e-25
1.1812816e-25
1.1813259e-25
1.1814417e-25
1.181703e-25
1.1838582e-25
1.1824703e-25
1.181759e-25
1.1814228e-25
1.1812809e-25
1.1812325e-25
1.1812334e-25
1.1812781e-25
1.1813944e-25
1.1816561e-25
1.1838549e-25
1.1824682e-25
1.1817583e-25
1.181423e-25
1.1812816e-25
1.1812334e-25
1.1812345e-25
1.1812793e-25
1.1813958e-25
1.1816576e-25
1.1838897e-25
1.1825067e-25
1.1817999e-25
1.1814665e-25
1.1813259e-25
1.1812781e-25
1.1812793e-25
1.1813243e-25
1.1814408e-25
1.1817028e-25
1.1839841e-25
1.1826114e-25
1.1819112e-25
1.1815809e-25
1.1814417e-25
1.1813944e-25
1.1813958e-25
1.1814408e-25
1.1815575e-25
1.1818196e-25
1.1841989e-25
1.1828578e-25
1.1821678e-25
1.1818411e-25
1.181703e-25
1.1816561e-25
1.1816576e-25
1.1817028e-25
1.1818196e-25
1.1820825e-25
2.624176e-25
2.6211934e-25
2.6196598e-25
2.6189331e-25
2.6186248e-25
2.6185165e-25
2.6185091e-25
2.6185831e-25
2.6187827e-25
2.6192331e-25
2.6211934e-25
2.6182231e-25
2.6166938e-25
2.6159688e-25
2.6156614e-25
2.6155542e-25
2.6155496e-25
2.6156316e-25
2.6158539e-25
2.6163733e-25
2.6196598e-25
2.6166938e-25
2.6151669e-25
2.6144432e-25
2.6141366e-25
2.6140307e-25
2.6140291e-25
2.614118e-25
2.6143547e-25
2.6148965e-25
2.6189331e-25
2.6159688e-25
2.6144432e-25
2.6137203e-25
2.6134143e-25
2.6133093e-25
2.6133096e-25
2.6134025e-25
2.6136461e-25
2.6141957e-25
2.6186248e-25
2.6156614e-25
2.6141366e-25
2.6134143e-25
2.6131087e-25
2.6130043e-25
2.6130056e-25
2.6131005e-25
2.6133469e-25
2.6138991e-25
2.6185165e-25
2.6155542e-25
2.6140307e-25
2.6133093e-25
2.6130043e-25
2.6129003e-25
2.6129021e-25
2.6129977e-25
2.6132453e-25
2.6137984e-25
2.6185091e-25
2.6155496e-25
2.6140291e-25
2.6133096e-25
2.6130056e-25
2.6129021e-25
2.6129042e-25
2.6130002e-25
2.6132482e-25
2.6138016e-25
2.6185831e-25
2.6156316e-25
2.614118e-25
2.6134025e-25
2.6131005e-25
2.6129977e-25
2.6130002e-25
2.6130965e-25
2.6133446e-25
2.6138982e-25
2.6187827e-25
2.6158539e-25
2.6143547e-25
2.6136461e-25
2.6133469e-25
2.6132453e-25
2.6132482e-25
2.6133446e-25
2.613593e-25
2.614147e-25
2.6192331e-25
2.6163733e-25
2.6148965e-25
2.6141957e-25
2.6138991e-25
2.6137984e-25
2.6138016e-25
2.6138982e-25
2.614147e-25
2.6147026e-25
5.8765401e-25
5.870098e-25
5.8667742e-25
5.8651959e-25
5.8645254e-25
5.8642896e-25
5.864273e-25
5.8644325e-25
5.8648599e-25
5.8658153e-25
5.870098e-25
5.8636822e-25
5.8603676e-25
5.8587931e-25
5.8581245e-25
5.8578912e-25
5.8578808e-25
5.8580577e-25
5.8585355e-25
5.8596442e-25
5.8667742e-25
5.8603676e-25
5.8570583e-25
5.8554864e-25
5.8548196e-25
5.8545891e-25
5.8545853e-25
5.8547775e-25
5.8552873e-25
5.8564457e-25
5.8651959e-25
5.8587931e-25
5.8554864e-25
5.8539162e-25
5.8532507e-25
5.8530222e-25
5.8530227e-25
5.8532239e-25
5.8537489e-25
5.8549243e-25
5.8645254e-25
5.8581245e-25
5.8548196e-25
5.8532507e-25
5.8525862e-25
5.8523589e-25
5.8523617e-25
5.8525671e-25
5.8530984e-25
5.8542797e-25
5.8642896e-25
5.8578912e-25
5.8545891e-25
5.8530222e-25
5.8523589e-25
5.8521325e-25
5.8521364e-25
5.8523436e-25
5.8528773e-25
5.8540606e-25
5.864273e-25
5.8578808e-25
5.8545853e-25
5.8530227e-25
5.8523617e-25
5.8521364e-25
5.852141e-25
5.852349e-25
5.8528836e-25
5.8540676e-25
5.8644325e-25
5.8580577e-25
5.8547775e-25
5.8532239e-25
5.8525671e-25
5.8523436e-25
5.852349e-25
5.8525574e-25
5.8530925e-25
5.8542769e-25
5.8648599e-25
5.8585355e-25
5.8552873e-25
5.8537489e-25
5.8530984e-25
5.8528773e-25
5.8528836e-25
5.8530925e-25
5.8536281e-25
5.8548134e-25
5.8658153e-25
5.8596442e-25
5.8564457e-25
5.8549243e-25
5.8542797e-25
5.8540606e-25
5.8540676e-25
5.8542769e-25
5.8548134e-25
5.8560019e-25
1.3325096e-24
1.3311014e-24
1.3303724e-24
1.3300255e-24
1.3298779e-24
1.329826e-24
1.3298223e-24
1.329857e-24
1.3299497e-24
1.3301548e-24
1.3311014e-24
1.3296989e-24
1.3289719e-24
1.3286258e-24
1.3284787e-24
1.3284273e-24
1.3284249e-24
1.3284636e-24
1.3285676e-24
1.3288072e-24
1.3303724e-24
1.3289719e-24
1.328246e-24
1.3279005e-24
1.3277538e-24
1.327703e-24
1.3277021e-24
1.3277442e-24
1.3278554e-24
1.3281061e-24
1.3300255e-24
1.3286258e-24
1.3279005e-24
1.3275554e-24
1.327409e-24
1.3273586e-24
1.3273587e-24
1.3274028e-24
1.3275174e-24
1.3277719e-24
1.3298779e-24
1.3284787e-24
1.3277538e-24
1.327409e-24
1.3272627e-24
1.3272127e-24
1.3272132e-24
1.3272583e-24
1.3273743e-24
1.3276302e-24
1.329826e-24
1.3284273e-24
1.327703e-24
1.3273586e-24
1.3272127e-24
1.3271628e-24
1.3271637e-24
1.3272091e-24
1.3273256e-24
1.3275819e-24
1.3298223e-24
1.3284249e-24
1.3277021e-24
1.3273587e-24
1.3272132e-24
1.3271637e-24
1.3271647e-24
1.3272103e-24
1.327327e-24
1.3275835e-24
1.329857e-24
1.3284636e-24
1.3277442e-24
1.3274028e-24
1.3272583e-24
1.3272091e-24
1.3272103e-24
1.327256e-24
1.3273728e-24
1.3276294e-24
1.3299497e-24
1.3285676e-24
1.3278554e-24
1.3275174e-24
1.3273743e-24
1.3273256e-24
1.327327e-24
1.3273728e-24
1.3274897e-24
1.3277465e-24
1.3301548e-24
1.3288072e-24
1.3281061e-24
1.3277719e-24
1.3276302e-24
1.3275819e-24
1.3275835e-24
1.3276294e-24
1.3277465e-24
1.3280039e-24
3.0594927e-24
3.0563775e-24
3.0547593e-24
3.0539878e-24
3.0536592e-24
3.0535434e-24
3.0535349e-24
3.0536115e-24
3.0538149e-24
3.0542609e-24
3.0563775e-24
3.0532747e-24
3.0516609e-24
3.0508912e-24
3.0505635e-24
3.050449e-24
3.0504436e-24
3.0505291e-24
3.0507582e-24
3.0512824e-24
3.0547593e-24
3.0516609e-24
3.0500497e-24
3.0492812e-24
3.0489544e-24
3.0488413e-24
3.0488392e-24
3.0489325e-24
3.0491779e-24
3.0497275e-24
3.0539878e-24
3.0508912e-24
3.0492812e-24
3.0485136e-24
3.0481874e-24
3.0480753e-24
3.0480754e-24
3.0481733e-24
3.0484263e-24
3.0489846e-24
3.0536592e-24
3.0505635e-24
3.0489544e-24
3.0481874e-24
3.0478618e-24
3.0477502e-24
3.0477515e-24
3.0478516e-24
3.0481078e-24
3.0486691e-24
3.0535434e-24
3.050449e-24
3.0488413e-24
3.0480753e-24
3.0477502e-24
3.0476392e-24
3.047641e-24
3.047742e-24
3.0479994e-24
3.0485617e-24
3.0535349e-24
3.0504436e-24
3.0488392e-24
3.0480754e-24
3.0477515e-24
3.047641e-24
3.0476433e-24
3.0477446e-24
3.0480025e-24
3.0485651e-24
3.0536115e-24
3.0505291e-24
3.0489325e-24
3.0481733e-24
3.0478516e-24
3.047742e-24
3.0477446e-24
3.0478461e-24
3.0481043e-24
3.0486671e-24
3.0538149e-24
3.0507582e-24
3.0491779e-24
3.0484263e-24
3.0481078e-24
3.0479994e-24
3.0480025e-24
3.0481043e-24
3.0483627e-24
3.048926e-24
3.0542609e-24
3.0512824e-24
3.0497275e-24
3.0489846e-24
3.0486691e-24
3.0485617e-24
3.0485651e-24
3.0486671e-24
3.048926e-24
3.0494907e-24
7.1131997e-24
7.106225e-24
7.1025903e-24
7.1008538e-24
7.1001132e-24
7.099852e-24
7.0998325e-24
7.1000037e-24
7.1004556e-24
7.1014372e-24
7.106225e-24
7.0992781e-24
7.095653e-24
7.0939204e-24
7.0931819e-24
7.0929236e-24
7.0929113e-24
7.0931028e-24
7.0936138e-24
7.0947753e-24
7.1025903e-24
7.095653e-24
7.0920335e-24
7.0903038e-24
7.0895673e-24
7.0893122e-24
7.0893074e-24
7.0895169e-24
7.0900652e-24
7.091285e-24
7.1008538e-24
7.0939204e-24
7.0903038e-24
7.0885759e-24
7.0878409e-24
7.0875881e-24
7.0875883e-24
7.0878083e-24
7.0883743e-24
7.0896141e-24
7.1001132e-24
7.0931819e-24
7.0895673e-24
7.0878409e-24
7.087107e-24
7.0868556e-24
7.0868585e-24
7.0870834e-24
7.0876568e-24
7.0889035e-24
7.099852e-24
7.0929236e-24
7.0893122e-24
7.0875881e-24
7.0868556e-24
7.0866052e-24
7.0866094e-24
7.0868364e-24
7.0874126e-24
7.0886615e-24
7.0998325e-24
7.0929113e-24
7.0893074e-24
7.0875883e-24
7.0868585e-24
7.0866094e-24
7.0866145e-24
7.0868423e-24
7.0874196e-24
7.0886693e-24
7.1000037e-24
7.0931028e-24
7.0895169e-24
7.0878083e-24
7.0870834e-24
7.0868364e-24
7.0868423e-24
7.0870707e-24
7.0876485e-24
7.0888987e-24
7.1004556e-24
7.0936138e-24
7.0900652e-24
7.0883743e-24
7.0876568e-24
7.0874126e-24
7.0874196e-24
7.0876485e-24
7.0882268e-24
7.0894779e-24
7.1014372e-24
7.0947753e-24
7.091285e-24
7.0896141e-24
7.0889035e-24
7.0886615e-24
7.0886693e-24
7.0888987e-24
7.0894779e-24
7.0907322e-24
1.6746281e-23
1.6730478e-23
1.6722215e-23
1.671826e-23
1.6716571e-23
1.6715975e-23
1.671593e-23
1.6716317e-23
1.6717334e-23
1.6719521e-23
1.6730478e-23
1.6714736e-23
1.6706496e-23
1.6702549e-23
1.6700865e-23
1.6700276e-23
1.6700247e-23
1.6700682e-23
1.6701836e-23
1.6704441e-23
1.6722215e-23
1.6706496e-23
1.6698267e-23
1.6694328e-23
1.6692648e-23
1.6692066e-23
1.6692055e-23
1.6692531e-23
1.6693772e-23
1.6696513e-23
1.671826e-23
1.6702549e-23
1.6694328e-23
1.6690392e-23
1.6688716e-23
1.6688139e-23
1.668814e-23
1.668864e-23
1.6689922e-23
1.669271e-23
1.6716571e-23
1.6700865e-23
1.6692648e-23
1.6688716e-23
1.6687042e-23
1.6686469e-23
1.6686476e-23
1.6686988e-23
1.6688287e-23
1.669109e-23
1.6715975e-23
1.6700276e-23
1.6692066e-23
1.6688139e-23
1.6686469e-23
1.6685898e-23
1.6685907e-23
1.6686424e-23
1.668773e-23
1.6690539e-23
1.671593e-23
1.6700247e-23
1.6692055e-23
1.668814e-23
1.6686476e-23
1.6685907e-23
1.6685919e-23
1.6686438e-23
1.6687746e-23
1.6690557e-23
1.6716317e-23
1.6700682e-23
1.6692531e-23
1.668864e-23
1.6686988e-23
1.6686424e-23
1.6686438e-23
1.6686958e-23
1.6688267e-23
1.6691079e-23
1.6717334e-23
1.6701836e-23
1.6693772e-23
1.6689922e-23
1.6688287e-23
1.668773e-23
1.6687746e-23
1.6688267e-23
1.6689578e-23
1.6692392e-23
1.6719521e-23
1.6704441e-23
1.6696513e-23
1.669271e-23
1.669109e-23
1.6690539e-23
1.6690557e-23
1.6691079e-23
1.6692392e-23
1.6695213e-23
3.9921401e-23
3.9885163e-23
3.9866157e-23
3.9857041e-23
3.9853144e-23
3.9851767e-23
3.9851661e-23
3.9852548e-23
3.9854864e-23
3.9859796e-23
3.9885163e-23
3.9849066e-23
3.9830109e-23
3.9821014e-23
3.9817128e-23
3.9815766e-23
3.9815699e-23
3.9816697e-23
3.9819336e-23
3.9825255e-23
3.9866157e-23
3.9830109e-23
3.9811181e-23
3.9802101e-23
3.9798225e-23
3.9796881e-23
3.9796855e-23
3.9797951e-23
3.9800794e-23
3.9807032e-23
3.9857041e-23
3.9821014e-23
3.9802101e-23
3.9793029e-23
3.9789162e-23
3.978783e-23
3.9787832e-23
3.9788985e-23
3.9791925e-23
3.9798272e-23
3.9853144e-23
3.9817128e-23
3.9798225e-23
3.9789162e-23
3.97853e-23
3.9783976e-23
3.9783992e-23
3.9785172e-23
3.9788152e-23
3.9794538e-23
3.9851767e-23
3.9815766e-23
3.9796881e-23
3.978783e-23
3.9783976e-23
3.9782657e-23
3.9782681e-23
3.9783872e-23
3.9786868e-23
3.9793265e-23
3.9851661e-23
3.9815699e-23
3.9796855e-23
3.9787832e-23
3.9783992e-23
3.9782681e-23
3.9782709e-23
3.9783905e-23
3.9786906e-23
3.9793308e-23
3.9852548e-23
3.9816697e-23
3.9797951e-23
3.9788985e-23
3.9785172e-23
3.9783872e-23
3.9783905e-23
3.9785104e-23
3.9788108e-23
3.9794512e-23
3.9854864e-23
3.9819336e-23
3.9800794e-23
3.9791925e-23
3.9788152e-23
3.9786868e-23
3.9786906e-23
3.9788108e-23
3.9791115e-23
3.9797524e-23
3.9859796e-23
3.9825255e-23
3.9807032e-23
3.9798272e-23
3.9794538e-23
3.9793265e-23
3.9793308e-23
3.9794512e-23
3.9797524e-23
3.9803949e-23
9.6364722e-23
9.6280633e-23
9.6236393e-23
9.6215135e-23
9.6206036e-23
9.6202818e-23
9.6202567e-23
9.6204623e-23
9.6209963e-23
9.6221226e-23
9.6280633e-23
9.6196869e-23
9.6152742e-23
9.613153e-23
9.6122456e-23
9.6119275e-23
9.6119117e-23
9.6121438e-23
9.6127547e-23
9.6141162e-23
9.6236393e-23
9.6152742e-23
9.6108681e-23
9.6087503e-23
9.6078454e-23
9.6075314e-23
9.6075254e-23
9.6077808e-23
9.6084404e-23
9.6098778e-23
9.6215135e-23
9.613153e-23
9.6087503e-23
9.6066347e-23
9.6057316e-23
9.6054206e-23
9.6054212e-23
9.6056901e-23
9.6063728e-23
9.6078363e-23
9.6206036e-23
9.6122456e-23
9.6078454e-23
9.6057316e-23
9.60483e-23
9.6045208e-23
9.6045248e-23
9.6048002e-23
9.6054924e-23
9.6069649e-23
9.6202818e-23
9.6119275e-23
9.6075314e-23
9.6054206e-23
9.6045208e-23
9.6042129e-23
9.6042186e-23
9.6044967e-23
9.6051925e-23
9.606668e-23
9.6202567e-23
9.6119117e-23
9.6075254e-23
9.6054212e-23
9.6045248e-23
9.6042186e-23
9.6042254e-23
9.6045046e-23
9.6052018e-23
9.6066783e-23
9.6204623e-23
9.6121438e-23
9.6077808e-23
9.6056901e-23
9.6048002e-23
9.6044967e-23
9.6045046e-23
9.6047845e-23
9.6054823e-23
9.6069594e-23
9.6209963e-23
9.6127547e-23
9.6084404e-23
9.6063728e-23
9.6054924e-23
9.6051925e-23
9.6052018e-23
9.6054823e-23
9.6061808e-23
9.6076589e-23
9.6221226e-23
9.6141162e-23
9.6098778e-23
9.6078363e-23
9.6069649e-23
9.606668e-23
9.6066783e-23
9.6069594e-23
9.6076589e-23
9.6091406e-23
2.3552689e-22
2.3532944e-22
2.3522524e-22
2.3517508e-22
2.3515359e-22
2.3514598e-22
2.3514538e-22
2.3515021e-22
2.3516267e-22
2.3518871e-22
2.3532944e-22
2.3513275e-22
2.3502881e-22
2.3497876e-22
2.3495732e-22
2.349498e-22
2.3494943e-22
2.3495489e-22
2.3496921e-22
2.3500092e-22
2.3522524e-22
2.3502881e-22
2.3492503e-22
2.3487506e-22
2.3485368e-22
2.3484626e-22
2.3484612e-22
2.3485215e-22
2.3486764e-22
2.3490118e-22
2.3517508e-22
2.3497876e-22
2.3487506e-22
2.3482514e-22
2.348038e-22
2.3479645e-22
2.3479647e-22
2.3480282e-22
2.3481887e-22
2.3485304e-22
2.3515359e-22
2.3495732e-22
2.3485368e-22
2.348038e-22
2.347825e-22
2.347752e-22
2.347753e-22
2.347818e-22
2.3479808e-22
2.3483247e-22
2.3514598e-22
2.349498e-22
2.3484626e-22
2.3479645e-22
2.347752e-22
2.3476792e-22
2.3476807e-22
2.3477464e-22
2.34791e-22
2.3482546e-22
2.3514538e-22
2.3494943e-22
2.3484612e-22
2.3479647e-22
2.347753e-22
2.3476807e-22
2.3476823e-22
2.3477483e-22
2.3479123e-22
2.3482571e-22
2.3515021e-22
2.3495489e-22
2.3485215e-22
2.3480282e-22
2.347818e-22
2.3477464e-22
2.3477483e-22
2.3478145e-22
2.3479786e-22
2.3483235e-22
2.3516267e-22
2.3496921e-22
2.3486764e-22
2.3481887e-22
2.3479808e-22
2.34791e-22
2.3479123e-22
2.3479786e-22
2.3481429e-22
2.3484881e-22
2.3518871e-22
2.3500092e-22
2.3490118e-22
2.3485304e-22
2.3483247e-22
2.3482546e-22
2.3482571e-22
2.3483235e-22
2.3484881e-22
2.3488341e-22
5.8284388e-22
5.8237478e-22
5.8212647e-22
5.8200672e-22
5.8195534e-22
5.8193715e-22
5.8193571e-22
5.8194718e-22
5.8197664e-22
5.8203755e-22
5.8237478e-22
5.8190745e-22
5.8165977e-22
5.8154026e-22
5.8148903e-22
5.8147105e-22
5.8147015e-22
5.8148318e-22
5.8151716e-22
5.8159191e-22
5.8212647e-22
5.8165977e-22
5.8141244e-22
5.8129313e-22
5.8124204e-22
5.812243e-22
5.8122398e-22
5.8123837e-22
5.8127521e-22
5.8135443e-22
5.8200672e-22
5.8154026e-22
5.8129313e-22
5.8117394e-22
5.8112296e-22
5.8110539e-22
5.8110545e-22
5.8112064e-22
5.8115883e-22
5.8123959e-22
5.8195534e-22
5.8148903e-22
5.8124204e-22
5.8112296e-22
5.8107205e-22
5.8105459e-22
5.8105485e-22
5.8107042e-22
5.8110918e-22
5.8119046e-22
5.8193715e-22
5.8147105e-22
5.812243e-22
5.8110539e-22
5.8105459e-22
5.810372e-22
5.8103757e-22
5.8105329e-22
5.8109226e-22
5.8117372e-22
5.8193571e-22
5.8147015e-22
5.8122398e-22
5.8110545e-22
5.8105485e-22
5.8103757e-22
5.8103799e-22
5.8105378e-22
5.8109283e-22
5.8117435e-22
5.8194718e-22
5.8148318e-22
5.8123837e-22
5.8112064e-22
5.8107042e-22
5.8105329e-22
5.8105378e-22
5.8106961e-22
5.811087e-22
5.8119025e-22
5.8197664e-22
5.8151716e-22
5.8127521e-22
5.8115883e-22
5.8110918e-22
5.8109226e-22
5.8109283e-22
5.811087e-22
5.8114782e-22
5.8122943e-22
5.8203755e-22
5.8159191e-22
5.8135443e-22
5.8123959e-22
5.8119046e-22
5.8117372e-22
5.8117435e-22