/*--------------------------------*- C++ -*----------------------------------*\
| =========                 |                                                 |
| \\      /  F ield         | OpenFOAM: The Open Source CFD Toolbox           |
|  \\    /   O peration     | Version:  dev                                   |
|   \\  /    A nd           | Web:      www.OpenFOAM.org                      |
|    \\/     M anipulation  |                                                 |
\*---------------------------------------------------------------------------*/
FoamFile
{
    version     2.0;
    format      ascii;
    class       volScalarField;
    location    "60.995";
    object      A_0;
}
// * * * * * * * * * * * * * * * * * * * * * * * * * * * * * * * * * * * * * //

dimensions      [0 0 0 0 1 0 0];

internalField   nonuniform List<scalar> 
10000
(
3.9122861e-29
3.9058065e-29
3.9027162e-29
3.9012896e-29
3.9006935e-29
3.9004873e-29
3.9004784e-29
3.90064e-29
3.9010913e-29
3.9021003e-29
3.9058065e-29
3.8993573e-29
3.8962774e-29
3.8948549e-29
3.8942608e-29
3.8940566e-29
3.8940523e-29
3.8942266e-29
3.8947144e-29
3.8958324e-29
3.9027162e-29
3.8962774e-29
3.8932031e-29
3.8917832e-29
3.8911908e-29
3.8909887e-29
3.8909893e-29
3.8911749e-29
3.8916861e-29
3.8928401e-29
3.9012896e-29
3.8948549e-29
3.8917832e-29
3.8903649e-29
3.8897736e-29
3.889573e-29
3.8895768e-29
3.8897691e-29
3.8902915e-29
3.8914579e-29
3.9006935e-29
3.8942608e-29
3.8911908e-29
3.8897736e-29
3.8891831e-29
3.8889835e-29
3.8889889e-29
3.8891844e-29
3.8897115e-29
3.8908821e-29
3.9004873e-29
3.8940566e-29
3.8909887e-29
3.889573e-29
3.8889835e-29
3.8887846e-29
3.8887909e-29
3.8889876e-29
3.8895165e-29
3.8906885e-29
3.9004784e-29
3.8940523e-29
3.8909893e-29
3.8895768e-29
3.8889889e-29
3.8887909e-29
3.8887977e-29
3.8889951e-29
3.8895246e-29
3.8906971e-29
3.90064e-29
3.8942266e-29
3.8911749e-29
3.8897691e-29
3.8891844e-29
3.8889876e-29
3.8889951e-29
3.8891928e-29
3.8897227e-29
3.8908957e-29
3.9010913e-29
3.8947144e-29
3.8916861e-29
3.8902915e-29
3.8897115e-29
3.8895165e-29
3.8895246e-29
3.8897227e-29
3.8902532e-29
3.8914272e-29
3.9021003e-29
3.8958324e-29
3.8928401e-29
3.8914579e-29
3.8908821e-29
3.8906885e-29
3.8906971e-29
3.8908957e-29
3.8914272e-29
3.8926046e-29
1.3622635e-28
1.3600909e-28
1.3590281e-28
1.3585363e-28
1.3583308e-28
1.3582596e-28
1.3582564e-28
1.3583119e-28
1.3584671e-28
1.3588275e-28
1.3600909e-28
1.3579283e-28
1.3568689e-28
1.3563786e-28
1.3561737e-28
1.3561032e-28
1.3561017e-28
1.3561615e-28
1.3563294e-28
1.356728e-28
1.3590281e-28
1.3568689e-28
1.3558115e-28
1.3553221e-28
1.3551177e-28
1.355048e-28
1.3550481e-28
1.3551119e-28
1.355288e-28
1.355699e-28
1.3585363e-28
1.3563786e-28
1.3553221e-28
1.3548332e-28
1.3546292e-28
1.35456e-28
1.3545613e-28
1.3546274e-28
1.3548073e-28
1.3552226e-28
1.3583308e-28
1.3561737e-28
1.3551177e-28
1.3546292e-28
1.3544255e-28
1.3543567e-28
1.3543585e-28
1.3544257e-28
1.3546072e-28
1.355024e-28
1.3582596e-28
1.3561032e-28
1.355048e-28
1.35456e-28
1.3543567e-28
1.354288e-28
1.3542901e-28
1.3543578e-28
1.35454e-28
1.3549573e-28
1.3582564e-28
1.3561017e-28
1.3550481e-28
1.3545613e-28
1.3543585e-28
1.3542901e-28
1.3542924e-28
1.3543603e-28
1.3545427e-28
1.3549602e-28
1.3583119e-28
1.3561615e-28
1.3551119e-28
1.3546274e-28
1.3544257e-28
1.3543578e-28
1.3543603e-28
1.3544283e-28
1.3546109e-28
1.3550285e-28
1.3584671e-28
1.3563294e-28
1.355288e-28
1.3548073e-28
1.3546072e-28
1.35454e-28
1.3545427e-28
1.3546109e-28
1.3547936e-28
1.3552116e-28
1.3588275e-28
1.356728e-28
1.355699e-28
1.3552226e-28
1.355024e-28
1.3549573e-28
1.3549602e-28
1.3550285e-28
1.3552116e-28
1.3556308e-28
3.0098129e-28
3.0051666e-28
3.0028666e-28
3.0017998e-28
3.0013533e-28
3.0011985e-28
3.0011913e-28
3.0013108e-28
3.0016452e-28
3.0024456e-28
3.0051666e-28
3.0005412e-28
2.9982487e-28
2.9971848e-28
2.9967398e-28
2.9965865e-28
2.9965828e-28
2.996712e-28
2.9970744e-28
2.9979587e-28
3.0028666e-28
2.9982487e-28
2.9959601e-28
2.9948983e-28
2.9944545e-28
2.9943028e-28
2.9943029e-28
2.9944407e-28
2.994821e-28
2.9957327e-28
3.0017998e-28
2.9971848e-28
2.9948983e-28
2.9938376e-28
2.9933946e-28
2.9932442e-28
2.9932466e-28
2.9933895e-28
2.9937783e-28
2.9946995e-28
3.0013533e-28
2.9967398e-28
2.9944545e-28
2.9933946e-28
2.9929522e-28
2.9928024e-28
2.9928062e-28
2.9929515e-28
2.9933439e-28
2.9942683e-28
3.0011985e-28
2.9965865e-28
2.9943028e-28
2.9932442e-28
2.9928024e-28
2.9926532e-28
2.9926576e-28
2.9928039e-28
2.9931976e-28
2.9941232e-28
3.0011913e-28
2.9965828e-28
2.9943029e-28
2.9932466e-28
2.9928062e-28
2.9926576e-28
2.9926625e-28
2.9928092e-28
2.9932034e-28
2.9941294e-28
3.0013108e-28
2.996712e-28
2.9944407e-28
2.9933895e-28
2.9929515e-28
2.9928039e-28
2.9928092e-28
2.9929562e-28
2.9933507e-28
2.994277e-28
3.0016452e-28
2.9970744e-28
2.994821e-28
2.9937783e-28
2.9933439e-28
2.9931976e-28
2.9932034e-28
2.9933507e-28
2.9937457e-28
2.9946727e-28
3.0024456e-28
2.9979587e-28
2.9957327e-28
2.9946995e-28
2.9942683e-28
2.9941232e-28
2.9941294e-28
2.994277e-28
2.9946727e-28
2.9956026e-28
6.197426e-28
6.1881629e-28
6.1835464e-28
6.1813997e-28
6.1805e-28
6.1801877e-28
6.1801724e-28
6.1804104e-28
6.1810758e-28
6.1826779e-28
6.1881629e-28
6.1789412e-28
6.1743393e-28
6.1721985e-28
6.1713017e-28
6.1709925e-28
6.1709844e-28
6.1712423e-28
6.1719649e-28
6.1737392e-28
6.1835464e-28
6.1743393e-28
6.1697456e-28
6.1676087e-28
6.1667143e-28
6.1664084e-28
6.1664079e-28
6.1666835e-28
6.1674426e-28
6.1692732e-28
6.1813997e-28
6.1721985e-28
6.1676087e-28
6.1654742e-28
6.1645815e-28
6.164278e-28
6.1642824e-28
6.1645684e-28
6.165345e-28
6.1671949e-28
6.1805e-28
6.1713017e-28
6.1667143e-28
6.1645815e-28
6.16369e-28
6.1633879e-28
6.163395e-28
6.1636859e-28
6.1644698e-28
6.1663263e-28
6.1801877e-28
6.1709925e-28
6.1664084e-28
6.164278e-28
6.1633879e-28
6.1630869e-28
6.1630953e-28
6.1633882e-28
6.1641749e-28
6.1660337e-28
6.1801724e-28
6.1709844e-28
6.1664079e-28
6.1642824e-28
6.163395e-28
6.1630953e-28
6.1631046e-28
6.1633984e-28
6.1641861e-28
6.1660457e-28
6.1804104e-28
6.1712423e-28
6.1666835e-28
6.1645684e-28
6.1636859e-28
6.1633882e-28
6.1633984e-28
6.1636927e-28
6.164481e-28
6.1663413e-28
6.1810758e-28
6.1719649e-28
6.1674426e-28
6.165345e-28
6.1644698e-28
6.1641749e-28
6.1641861e-28
6.164481e-28
6.1652702e-28
6.167132e-28
6.1826779e-28
6.1737392e-28
6.1692732e-28
6.1671949e-28
6.1663263e-28
6.1660337e-28
6.1660457e-28
6.1663413e-28
6.167132e-28
6.1689995e-28
1.2666351e-27
1.2648026e-27
1.263885e-27
1.2634572e-27
1.2632777e-27
1.2632153e-27
1.2632121e-27
1.263259e-27
1.2633897e-27
1.2637032e-27
1.2648026e-27
1.2629782e-27
1.2620634e-27
1.2616369e-27
1.2614579e-27
1.2613961e-27
1.2613943e-27
1.2614453e-27
1.2615876e-27
1.2619362e-27
1.263885e-27
1.2620634e-27
1.2611503e-27
1.2607245e-27
1.260546e-27
1.2604849e-27
1.2604846e-27
1.2605392e-27
1.2606889e-27
1.2610489e-27
1.2634572e-27
1.2616369e-27
1.2607245e-27
1.2602991e-27
1.260121e-27
1.2600603e-27
1.2600611e-27
1.2601177e-27
1.260271e-27
1.260635e-27
1.2632777e-27
1.2614579e-27
1.260546e-27
1.260121e-27
1.2599431e-27
1.2598827e-27
1.259884e-27
1.2599417e-27
1.2600964e-27
1.2604617e-27
1.2632153e-27
1.2613961e-27
1.2604849e-27
1.2600603e-27
1.2598827e-27
1.2598226e-27
1.2598242e-27
1.2598822e-27
1.2600375e-27
1.2604033e-27
1.2632121e-27
1.2613943e-27
1.2604846e-27
1.2600611e-27
1.259884e-27
1.2598242e-27
1.2598259e-27
1.2598841e-27
1.2600397e-27
1.2604056e-27
1.263259e-27
1.2614453e-27
1.2605392e-27
1.2601177e-27
1.2599417e-27
1.2598822e-27
1.2598841e-27
1.2599425e-27
1.2600981e-27
1.2604642e-27
1.2633897e-27
1.2615876e-27
1.2606889e-27
1.260271e-27
1.2600964e-27
1.2600375e-27
1.2600397e-27
1.2600981e-27
1.260254e-27
1.2606203e-27
1.2637032e-27
1.2619362e-27
1.2610489e-27
1.260635e-27
1.2604617e-27
1.2604033e-27
1.2604056e-27
1.2604642e-27
1.2606203e-27
1.2609878e-27
2.6077187e-27
2.6040685e-27
2.6022332e-27
2.6013756e-27
2.6010152e-27
2.6008897e-27
2.6008829e-27
2.6009759e-27
2.6012339e-27
2.6018485e-27
2.6040685e-27
2.6004343e-27
2.5986046e-27
2.5977493e-27
2.59739e-27
2.5972658e-27
2.5972619e-27
2.5973632e-27
2.597645e-27
2.5983313e-27
2.6022332e-27
2.5986046e-27
2.596778e-27
2.5959243e-27
2.595566e-27
2.5954431e-27
2.5954424e-27
2.595551e-27
2.5958479e-27
2.5965576e-27
2.6013756e-27
2.5977493e-27
2.5959243e-27
2.5950715e-27
2.5947138e-27
2.594592e-27
2.5945933e-27
2.5947062e-27
2.5950104e-27
2.5957281e-27
2.6010152e-27
2.59739e-27
2.595566e-27
2.5947138e-27
2.5943567e-27
2.5942354e-27
2.5942378e-27
2.5943527e-27
2.5946599e-27
2.5953804e-27
2.6008897e-27
2.5972658e-27
2.5954431e-27
2.594592e-27
2.5942354e-27
2.5941145e-27
2.5941175e-27
2.5942332e-27
2.5945416e-27
2.595263e-27
2.6008829e-27
2.5972619e-27
2.5954424e-27
2.5945933e-27
2.5942378e-27
2.5941175e-27
2.5941208e-27
2.5942369e-27
2.5945457e-27
2.5952674e-27
2.6009759e-27
2.5973632e-27
2.595551e-27
2.5947062e-27
2.5943527e-27
2.5942332e-27
2.5942369e-27
2.5943533e-27
2.5946623e-27
2.5953843e-27
2.6012339e-27
2.597645e-27
2.5958479e-27
2.5950104e-27
2.5946599e-27
2.5945416e-27
2.5945457e-27
2.5946623e-27
2.5949716e-27
2.5956942e-27
2.6018485e-27
2.5983313e-27
2.5965576e-27
2.5957281e-27
2.5953804e-27
2.595263e-27
2.5952674e-27
2.5953843e-27
2.5956942e-27
2.596419e-27
5.4278475e-27
5.4204994e-27
5.4167906e-27
5.4150538e-27
5.4143226e-27
5.4140678e-27
5.4140533e-27
5.4142396e-27
5.4147541e-27
5.4159691e-27
5.4204994e-27
5.4131832e-27
5.4094856e-27
5.4077533e-27
5.4070244e-27
5.4067721e-27
5.4067638e-27
5.4069671e-27
5.4075307e-27
5.4088942e-27
5.4167906e-27
5.4094856e-27
5.4057944e-27
5.4040652e-27
5.4033383e-27
5.4030888e-27
5.4030868e-27
5.4033053e-27
5.4039002e-27
5.405312e-27
5.4150538e-27
5.4077533e-27
5.4040652e-27
5.4023379e-27
5.4016123e-27
5.4013648e-27
5.4013672e-27
5.4015944e-27
5.4022043e-27
5.4036327e-27
5.4143226e-27
5.4070244e-27
5.4033383e-27
5.4016123e-27
5.4008878e-27
5.4006415e-27
5.4006461e-27
5.4008776e-27
5.4014936e-27
5.4029278e-27
5.4140678e-27
5.4067721e-27
5.4030888e-27
5.4013648e-27
5.4006415e-27
5.4003961e-27
5.4004018e-27
5.400635e-27
5.4012534e-27
5.4026895e-27
5.4140533e-27
5.4067638e-27
5.4030868e-27
5.4013672e-27
5.4006461e-27
5.4004018e-27
5.4004083e-27
5.4006422e-27
5.4012615e-27
5.4026983e-27
5.4142396e-27
5.4069671e-27
5.4033053e-27
5.4015944e-27
5.4008776e-27
5.400635e-27
5.4006422e-27
5.4008767e-27
5.4014964e-27
5.4029337e-27
5.4147541e-27
5.4075307e-27
5.4039002e-27
5.4022043e-27
5.4014936e-27
5.4012534e-27
5.4012615e-27
5.4014964e-27
5.4021168e-27
5.4035552e-27
5.4159691e-27
5.4088942e-27
5.405312e-27
5.4036327e-27
5.4029278e-27
5.4026895e-27
5.4026983e-27
5.4029337e-27
5.4035552e-27
5.404998e-27
1.1433006e-26
1.1418044e-26
1.1410463e-26
1.1406906e-26
1.1405406e-26
1.1404882e-26
1.1404851e-26
1.1405229e-26
1.1406266e-26
1.1408695e-26
1.1418044e-26
1.1403145e-26
1.1395588e-26
1.1392039e-26
1.1390544e-26
1.1390025e-26
1.1390007e-26
1.139042e-26
1.139156e-26
1.13943e-26
1.1410463e-26
1.1395588e-26
1.1388043e-26
1.13845e-26
1.1383009e-26
1.1382497e-26
1.1382492e-26
1.1382937e-26
1.1384142e-26
1.1386983e-26
1.1406906e-26
1.1392039e-26
1.13845e-26
1.1380962e-26
1.1379473e-26
1.1378965e-26
1.1378969e-26
1.1379432e-26
1.1380669e-26
1.1383544e-26
1.1405406e-26
1.1390544e-26
1.1383009e-26
1.1379473e-26
1.1377987e-26
1.1377481e-26
1.137749e-26
1.1377962e-26
1.1379212e-26
1.1382099e-26
1.1404882e-26
1.1390025e-26
1.1382497e-26
1.1378965e-26
1.1377481e-26
1.1376978e-26
1.1376989e-26
1.1377464e-26
1.1378718e-26
1.138161e-26
1.1404851e-26
1.1390007e-26
1.1382492e-26
1.1378969e-26
1.137749e-26
1.1376989e-26
1.1377001e-26
1.1377478e-26
1.1378734e-26
1.1381627e-26
1.1405229e-26
1.139042e-26
1.1382937e-26
1.1379432e-26
1.1377962e-26
1.1377464e-26
1.1377478e-26
1.1377956e-26
1.1379213e-26
1.1382107e-26
1.1406266e-26
1.139156e-26
1.1384142e-26
1.1380669e-26
1.1379212e-26
1.1378718e-26
1.1378734e-26
1.1379213e-26
1.1380472e-26
1.1383368e-26
1.1408695e-26
1.13943e-26
1.1386983e-26
1.1383544e-26
1.1382099e-26
1.138161e-26
1.1381627e-26
1.1382107e-26
1.1383368e-26
1.1386273e-26
2.437692e-26
2.4346092e-26
2.4330418e-26
2.4323045e-26
2.4319932e-26
2.4318844e-26
2.4318777e-26
2.4319551e-26
2.4321668e-26
2.4326581e-26
2.4346092e-26
2.4315396e-26
2.4299767e-26
2.4292413e-26
2.4289309e-26
2.4288232e-26
2.4288192e-26
2.4289042e-26
2.4291376e-26
2.4296946e-26
2.4330418e-26
2.4299767e-26
2.4284165e-26
2.4276823e-26
2.4273728e-26
2.4272664e-26
2.4272652e-26
2.4273568e-26
2.427604e-26
2.4281825e-26
2.4323045e-26
2.4292413e-26
2.4276823e-26
2.4269489e-26
2.42664e-26
2.4265344e-26
2.4265351e-26
2.4266306e-26
2.4268844e-26
2.4274702e-26
2.4319932e-26
2.4289309e-26
2.4273728e-26
2.42664e-26
2.4263316e-26
2.4262265e-26
2.4262282e-26
2.4263255e-26
2.4265821e-26
2.4271704e-26
2.4318844e-26
2.4288232e-26
2.4272664e-26
2.4265344e-26
2.4262265e-26
2.4261218e-26
2.426124e-26
2.4262221e-26
2.4264797e-26
2.4270689e-26
2.4318777e-26
2.4288192e-26
2.4272652e-26
2.4265351e-26
2.4262282e-26
2.426124e-26
2.4261265e-26
2.4262249e-26
2.4264829e-26
2.4270724e-26
2.4319551e-26
2.4289042e-26
2.4273568e-26
2.4266306e-26
2.4263255e-26
2.4262221e-26
2.4262249e-26
2.4263235e-26
2.4265817e-26
2.4271714e-26
2.4321668e-26
2.4291376e-26
2.427604e-26
2.4268844e-26
2.4265821e-26
2.4264797e-26
2.4264829e-26
2.4265817e-26
2.4268402e-26
2.4274303e-26
2.4326581e-26
2.4296946e-26
2.4281825e-26
2.4274702e-26
2.4271704e-26
2.4270689e-26
2.4270724e-26
2.4271714e-26
2.4274303e-26
2.4280222e-26
5.2617711e-26
5.2553441e-26
5.2520644e-26
5.2505183e-26
5.2498647e-26
5.2496359e-26
5.2496214e-26
5.249782e-26
5.2502193e-26
5.2512248e-26
5.2553441e-26
5.248944e-26
5.2456739e-26
5.2441316e-26
5.24348e-26
5.2432536e-26
5.2432447e-26
5.2434215e-26
5.2439053e-26
5.2450517e-26
5.2520644e-26
5.2456739e-26
5.2424092e-26
5.2408696e-26
5.2402197e-26
5.2399959e-26
5.2399931e-26
5.2401841e-26
5.2406974e-26
5.2418896e-26
5.2505183e-26
5.2441316e-26
5.2408696e-26
5.2393317e-26
5.238683e-26
5.2384611e-26
5.2384622e-26
5.2386615e-26
5.2391889e-26
5.2403969e-26
5.2498647e-26
5.24348e-26
5.2402197e-26
5.238683e-26
5.2380353e-26
5.2378145e-26
5.2378178e-26
5.238021e-26
5.2385542e-26
5.2397676e-26
5.2496359e-26
5.2432536e-26
5.2399959e-26
5.2384611e-26
5.2378145e-26
5.2375945e-26
5.2375988e-26
5.2378037e-26
5.2383391e-26
5.2395543e-26
5.2496214e-26
5.2432447e-26
5.2399931e-26
5.2384622e-26
5.2378178e-26
5.2375988e-26
5.2376039e-26
5.2378094e-26
5.2383456e-26
5.2395615e-26
5.249782e-26
5.2434215e-26
5.2401841e-26
5.2386615e-26
5.238021e-26
5.2378037e-26
5.2378094e-26
5.2380154e-26
5.2385521e-26
5.2397683e-26
5.2502193e-26
5.2439053e-26
5.2406974e-26
5.2391889e-26
5.2385542e-26
5.2383391e-26
5.2383456e-26
5.2385521e-26
5.2390893e-26
5.2403065e-26
5.2512248e-26
5.2450517e-26
5.2418896e-26
5.2403969e-26
5.2397676e-26
5.2395543e-26
5.2395615e-26
5.2397683e-26
5.2403065e-26
5.2415272e-26
1.1498739e-25
1.1485179e-25
1.1478236e-25
1.1474955e-25
1.1473566e-25
1.147308e-25
1.1473048e-25
1.1473385e-25
1.1474299e-25
1.1476382e-25
1.1485179e-25
1.1471676e-25
1.1464752e-25
1.146148e-25
1.1460095e-25
1.1459613e-25
1.1459594e-25
1.1459966e-25
1.1460981e-25
1.146337e-25
1.1478236e-25
1.1464752e-25
1.145784e-25
1.1454573e-25
1.1453192e-25
1.1452716e-25
1.1452709e-25
1.1453112e-25
1.1454191e-25
1.1456679e-25
1.1474955e-25
1.146148e-25
1.1454573e-25
1.1451309e-25
1.1449931e-25
1.1449459e-25
1.1449461e-25
1.1449882e-25
1.1450991e-25
1.1453513e-25
1.1473566e-25
1.1460095e-25
1.1453192e-25
1.1449931e-25
1.1448555e-25
1.1448085e-25
1.1448092e-25
1.1448521e-25
1.1449643e-25
1.1452177e-25
1.147308e-25
1.1459613e-25
1.1452716e-25
1.1449459e-25
1.1448085e-25
1.1447617e-25
1.1447626e-25
1.1448059e-25
1.1449186e-25
1.1451723e-25
1.1473048e-25
1.1459594e-25
1.1452709e-25
1.1449461e-25
1.1448092e-25
1.1447626e-25
1.1447637e-25
1.1448071e-25
1.14492e-25
1.1451738e-25
1.1473385e-25
1.1459966e-25
1.1453112e-25
1.1449882e-25
1.1448521e-25
1.1448059e-25
1.1448071e-25
1.1448507e-25
1.1449636e-25
1.1452176e-25
1.1474299e-25
1.1460981e-25
1.1454191e-25
1.1450991e-25
1.1449643e-25
1.1449186e-25
1.14492e-25
1.1449636e-25
1.1450766e-25
1.1453308e-25
1.1476382e-25
1.146337e-25
1.1456679e-25
1.1453513e-25
1.1452177e-25
1.1451723e-25
1.1451738e-25
1.1452176e-25
1.1453308e-25
1.1455857e-25
2.5442343e-25
2.5413392e-25
2.5398514e-25
2.539147e-25
2.5388484e-25
2.5387437e-25
2.5387366e-25
2.5388084e-25
2.5390018e-25
2.5394386e-25
2.5413392e-25
2.538456e-25
2.5369724e-25
2.5362697e-25
2.535972e-25
2.5358683e-25
2.535864e-25
2.5359434e-25
2.5361589e-25
2.5366627e-25
2.5398514e-25
2.5369724e-25
2.5354913e-25
2.5347898e-25
2.5344929e-25
2.5343904e-25
2.5343889e-25
2.534475e-25
2.5347045e-25
2.5352301e-25
2.539147e-25
2.5362697e-25
2.5347898e-25
2.534089e-25
2.5337927e-25
2.5336911e-25
2.5336914e-25
2.5337815e-25
2.5340177e-25
2.5345507e-25
2.5388484e-25
2.535972e-25
2.5344929e-25
2.5337927e-25
2.5334968e-25
2.5333957e-25
2.5333971e-25
2.533489e-25
2.533728e-25
2.5342635e-25
2.5387437e-25
2.5358683e-25
2.5343904e-25
2.5336911e-25
2.5333957e-25
2.5332951e-25
2.5332969e-25
2.5333896e-25
2.5336296e-25
2.534166e-25
2.5387366e-25
2.535864e-25
2.5343889e-25
2.5336914e-25
2.5333971e-25
2.5332969e-25
2.5332991e-25
2.5333921e-25
2.5336325e-25
2.5341692e-25
2.5388084e-25
2.5359434e-25
2.534475e-25
2.5337815e-25
2.533489e-25
2.5333896e-25
2.5333921e-25
2.5334854e-25
2.533726e-25
2.5342629e-25
2.5390018e-25
2.5361589e-25
2.5347045e-25
2.5340177e-25
2.533728e-25
2.5336296e-25
2.5336325e-25
2.533726e-25
2.5339668e-25
2.5345041e-25
2.5394386e-25
2.5366627e-25
2.5352301e-25
2.5345507e-25
2.5342635e-25
2.534166e-25
2.5341692e-25
2.5342629e-25
2.5345041e-25
2.5350429e-25
5.699957e-25
5.6937012e-25
5.6904754e-25
5.6889449e-25
5.6882953e-25
5.6880671e-25
5.6880512e-25
5.6882058e-25
5.6886203e-25
5.6895472e-25
5.6937012e-25
5.687471e-25
5.6842542e-25
5.6827273e-25
5.6820795e-25
5.6818538e-25
5.6818439e-25
5.6820154e-25
5.6824788e-25
5.6835545e-25
5.6904754e-25
5.6842542e-25
5.6810424e-25
5.6795181e-25
5.6788722e-25
5.6786491e-25
5.6786455e-25
5.6788319e-25
5.6793263e-25
5.6804503e-25
5.6889449e-25
5.6827273e-25
5.6795181e-25
5.6779955e-25
5.6773507e-25
5.6771296e-25
5.6771302e-25
5.6773253e-25
5.6778345e-25
5.678975e-25
5.6882953e-25
5.6820795e-25
5.6788722e-25
5.6773507e-25
5.6767069e-25
5.676487e-25
5.6764898e-25
5.676689e-25
5.6772043e-25
5.6783505e-25
5.6880671e-25
5.6818538e-25
5.6786491e-25
5.6771296e-25
5.676487e-25
5.6762679e-25
5.6762718e-25
5.6764727e-25
5.6769903e-25
5.6781385e-25
5.6880512e-25
5.6818439e-25
5.6786455e-25
5.6771302e-25
5.6764898e-25
5.6762718e-25
5.6762764e-25
5.676478e-25
5.6769965e-25
5.6781453e-25
5.6882058e-25
5.6820154e-25
5.6788319e-25
5.6773253e-25
5.676689e-25
5.6764727e-25
5.676478e-25
5.6766801e-25
5.6771991e-25
5.6783483e-25
5.6886203e-25
5.6824788e-25
5.6793263e-25
5.6778345e-25
5.6772043e-25
5.6769903e-25
5.6769965e-25
5.6771991e-25
5.6777185e-25
5.6788686e-25
5.6895472e-25
5.6835545e-25
5.6804503e-25
5.678975e-25
5.6783505e-25
5.6781385e-25
5.6781453e-25
5.6783483e-25
5.6788686e-25
5.6800218e-25
1.2930296e-24
1.2916616e-24
1.2909538e-24
1.2906172e-24
1.2904742e-24
1.2904239e-24
1.2904203e-24
1.290454e-24
1.2905439e-24
1.2907431e-24
1.2916616e-24
1.2902991e-24
1.2895932e-24
1.2892575e-24
1.2891148e-24
1.2890651e-24
1.2890629e-24
1.2891003e-24
1.2892012e-24
1.2894338e-24
1.2909538e-24
1.2895932e-24
1.2888884e-24
1.2885533e-24
1.288411e-24
1.2883619e-24
1.288361e-24
1.2884019e-24
1.2885097e-24
1.2887531e-24
1.2906172e-24
1.2892575e-24
1.2885533e-24
1.2882184e-24
1.2880765e-24
1.2880278e-24
1.2880279e-24
1.2880706e-24
1.2881818e-24
1.2884289e-24
1.2904742e-24
1.2891148e-24
1.288411e-24
1.2880765e-24
1.2879347e-24
1.2878863e-24
1.2878869e-24
1.2879306e-24
1.2880431e-24
1.2882915e-24
1.2904239e-24
1.2890651e-24
1.2883619e-24
1.2880278e-24
1.2878863e-24
1.287838e-24
1.2878389e-24
1.2878829e-24
1.287996e-24
1.2882448e-24
1.2904203e-24
1.2890629e-24
1.288361e-24
1.2880279e-24
1.2878869e-24
1.2878389e-24
1.2878399e-24
1.2878841e-24
1.2879973e-24
1.2882463e-24
1.290454e-24
1.2891003e-24
1.2884019e-24
1.2880706e-24
1.2879306e-24
1.2878829e-24
1.2878841e-24
1.2879285e-24
1.2880418e-24
1.2882909e-24
1.2905439e-24
1.2892012e-24
1.2885097e-24
1.2881818e-24
1.2880431e-24
1.287996e-24
1.2879973e-24
1.2880418e-24
1.2881552e-24
1.2884045e-24
1.2907431e-24
1.2894338e-24
1.2887531e-24
1.2884289e-24
1.2882915e-24
1.2882448e-24
1.2882463e-24
1.2882909e-24
1.2884045e-24
1.2886544e-24
2.9701498e-24
2.967122e-24
2.9655502e-24
2.9648014e-24
2.9644828e-24
2.9643706e-24
2.9643624e-24
2.9644368e-24
2.9646342e-24
2.9650673e-24
2.967122e-24
2.9641064e-24
2.9625388e-24
2.9617917e-24
2.961474e-24
2.961363e-24
2.9613579e-24
2.9614409e-24
2.9616633e-24
2.9621724e-24
2.9655502e-24
2.9625388e-24
2.9609737e-24
2.9602279e-24
2.959911e-24
2.9598014e-24
2.9597995e-24
2.9598901e-24
2.9601282e-24
2.9606619e-24
2.9648014e-24
2.9617917e-24
2.9602279e-24
2.9594828e-24
2.9591666e-24
2.9590579e-24
2.9590581e-24
2.9591531e-24
2.9593988e-24
2.959941e-24
2.9644828e-24
2.961474e-24
2.959911e-24
2.9591666e-24
2.9588508e-24
2.9587428e-24
2.9587441e-24
2.9588412e-24
2.9590899e-24
2.959635e-24
2.9643706e-24
2.961363e-24
2.9598014e-24
2.9590579e-24
2.9587428e-24
2.9586352e-24
2.9586371e-24
2.958735e-24
2.9589849e-24
2.959531e-24
2.9643624e-24
2.9613579e-24
2.9597995e-24
2.9590581e-24
2.9587441e-24
2.9586371e-24
2.9586393e-24
2.9587376e-24
2.958988e-24
2.9595344e-24
2.9644368e-24
2.9614409e-24
2.9598901e-24
2.9591531e-24
2.9588412e-24
2.958735e-24
2.9587376e-24
2.9588362e-24
2.9590867e-24
2.9596334e-24
2.9646342e-24
2.9616633e-24
2.9601282e-24
2.9593988e-24
2.9590899e-24
2.9589849e-24
2.958988e-24
2.9590867e-24
2.9593376e-24
2.9598846e-24
2.9650673e-24
2.9621724e-24
2.9606619e-24
2.959941e-24
2.959635e-24
2.959531e-24
2.9595344e-24
2.9596334e-24
2.9598846e-24
2.960433e-24
6.9085554e-24
6.9017736e-24
6.8982413e-24
6.8965552e-24
6.8958368e-24
6.8955837e-24
6.8955649e-24
6.8957311e-24
6.8961699e-24
6.8971235e-24
6.9017736e-24
6.8950186e-24
6.8914958e-24
6.8898134e-24
6.8890971e-24
6.8888467e-24
6.8888349e-24
6.889021e-24
6.8895171e-24
6.8906456e-24
6.8982413e-24
6.8914958e-24
6.8879784e-24
6.8862989e-24
6.8855844e-24
6.8853372e-24
6.8853327e-24
6.8855362e-24
6.8860686e-24
6.8872538e-24
6.8965552e-24
6.8898134e-24
6.8862989e-24
6.8846211e-24
6.8839081e-24
6.883663e-24
6.8836635e-24
6.883877e-24
6.8844268e-24
6.8856313e-24
6.8958368e-24
6.8890971e-24
6.8855844e-24
6.8839081e-24
6.8831961e-24
6.8829525e-24
6.8829555e-24
6.8831738e-24
6.8837307e-24
6.8849419e-24
6.8955837e-24
6.8888467e-24
6.8853372e-24
6.883663e-24
6.8829525e-24
6.8827098e-24
6.8827141e-24
6.8829345e-24
6.883494e-24
6.8847075e-24
6.8955649e-24
6.8888349e-24
6.8853327e-24
6.8836635e-24
6.8829555e-24
6.8827141e-24
6.8827192e-24
6.8829404e-24
6.883501e-24
6.8847152e-24
6.8957311e-24
6.889021e-24
6.8855362e-24
6.883877e-24
6.8831738e-24
6.8829345e-24
6.8829404e-24
6.8831621e-24
6.8837232e-24
6.8849379e-24
6.8961699e-24
6.8895171e-24
6.8860686e-24
6.8844268e-24
6.8837307e-24
6.883494e-24
6.883501e-24
6.8837232e-24
6.8842848e-24
6.8855004e-24
6.8971235e-24
6.8906456e-24
6.8872538e-24
6.8856313e-24
6.8849419e-24
6.8847075e-24
6.8847152e-24
6.8849379e-24
6.8855004e-24
6.8867191e-24
1.6271832e-23
1.6256458e-23
1.6248425e-23
1.6244583e-23
1.6242944e-23
1.6242366e-23
1.6242323e-23
1.6242699e-23
1.6243686e-23
1.6245812e-23
1.6256458e-23
1.6241145e-23
1.6233133e-23
1.62293e-23
1.6227665e-23
1.6227094e-23
1.6227066e-23
1.6227488e-23
1.622861e-23
1.6231142e-23
1.6248425e-23
1.6233133e-23
1.6225134e-23
1.6221306e-23
1.6219677e-23
1.6219112e-23
1.6219102e-23
1.6219564e-23
1.622077e-23
1.6223434e-23
1.6244583e-23
1.62293e-23
1.6221306e-23
1.6217483e-23
1.6215857e-23
1.6215297e-23
1.6215298e-23
1.6215784e-23
1.621703e-23
1.621974e-23
1.6242944e-23
1.6227665e-23
1.6219677e-23
1.6215857e-23
1.6214232e-23
1.6213676e-23
1.6213683e-23
1.621418e-23
1.6215443e-23
1.6218168e-23
1.6242366e-23
1.6227094e-23
1.6219112e-23
1.6215297e-23
1.6213676e-23
1.6213122e-23
1.6213132e-23
1.6213634e-23
1.6214903e-23
1.6217633e-23
1.6242323e-23
1.6227066e-23
1.6219102e-23
1.6215298e-23
1.6213683e-23
1.6213132e-23
1.6213144e-23
1.6213648e-23
1.6214919e-23
1.6217651e-23
1.6242699e-23
1.6227488e-23
1.6219564e-23
1.6215784e-23
1.621418e-23
1.6213634e-23
1.6213648e-23
1.6214153e-23
1.6215425e-23
1.6218159e-23
1.6243686e-23
1.622861e-23
1.622077e-23
1.621703e-23
1.6215443e-23
1.6214903e-23
1.6214919e-23
1.6215425e-23
1.6216698e-23
1.6219434e-23
1.6245812e-23
1.6231142e-23
1.6223434e-23
1.621974e-23
1.6218168e-23
1.6217633e-23
1.6217651e-23
1.6218159e-23
1.6219434e-23
1.6222176e-23
3.8808082e-23
3.8772813e-23
3.8754327e-23
3.8745468e-23
3.8741684e-23
3.8740348e-23
3.8740246e-23
3.8741108e-23
3.8743358e-23
3.8748155e-23
3.8772813e-23
3.8737682e-23
3.8719244e-23
3.8710404e-23
3.8706631e-23
3.870531e-23
3.8705246e-23
3.8706216e-23
3.8708781e-23
3.8714537e-23
3.8754327e-23
3.8719244e-23
3.8700833e-23
3.8692007e-23
3.8688245e-23
3.8686941e-23
3.8686917e-23
3.8687982e-23
3.8690745e-23
3.8696812e-23
3.8745468e-23
3.8710404e-23
3.8692007e-23
3.8683191e-23
3.8679436e-23
3.8678144e-23
3.8678147e-23
3.8679268e-23
3.8682125e-23
3.8688298e-23
3.8741684e-23
3.8706631e-23
3.8688245e-23
3.8679436e-23
3.8675686e-23
3.8674402e-23
3.8674419e-23
3.8675566e-23
3.8678463e-23
3.8684672e-23
3.8740348e-23
3.870531e-23
3.8686941e-23
3.8678144e-23
3.8674402e-23
3.8673123e-23
3.8673147e-23
3.8674305e-23
3.8677216e-23
3.8683438e-23
3.8740246e-23
3.8705246e-23
3.8686917e-23
3.8678147e-23
3.8674419e-23
3.8673147e-23
3.8673175e-23
3.8674338e-23
3.8677255e-23
3.8683481e-23
3.8741108e-23
3.8706216e-23
3.8687982e-23
3.8679268e-23
3.8675566e-23
3.8674305e-23
3.8674338e-23
3.8675503e-23
3.8678422e-23
3.8684651e-23
3.8743358e-23
3.8708781e-23
3.8690745e-23
3.8682125e-23
3.8678463e-23
3.8677216e-23
3.8677255e-23
3.8678422e-23
3.8681345e-23
3.8687578e-23
3.8748155e-23
3.8714537e-23
3.8696812e-23
3.8688298e-23
3.8684672e-23
3.8683438e-23
3.8683481e-23
3.8684651e-23
3.8687578e-23
3.8693826e-23
9.3720653e-23
9.3638776e-23
9.3595725e-23
9.3575056e-23
9.3566216e-23
9.3563094e-23
9.3562853e-23
9.3564851e-23
9.3570043e-23
9.3581e-23
9.3638776e-23
9.3557215e-23
9.3514274e-23
9.3493649e-23
9.3484834e-23
9.3481748e-23
9.3481597e-23
9.3483854e-23
9.3489795e-23
9.350304e-23
9.3595725e-23
9.3514274e-23
9.3471398e-23
9.3450806e-23
9.3442016e-23
9.3438969e-23
9.3438913e-23
9.3441396e-23
9.344781e-23
9.3461796e-23
9.3575056e-23
9.3493649e-23
9.3450806e-23
9.3430235e-23
9.3421463e-23
9.3418445e-23
9.3418452e-23
9.3421067e-23
9.3427706e-23
9.3441945e-23
9.3566216e-23
9.3484834e-23
9.3442016e-23
9.3421463e-23
9.3412704e-23
9.3409704e-23
9.3409745e-23
9.3412422e-23
9.3419154e-23
9.343348e-23
9.3563094e-23
9.3481748e-23
9.3438969e-23
9.3418445e-23
9.3409704e-23
9.3406716e-23
9.3406774e-23
9.3409477e-23
9.3416244e-23
9.3430599e-23
9.3562853e-23
9.3481597e-23
9.3438913e-23
9.3418452e-23
9.3409745e-23
9.3406774e-23
9.3406842e-23
9.3409556e-23
9.3416336e-23
9.3430702e-23
9.3564851e-23
9.3483854e-23
9.3441396e-23
9.3421067e-23
9.3412422e-23
9.3409477e-23
9.3409556e-23
9.3412277e-23
9.3419063e-23
9.3433434e-23
9.3570043e-23
9.3489795e-23
9.344781e-23
9.3427706e-23
9.3419154e-23
9.3416244e-23
9.3416336e-23
9.3419063e-23
9.3425856e-23
9.3440237e-23
9.3581e-23
9.350304e-23
9.3461796e-23
9.3441945e-23
9.343348e-23
9.3430599e-23
9.3430702e-23
9.3433434e-23
9.3440237e-23
9.3454653e-23
2.2917173e-22
2.2897938e-22
2.2887794e-22
2.2882914e-22
2.2880825e-22
2.2880087e-22
2.2880029e-22
2.2880499e-22
2.2881711e-22
2.2884245e-22
2.2897938e-22
2.2878778e-22
2.2868659e-22
2.286379e-22
2.2861706e-22
2.2860976e-22
2.286094e-22
2.2861472e-22
2.2862865e-22
2.2865951e-22
2.2887794e-22
2.2868659e-22
2.2858555e-22
2.2853694e-22
2.2851616e-22
2.2850896e-22
2.2850883e-22
2.2851469e-22
2.2852976e-22
2.2856241e-22
2.2882914e-22
2.286379e-22
2.2853694e-22
2.2848837e-22
2.2846764e-22
2.284605e-22
2.2846053e-22
2.2846671e-22
2.2848232e-22
2.2851558e-22
2.2880825e-22
2.2861706e-22
2.2851616e-22
2.2846764e-22
2.2844694e-22
2.2843985e-22
2.2843995e-22
2.2844628e-22
2.2846212e-22
2.2849558e-22
2.2880087e-22
2.2860976e-22
2.2850896e-22
2.284605e-22
2.2843985e-22
2.2843278e-22
2.2843293e-22
2.2843932e-22
2.2845524e-22
2.2848878e-22
2.2880029e-22
2.286094e-22
2.2850883e-22
2.2846053e-22
2.2843995e-22
2.2843293e-22
2.284331e-22
2.2843951e-22
2.2845547e-22
2.2848903e-22
2.2880499e-22
2.2861472e-22
2.2851469e-22
2.2846671e-22
2.2844628e-22
2.2843932e-22
2.2843951e-22
2.2844595e-22
2.2846192e-22
2.2849549e-22
2.2881711e-22
2.2862865e-22
2.2852976e-22
2.2848232e-22
2.2846212e-22
2.2845524e-22
2.2845547e-22
2.2846192e-22
2.284779e-22
2.285115e-22
2.2884245e-22
2.2865951e-22
2.2856241e-22
2.2851558e-22
2.2849558e-22
2.2848878e-22
2.2848903e-22
2.2849549e-22
2.285115e-22
2.2854518e-22
5.6738594e-22
5.6692874e-22
5.6668689e-22
5.6657034e-22
5.6652039e-22
5.6650272e-22
5.6650133e-22
5.6651249e-22
5.6654116e-22
5.6660047e-22
5.6692874e-22
5.6647328e-22
5.6623203e-22
5.6611572e-22
5.6606591e-22
5.6604844e-22
5.6604758e-22
5.6606026e-22
5.6609334e-22
5.6616614e-22
5.6668689e-22
5.6623203e-22
5.6599113e-22
5.6587501e-22
5.6582533e-22
5.658081e-22
5.658078e-22
5.6582181e-22
5.6585767e-22
5.6593482e-22
5.6657034e-22
5.6611572e-22
5.6587501e-22
5.6575901e-22
5.6570943e-22
5.6569237e-22
5.6569244e-22
5.6570722e-22
5.657444e-22
5.6582305e-22
5.6652039e-22
5.6606591e-22
5.6582533e-22
5.6570943e-22
5.6565994e-22
5.6564298e-22
5.6564325e-22
5.6565839e-22
5.6569612e-22
5.6577528e-22
5.6650272e-22
5.6604844e-22
5.658081e-22
5.6569237e-22
5.6564298e-22
5.6562609e-22
5.6562646e-22
5.6564176e-22
5.6567969e-22
5.6575902e-22
5.6650133e-22
5.6604758e-22
5.658078e-22
5.6569244e-22
5.6564325e-22
5.6562646e-22
5.6562688e-22
5.6564225e-22
5.6568026e-22
5.6575965e-22
5.6651249e-22
5.6606026e-22
5.6582181e-22
5.6570722e-22
5.6565839e-22
5.6564176e-22
5.6564225e-22
5.6565765e-22
5.6569569e-22
5.6577512e-22
5.6654116e-22
5.6609334e-22
5.6585767e-22
5.657444e-22
5.6569612e-22
5.6567969e-22
5.6568026e-22
5.6569569e-22
5.6573377e-22
5.6581325e-22
5.6660047e-22
5.6616614e-22
5.6593482e-22
5.6582305e-22
5.6577528e-22
5.6575902e-22
5.6575965e-22
5.6577512e-22