/*--------------------------------*- C++ -*----------------------------------*\
| =========                 |                                                 |
| \\      /  F ield         | OpenFOAM: The Open Source CFD Toolbox           |
|  \\    /   O peration     | Version:  dev                                   |
|   \\  /    A nd           | Web:      www.OpenFOAM.org                      |
|    \\/     M anipulation  |                                                 |
\*---------------------------------------------------------------------------*/
FoamFile
{
    version     2.0;
    format      ascii;
    class       volScalarField;
    location    "14";
    object      A;
}
// * * * * * * * * * * * * * * * * * * * * * * * * * * * * * * * * * * * * * //

dimensions      [0 0 0 0 1 0 0];

internalField   nonuniform List<scalar> 
10000
(
8.6362055e-63
8.6343051e-63
8.6335635e-63
8.6333154e-63
8.6332453e-63
8.6332286e-63
8.6332258e-63
8.6332282e-63
8.6332385e-63
8.6332759e-63
8.6343051e-63
8.6324057e-63
8.6316644e-63
8.6314165e-63
8.6313464e-63
8.6313298e-63
8.6313274e-63
8.631331e-63
8.6313463e-63
8.6314009e-63
8.6335635e-63
8.6316644e-63
8.6309233e-63
8.6306754e-63
8.6306054e-63
8.6305888e-63
8.6305867e-63
8.6305913e-63
8.6306091e-63
8.6306687e-63
8.6333154e-63
8.6314165e-63
8.6306754e-63
8.6304275e-63
8.6303575e-63
8.630341e-63
8.6303389e-63
8.6303439e-63
8.6303627e-63
8.6304236e-63
8.6332453e-63
8.6313464e-63
8.6306054e-63
8.6303575e-63
8.6302875e-63
8.630271e-63
8.630269e-63
8.6302741e-63
8.6302931e-63
8.6303543e-63
8.6332286e-63
8.6313298e-63
8.6305888e-63
8.630341e-63
8.630271e-63
8.6302544e-63
8.6302525e-63
8.6302576e-63
8.6302767e-63
8.630338e-63
8.6332258e-63
8.6313274e-63
8.6305867e-63
8.6303389e-63
8.630269e-63
8.6302525e-63
8.6302505e-63
8.6302556e-63
8.6302747e-63
8.630336e-63
8.6332282e-63
8.631331e-63
8.6305913e-63
8.6303439e-63
8.6302741e-63
8.6302576e-63
8.6302556e-63
8.6302608e-63
8.6302799e-63
8.6303412e-63
8.6332385e-63
8.6313463e-63
8.6306091e-63
8.6303627e-63
8.6302931e-63
8.6302767e-63
8.6302747e-63
8.6302799e-63
8.630299e-63
8.6303603e-63
8.6332759e-63
8.6314009e-63
8.6306687e-63
8.6304236e-63
8.6303543e-63
8.630338e-63
8.630336e-63
8.6303412e-63
8.6303603e-63
8.6304216e-63
5.0731234e-62
5.0720374e-62
5.07161e-62
5.0714669e-62
5.0714265e-62
5.0714168e-62
5.0714152e-62
5.0714166e-62
5.0714225e-62
5.0714448e-62
5.0720374e-62
5.0709519e-62
5.0705247e-62
5.0703817e-62
5.0703413e-62
5.0703317e-62
5.0703303e-62
5.0703324e-62
5.0703412e-62
5.0703736e-62
5.07161e-62
5.0705247e-62
5.0700976e-62
5.0699546e-62
5.0699142e-62
5.0699047e-62
5.0699034e-62
5.0699061e-62
5.0699164e-62
5.0699516e-62
5.0714669e-62
5.0703817e-62
5.0699546e-62
5.0698116e-62
5.0697713e-62
5.0697617e-62
5.0697605e-62
5.0697634e-62
5.0697743e-62
5.0698103e-62
5.0714265e-62
5.0703413e-62
5.0699142e-62
5.0697713e-62
5.0697309e-62
5.0697213e-62
5.0697202e-62
5.0697231e-62
5.0697341e-62
5.0697703e-62
5.0714168e-62
5.0703317e-62
5.0699047e-62
5.0697617e-62
5.0697213e-62
5.0697118e-62
5.0697106e-62
5.0697136e-62
5.0697247e-62
5.0697609e-62
5.0714152e-62
5.0703303e-62
5.0699034e-62
5.0697605e-62
5.0697202e-62
5.0697106e-62
5.0697095e-62
5.0697125e-62
5.0697235e-62
5.0697598e-62
5.0714166e-62
5.0703324e-62
5.0699061e-62
5.0697634e-62
5.0697231e-62
5.0697136e-62
5.0697125e-62
5.0697155e-62
5.0697265e-62
5.0697628e-62
5.0714225e-62
5.0703412e-62
5.0699164e-62
5.0697743e-62
5.0697341e-62
5.0697247e-62
5.0697235e-62
5.0697265e-62
5.0697376e-62
5.0697738e-62
5.0714448e-62
5.0703736e-62
5.0699516e-62
5.0698103e-62
5.0697703e-62
5.0697609e-62
5.0697598e-62
5.0697628e-62
5.0697738e-62
5.0698101e-62
2.4395746e-61
2.4390667e-61
2.4388663e-61
2.4387991e-61
2.4387801e-61
2.4387756e-61
2.4387749e-61
2.4387755e-61
2.4387783e-61
2.4387886e-61
2.4390667e-61
2.4385592e-61
2.4383588e-61
2.4382917e-61
2.4382727e-61
2.4382682e-61
2.4382675e-61
2.4382685e-61
2.4382727e-61
2.4382878e-61
2.4388663e-61
2.4383588e-61
2.4381585e-61
2.4380914e-61
2.4380724e-61
2.4380679e-61
2.4380673e-61
2.4380686e-61
2.4380734e-61
2.4380899e-61
2.4387991e-61
2.4382917e-61
2.4380914e-61
2.4380242e-61
2.4380053e-61
2.4380008e-61
2.4380002e-61
2.4380016e-61
2.4380067e-61
2.4380236e-61
2.4387801e-61
2.4382727e-61
2.4380724e-61
2.4380053e-61
2.4379863e-61
2.4379818e-61
2.4379813e-61
2.4379827e-61
2.4379879e-61
2.4380048e-61
2.4387756e-61
2.4382682e-61
2.4380679e-61
2.4380008e-61
2.4379818e-61
2.4379773e-61
2.4379768e-61
2.4379782e-61
2.4379834e-61
2.4380004e-61
2.4387749e-61
2.4382675e-61
2.4380673e-61
2.4380002e-61
2.4379813e-61
2.4379768e-61
2.4379763e-61
2.4379777e-61
2.4379829e-61
2.4379998e-61
2.4387755e-61
2.4382685e-61
2.4380686e-61
2.4380016e-61
2.4379827e-61
2.4379782e-61
2.4379777e-61
2.4379791e-61
2.4379843e-61
2.4380013e-61
2.4387783e-61
2.4382727e-61
2.4380734e-61
2.4380067e-61
2.4379879e-61
2.4379834e-61
2.4379829e-61
2.4379843e-61
2.4379895e-61
2.4380065e-61
2.4387886e-61
2.4382878e-61
2.4380899e-61
2.4380236e-61
2.4380048e-61
2.4380004e-61
2.4379998e-61
2.4380013e-61
2.4380065e-61
2.4380234e-61
1.1891171e-60
1.1888765e-60
1.1887813e-60
1.1887494e-60
1.1887403e-60
1.1887382e-60
1.1887378e-60
1.1887381e-60
1.1887394e-60
1.1887442e-60
1.1888765e-60
1.1886361e-60
1.1885409e-60
1.188509e-60
1.1885e-60
1.1884978e-60
1.1884975e-60
1.188498e-60
1.1885e-60
1.188507e-60
1.1887813e-60
1.1885409e-60
1.1884458e-60
1.1884139e-60
1.1884049e-60
1.1884027e-60
1.1884024e-60
1.188403e-60
1.1884054e-60
1.1884131e-60
1.1887494e-60
1.188509e-60
1.1884139e-60
1.188382e-60
1.1883729e-60
1.1883708e-60
1.1883706e-60
1.1883712e-60
1.1883736e-60
1.1883816e-60
1.1887403e-60
1.1885e-60
1.1884049e-60
1.1883729e-60
1.1883639e-60
1.1883618e-60
1.1883615e-60
1.1883622e-60
1.1883647e-60
1.1883726e-60
1.1887382e-60
1.1884978e-60
1.1884027e-60
1.1883708e-60
1.1883618e-60
1.1883597e-60
1.1883594e-60
1.1883601e-60
1.1883626e-60
1.1883705e-60
1.1887378e-60
1.1884975e-60
1.1884024e-60
1.1883706e-60
1.1883615e-60
1.1883594e-60
1.1883592e-60
1.1883598e-60
1.1883623e-60
1.1883703e-60
1.1887381e-60
1.188498e-60
1.188403e-60
1.1883712e-60
1.1883622e-60
1.1883601e-60
1.1883598e-60
1.1883605e-60
1.188363e-60
1.188371e-60
1.1887394e-60
1.1885e-60
1.1884054e-60
1.1883736e-60
1.1883647e-60
1.1883626e-60
1.1883623e-60
1.188363e-60
1.1883655e-60
1.1883734e-60
1.1887442e-60
1.188507e-60
1.1884131e-60
1.1883816e-60
1.1883726e-60
1.1883705e-60
1.1883703e-60
1.188371e-60
1.1883734e-60
1.1883814e-60
5.9254384e-60
5.924274e-60
5.9238121e-60
5.923657e-60
5.9236132e-60
5.9236027e-60
5.923601e-60
5.9236025e-60
5.9236088e-60
5.9236313e-60
5.924274e-60
5.9231102e-60
5.9226485e-60
5.9224935e-60
5.9224497e-60
5.9224392e-60
5.9224377e-60
5.9224401e-60
5.9224497e-60
5.9224835e-60
5.9238121e-60
5.9226485e-60
5.9221869e-60
5.922032e-60
5.9219881e-60
5.9219777e-60
5.9219764e-60
5.9219794e-60
5.9219906e-60
5.9220278e-60
5.923657e-60
5.9224935e-60
5.922032e-60
5.921877e-60
5.9218332e-60
5.9218228e-60
5.9218216e-60
5.9218248e-60
5.9218366e-60
5.9218746e-60
5.9236132e-60
5.9224497e-60
5.9219881e-60
5.9218332e-60
5.9217893e-60
5.921779e-60
5.9217778e-60
5.9217811e-60
5.9217931e-60
5.9218313e-60
5.9236027e-60
5.9224392e-60
5.9219777e-60
5.9218228e-60
5.921779e-60
5.9217686e-60
5.9217674e-60
5.9217707e-60
5.9217828e-60
5.9218211e-60
5.923601e-60
5.9224377e-60
5.9219764e-60
5.9218216e-60
5.9217778e-60
5.9217674e-60
5.9217662e-60
5.9217695e-60
5.9217816e-60
5.9218199e-60
5.9236025e-60
5.9224401e-60
5.9219794e-60
5.9218248e-60
5.9217811e-60
5.9217707e-60
5.9217695e-60
5.9217729e-60
5.9217849e-60
5.9218232e-60
5.9236088e-60
5.9224497e-60
5.9219906e-60
5.9218366e-60
5.9217931e-60
5.9217828e-60
5.9217816e-60
5.9217849e-60
5.921797e-60
5.9218353e-60
5.9236313e-60
5.9224835e-60
5.9220278e-60
5.9218746e-60
5.9218313e-60
5.9218211e-60
5.9218199e-60
5.9218232e-60
5.9218353e-60
5.9218736e-60
3.0197633e-59
3.0191871e-59
3.018958e-59
3.018881e-59
3.0188592e-59
3.018854e-59
3.0188532e-59
3.0188539e-59
3.018857e-59
3.0188679e-59
3.0191871e-59
3.0186112e-59
3.0183823e-59
3.0183053e-59
3.0182835e-59
3.0182783e-59
3.0182776e-59
3.0182788e-59
3.0182835e-59
3.0183001e-59
3.018958e-59
3.0183823e-59
3.0181533e-59
3.0180764e-59
3.0180546e-59
3.0180494e-59
3.0180488e-59
3.0180503e-59
3.0180559e-59
3.0180741e-59
3.018881e-59
3.0183053e-59
3.0180764e-59
3.0179994e-59
3.0179777e-59
3.0179725e-59
3.0179719e-59
3.0179735e-59
3.0179794e-59
3.0179981e-59
3.0188592e-59
3.0182835e-59
3.0180546e-59
3.0179777e-59
3.0179559e-59
3.0179507e-59
3.0179502e-59
3.0179518e-59
3.0179578e-59
3.0179766e-59
3.018854e-59
3.0182783e-59
3.0180494e-59
3.0179725e-59
3.0179507e-59
3.0179456e-59
3.017945e-59
3.0179467e-59
3.0179527e-59
3.0179715e-59
3.0188532e-59
3.0182776e-59
3.0180488e-59
3.0179719e-59
3.0179502e-59
3.017945e-59
3.0179444e-59
3.0179461e-59
3.0179521e-59
3.0179709e-59
3.0188539e-59
3.0182788e-59
3.0180503e-59
3.0179735e-59
3.0179518e-59
3.0179467e-59
3.0179461e-59
3.0179478e-59
3.0179538e-59
3.0179726e-59
3.018857e-59
3.0182835e-59
3.0180559e-59
3.0179794e-59
3.0179578e-59
3.0179527e-59
3.0179521e-59
3.0179538e-59
3.0179598e-59
3.0179786e-59
3.0188679e-59
3.0183001e-59
3.0180741e-59
3.0179981e-59
3.0179766e-59
3.0179715e-59
3.0179709e-59
3.0179726e-59
3.0179786e-59
3.0179974e-59
1.5739759e-58
1.5736845e-58
1.5735683e-58
1.5735292e-58
1.5735182e-58
1.5735155e-58
1.5735151e-58
1.5735155e-58
1.5735171e-58
1.5735224e-58
1.5736845e-58
1.5733932e-58
1.5732771e-58
1.573238e-58
1.5732269e-58
1.5732243e-58
1.5732239e-58
1.5732245e-58
1.573227e-58
1.5732353e-58
1.5735683e-58
1.5732771e-58
1.573161e-58
1.5731219e-58
1.5731109e-58
1.5731082e-58
1.5731079e-58
1.5731087e-58
1.5731115e-58
1.5731207e-58
1.5735292e-58
1.573238e-58
1.5731219e-58
1.5730829e-58
1.5730718e-58
1.5730692e-58
1.5730689e-58
1.5730697e-58
1.5730727e-58
1.5730821e-58
1.5735182e-58
1.5732269e-58
1.5731109e-58
1.5730718e-58
1.5730608e-58
1.5730582e-58
1.5730579e-58
1.5730587e-58
1.5730618e-58
1.5730712e-58
1.5735155e-58
1.5732243e-58
1.5731082e-58
1.5730692e-58
1.5730582e-58
1.5730556e-58
1.5730553e-58
1.5730561e-58
1.5730592e-58
1.5730686e-58
1.5735151e-58
1.5732239e-58
1.5731079e-58
1.5730689e-58
1.5730579e-58
1.5730553e-58
1.573055e-58
1.5730558e-58
1.5730589e-58
1.5730683e-58
1.5735155e-58
1.5732245e-58
1.5731087e-58
1.5730697e-58
1.5730587e-58
1.5730561e-58
1.5730558e-58
1.5730567e-58
1.5730597e-58
1.5730692e-58
1.5735171e-58
1.573227e-58
1.5731115e-58
1.5730727e-58
1.5730618e-58
1.5730592e-58
1.5730589e-58
1.5730597e-58
1.5730628e-58
1.5730722e-58
1.5735224e-58
1.5732353e-58
1.5731207e-58
1.5730821e-58
1.5730712e-58
1.5730686e-58
1.5730683e-58
1.5730692e-58
1.5730722e-58
1.5730817e-58
8.3907629e-58
8.3892557e-58
8.3886537e-58
8.388451e-58
8.3883936e-58
8.3883799e-58
8.3883777e-58
8.3883796e-58
8.3883878e-58
8.388415e-58
8.3892557e-58
8.3877493e-58
8.3871475e-58
8.3869449e-58
8.3868875e-58
8.3868739e-58
8.386872e-58
8.3868752e-58
8.3868877e-58
8.3869303e-58
8.3886537e-58
8.3871475e-58
8.3865458e-58
8.3863433e-58
8.3862859e-58
8.3862723e-58
8.3862706e-58
8.3862747e-58
8.3862895e-58
8.3863366e-58
8.388451e-58
8.3869449e-58
8.3863433e-58
8.3861407e-58
8.3860834e-58
8.3860698e-58
8.3860682e-58
8.3860726e-58
8.3860882e-58
8.3861365e-58
8.3883936e-58
8.3868875e-58
8.3862859e-58
8.3860834e-58
8.386026e-58
8.3860125e-58
8.3860109e-58
8.3860154e-58
8.3860313e-58
8.3860798e-58
8.3883799e-58
8.3868739e-58
8.3862723e-58
8.3860698e-58
8.3860125e-58
8.3859989e-58
8.3859974e-58
8.3860019e-58
8.3860178e-58
8.3860665e-58
8.3883777e-58
8.386872e-58
8.3862706e-58
8.3860682e-58
8.3860109e-58
8.3859974e-58
8.3859959e-58
8.3860004e-58
8.3860163e-58
8.386065e-58
8.3883796e-58
8.3868752e-58
8.3862747e-58
8.3860726e-58
8.3860154e-58
8.3860019e-58
8.3860004e-58
8.3860049e-58
8.3860208e-58
8.3860695e-58
8.3883878e-58
8.3868877e-58
8.3862895e-58
8.3860882e-58
8.3860313e-58
8.3860178e-58
8.3860163e-58
8.3860208e-58
8.3860368e-58
8.3860854e-58
8.388415e-58
8.3869303e-58
8.3863366e-58
8.3861365e-58
8.3860798e-58
8.3860665e-58
8.386065e-58
8.3860695e-58
8.3860854e-58
8.3861341e-58
4.5749171e-57
4.5741203e-57
4.5738014e-57
4.5736939e-57
4.5736634e-57
4.5736562e-57
4.573655e-57
4.573656e-57
4.5736603e-57
4.5736744e-57
4.5741203e-57
4.573324e-57
4.5730051e-57
4.5728977e-57
4.5728672e-57
4.57286e-57
4.572859e-57
4.5728607e-57
4.5728674e-57
4.5728897e-57
4.5738014e-57
4.5730051e-57
4.5726863e-57
4.5725789e-57
4.5725485e-57
4.5725413e-57
4.5725404e-57
4.5725425e-57
4.5725505e-57
4.5725752e-57
4.5736939e-57
4.5728977e-57
4.5725789e-57
4.5724715e-57
4.5724411e-57
4.5724339e-57
4.5724331e-57
4.5724354e-57
4.5724437e-57
4.5724691e-57
4.5736634e-57
4.5728672e-57
4.5725485e-57
4.5724411e-57
4.5724107e-57
4.5724035e-57
4.5724027e-57
4.5724051e-57
4.5724135e-57
4.5724391e-57
4.5736562e-57
4.57286e-57
4.5725413e-57
4.5724339e-57
4.5724035e-57
4.5723963e-57
4.5723955e-57
4.5723979e-57
4.5724064e-57
4.572432e-57
4.573655e-57
4.572859e-57
4.5725404e-57
4.5724331e-57
4.5724027e-57
4.5723955e-57
4.5723947e-57
4.5723971e-57
4.5724056e-57
4.5724312e-57
4.573656e-57
4.5728607e-57
4.5725425e-57
4.5724354e-57
4.5724051e-57
4.5723979e-57
4.5723971e-57
4.5723995e-57
4.572408e-57
4.5724336e-57
4.5736603e-57
4.5728674e-57
4.5725505e-57
4.5724437e-57
4.5724135e-57
4.5724064e-57
4.5724056e-57
4.572408e-57
4.5724165e-57
4.5724421e-57
4.5736744e-57
4.5728897e-57
4.5725752e-57
4.5724691e-57
4.5724391e-57
4.572432e-57
4.5724312e-57
4.5724336e-57
4.5724421e-57
4.5724677e-57
2.5511649e-56
2.5507343e-56
2.5505615e-56
2.5505033e-56
2.5504868e-56
2.5504828e-56
2.5504822e-56
2.5504828e-56
2.5504851e-56
2.5504925e-56
2.5507343e-56
2.5503039e-56
2.5501312e-56
2.550073e-56
2.5500565e-56
2.5500526e-56
2.550052e-56
2.550053e-56
2.5500566e-56
2.5500686e-56
2.5505615e-56
2.5501312e-56
2.5499586e-56
2.5499004e-56
2.5498839e-56
2.54988e-56
2.5498795e-56
2.5498807e-56
2.549885e-56
2.5498983e-56
2.5505033e-56
2.550073e-56
2.5499004e-56
2.5498421e-56
2.5498256e-56
2.5498217e-56
2.5498213e-56
2.5498226e-56
2.5498271e-56
2.5498408e-56
2.5504868e-56
2.5500565e-56
2.5498839e-56
2.5498256e-56
2.5498092e-56
2.5498053e-56
2.5498048e-56
2.5498061e-56
2.5498108e-56
2.5498245e-56
2.5504828e-56
2.5500526e-56
2.54988e-56
2.5498217e-56
2.5498053e-56
2.5498014e-56
2.5498009e-56
2.5498023e-56
2.5498069e-56
2.5498207e-56
2.5504822e-56
2.550052e-56
2.5498795e-56
2.5498213e-56
2.5498048e-56
2.5498009e-56
2.5498005e-56
2.5498018e-56
2.5498065e-56
2.5498203e-56
2.5504828e-56
2.550053e-56
2.5498807e-56
2.5498226e-56
2.5498061e-56
2.5498023e-56
2.5498018e-56
2.5498031e-56
2.5498078e-56
2.5498216e-56
2.5504851e-56
2.5500566e-56
2.549885e-56
2.5498271e-56
2.5498108e-56
2.5498069e-56
2.5498065e-56
2.5498078e-56
2.5498124e-56
2.5498262e-56
2.5504925e-56
2.5500686e-56
2.5498983e-56
2.5498408e-56
2.5498245e-56
2.5498207e-56
2.5498203e-56
2.5498216e-56
2.5498262e-56
2.54984e-56
1.4549805e-55
1.4547426e-55
1.454647e-55
1.4546147e-55
1.4546056e-55
1.4546034e-55
1.454603e-55
1.4546033e-55
1.4546046e-55
1.4546087e-55
1.4547426e-55
1.4545049e-55
1.4544093e-55
1.454377e-55
1.4543679e-55
1.4543657e-55
1.4543654e-55
1.4543659e-55
1.4543679e-55
1.4543745e-55
1.454647e-55
1.4544093e-55
1.4543137e-55
1.4542814e-55
1.4542723e-55
1.4542701e-55
1.4542699e-55
1.4542705e-55
1.4542729e-55
1.4542803e-55
1.4546147e-55
1.454377e-55
1.4542814e-55
1.4542492e-55
1.45424e-55
1.4542379e-55
1.4542376e-55
1.4542384e-55
1.4542409e-55
1.4542484e-55
1.4546056e-55
1.4543679e-55
1.4542723e-55
1.45424e-55
1.4542309e-55
1.4542287e-55
1.4542285e-55
1.4542292e-55
1.4542318e-55
1.4542394e-55
1.4546034e-55
1.4543657e-55
1.4542701e-55
1.4542379e-55
1.4542287e-55
1.4542266e-55
1.4542263e-55
1.4542271e-55
1.4542297e-55
1.4542373e-55
1.454603e-55
1.4543654e-55
1.4542699e-55
1.4542376e-55
1.4542285e-55
1.4542263e-55
1.4542261e-55
1.4542268e-55
1.4542294e-55
1.454237e-55
1.4546033e-55
1.4543659e-55
1.4542705e-55
1.4542384e-55
1.4542292e-55
1.4542271e-55
1.4542268e-55
1.4542276e-55
1.4542302e-55
1.4542378e-55
1.4546046e-55
1.4543679e-55
1.4542729e-55
1.4542409e-55
1.4542318e-55
1.4542297e-55
1.4542294e-55
1.4542302e-55
1.4542328e-55
1.4542404e-55
1.4546087e-55
1.4543745e-55
1.4542803e-55
1.4542484e-55
1.4542394e-55
1.4542373e-55
1.454237e-55
1.4542378e-55
1.4542404e-55
1.454248e-55
8.4864e-55
8.4850569e-55
8.4845158e-55
8.484333e-55
8.4842812e-55
8.4842688e-55
8.4842668e-55
8.4842687e-55
8.4842759e-55
8.4842983e-55
8.4850569e-55
8.4837144e-55
8.4831736e-55
8.4829908e-55
8.482939e-55
8.4829267e-55
8.482925e-55
8.482928e-55
8.4829395e-55
8.4829766e-55
8.4845158e-55
8.4831736e-55
8.4826328e-55
8.4824501e-55
8.4823983e-55
8.482386e-55
8.4823846e-55
8.4823884e-55
8.482402e-55
8.4824434e-55
8.484333e-55
8.4829908e-55
8.4824501e-55
8.4822674e-55
8.4822156e-55
8.4822034e-55
8.482202e-55
8.4822062e-55
8.4822206e-55
8.4822631e-55
8.4842812e-55
8.482939e-55
8.4823983e-55
8.4822156e-55
8.4821639e-55
8.4821516e-55
8.4821503e-55
8.4821545e-55
8.4821692e-55
8.482212e-55
8.4842688e-55
8.4829267e-55
8.482386e-55
8.4822034e-55
8.4821516e-55
8.4821394e-55
8.4821381e-55
8.4821423e-55
8.4821571e-55
8.4821999e-55
8.4842668e-55
8.482925e-55
8.4823846e-55
8.482202e-55
8.4821503e-55
8.4821381e-55
8.4821368e-55
8.482141e-55
8.4821558e-55
8.4821986e-55
8.4842687e-55
8.482928e-55
8.4823884e-55
8.4822062e-55
8.4821545e-55
8.4821423e-55
8.482141e-55
8.4821453e-55
8.48216e-55
8.4822029e-55
8.4842759e-55
8.4829395e-55
8.482402e-55
8.4822206e-55
8.4821692e-55
8.4821571e-55
8.4821558e-55
8.48216e-55
8.4821748e-55
8.4822177e-55
8.4842983e-55
8.4829766e-55
8.4824434e-55
8.4822631e-55
8.482212e-55
8.4821999e-55
8.4821986e-55
8.4822029e-55
8.4822177e-55
8.4822605e-55
5.0619312e-54
5.061156e-54
5.0608431e-54
5.0607374e-54
5.0607073e-54
5.0607002e-54
5.060699e-54
5.0607001e-54
5.0607043e-54
5.060717e-54
5.061156e-54
5.0603813e-54
5.0600685e-54
5.0599627e-54
5.0599327e-54
5.0599256e-54
5.0599246e-54
5.0599264e-54
5.0599331e-54
5.0599544e-54
5.0608431e-54
5.0600685e-54
5.0597558e-54
5.05965e-54
5.0596201e-54
5.0596129e-54
5.0596121e-54
5.0596143e-54
5.0596223e-54
5.0596462e-54
5.0607374e-54
5.0599627e-54
5.05965e-54
5.0595443e-54
5.0595143e-54
5.0595073e-54
5.0595065e-54
5.0595089e-54
5.0595173e-54
5.0595418e-54
5.0607073e-54
5.0599327e-54
5.0596201e-54
5.0595143e-54
5.0594844e-54
5.0594773e-54
5.0594765e-54
5.059479e-54
5.0594876e-54
5.0595122e-54
5.0607002e-54
5.0599256e-54
5.0596129e-54
5.0595073e-54
5.0594773e-54
5.0594702e-54
5.0594695e-54
5.0594719e-54
5.0594805e-54
5.0595053e-54
5.060699e-54
5.0599246e-54
5.0596121e-54
5.0595065e-54
5.0594765e-54
5.0594695e-54
5.0594687e-54
5.0594712e-54
5.0594798e-54
5.0595045e-54
5.0607001e-54
5.0599264e-54
5.0596143e-54
5.0595089e-54
5.059479e-54
5.0594719e-54
5.0594712e-54
5.0594737e-54
5.0594823e-54
5.059507e-54
5.0607043e-54
5.0599331e-54
5.0596223e-54
5.0595173e-54
5.0594876e-54
5.0594805e-54
5.0594798e-54
5.0594823e-54
5.0594909e-54
5.0595156e-54
5.060717e-54
5.0599544e-54
5.0596462e-54
5.0595418e-54
5.0595122e-54
5.0595053e-54
5.0595045e-54
5.059507e-54
5.0595156e-54
5.0595404e-54
3.0875092e-53
3.087052e-53
3.0868671e-53
3.0868045e-53
3.0867867e-53
3.0867825e-53
3.0867818e-53
3.0867825e-53
3.086785e-53
3.0867923e-53
3.087052e-53
3.086595e-53
3.0864101e-53
3.0863476e-53
3.0863299e-53
3.0863256e-53
3.0863251e-53
3.0863261e-53
3.0863301e-53
3.0863427e-53
3.0868671e-53
3.0864101e-53
3.0862253e-53
3.0861628e-53
3.0861451e-53
3.0861409e-53
3.0861404e-53
3.0861417e-53
3.0861465e-53
3.0861605e-53
3.0868045e-53
3.0863476e-53
3.0861628e-53
3.0861003e-53
3.0860825e-53
3.0860783e-53
3.0860779e-53
3.0860793e-53
3.0860844e-53
3.0860988e-53
3.0867867e-53
3.0863299e-53
3.0861451e-53
3.0860825e-53
3.0860648e-53
3.0860606e-53
3.0860602e-53
3.0860617e-53
3.0860668e-53
3.0860813e-53
3.0867825e-53
3.0863256e-53
3.0861409e-53
3.0860783e-53
3.0860606e-53
3.0860564e-53
3.086056e-53
3.0860575e-53
3.0860626e-53
3.0860772e-53
3.0867818e-53
3.0863251e-53
3.0861404e-53
3.0860779e-53
3.0860602e-53
3.086056e-53
3.0860555e-53
3.086057e-53
3.0860622e-53
3.0860768e-53
3.0867825e-53
3.0863261e-53
3.0861417e-53
3.0860793e-53
3.0860617e-53
3.0860575e-53
3.086057e-53
3.0860585e-53
3.0860637e-53
3.0860783e-53
3.086785e-53
3.0863301e-53
3.0861465e-53
3.0860844e-53
3.0860668e-53
3.0860626e-53
3.0860622e-53
3.0860637e-53
3.0860688e-53
3.0860834e-53
3.0867923e-53
3.0863427e-53
3.0861605e-53
3.0860988e-53
3.0860813e-53
3.0860772e-53
3.0860768e-53
3.0860783e-53
3.0860834e-53
3.086098e-53
1.9256014e-52
1.9253258e-52
1.9252141e-52
1.9251763e-52
1.9251656e-52
1.925163e-52
1.9251626e-52
1.925163e-52
1.9251645e-52
1.9251689e-52
1.9253258e-52
1.9250503e-52
1.9249387e-52
1.9249009e-52
1.9248902e-52
1.9248876e-52
1.9248873e-52
1.9248879e-52
1.9248904e-52
1.9248979e-52
1.9252141e-52
1.9249387e-52
1.9248271e-52
1.9247893e-52
1.9247786e-52
1.924776e-52
1.9247758e-52
1.9247766e-52
1.9247795e-52
1.924788e-52
1.9251763e-52
1.9249009e-52
1.9247893e-52
1.9247515e-52
1.9247408e-52
1.9247383e-52
1.924738e-52
1.9247389e-52
1.924742e-52
1.9247507e-52
1.9251656e-52
1.9248902e-52
1.9247786e-52
1.9247408e-52
1.9247301e-52
1.9247276e-52
1.9247273e-52
1.9247282e-52
1.9247313e-52
1.9247401e-52
1.925163e-52
1.9248876e-52
1.924776e-52
1.9247383e-52
1.9247276e-52
1.924725e-52
1.9247248e-52
1.9247257e-52
1.9247288e-52
1.9247376e-52
1.9251626e-52
1.9248873e-52
1.9247758e-52
1.924738e-52
1.9247273e-52
1.9247248e-52
1.9247245e-52
1.9247254e-52
1.9247285e-52
1.9247374e-52
1.925163e-52
1.9248879e-52
1.9247766e-52
1.9247389e-52
1.9247282e-52
1.9247257e-52
1.9247254e-52
1.9247263e-52
1.9247295e-52
1.9247383e-52
1.9251645e-52
1.9248904e-52
1.9247795e-52
1.924742e-52
1.9247313e-52
1.9247288e-52
1.9247285e-52
1.9247295e-52
1.9247326e-52
1.9247414e-52
1.9251689e-52
1.9248979e-52
1.924788e-52
1.9247507e-52
1.9247401e-52
1.9247376e-52
1.9247374e-52
1.9247383e-52
1.9247414e-52
1.9247502e-52
1.2278666e-51
1.2276969e-51
1.227628e-51
1.2276046e-51
1.227598e-51
1.2275964e-51
1.2275962e-51
1.2275964e-51
1.2275974e-51
1.2276e-51
1.2276969e-51
1.2275273e-51
1.2274584e-51
1.227435e-51
1.2274284e-51
1.2274268e-51
1.2274266e-51
1.227427e-51
1.2274285e-51
1.2274332e-51
1.227628e-51
1.2274584e-51
1.2273895e-51
1.2273662e-51
1.2273596e-51
1.227358e-51
1.2273578e-51
1.2273583e-51
1.2273601e-51
1.2273654e-51
1.2276046e-51
1.227435e-51
1.2273662e-51
1.2273428e-51
1.2273362e-51
1.2273347e-51
1.2273345e-51
1.2273351e-51
1.227337e-51
1.2273424e-51
1.227598e-51
1.2274284e-51
1.2273596e-51
1.2273362e-51
1.2273296e-51
1.227328e-51
1.2273279e-51
1.2273284e-51
1.2273304e-51
1.2273358e-51
1.2275964e-51
1.2274268e-51
1.227358e-51
1.2273347e-51
1.227328e-51
1.2273265e-51
1.2273263e-51
1.2273269e-51
1.2273288e-51
1.2273343e-51
1.2275962e-51
1.2274266e-51
1.2273578e-51
1.2273345e-51
1.2273279e-51
1.2273263e-51
1.2273262e-51
1.2273267e-51
1.2273287e-51
1.2273341e-51
1.2275964e-51
1.227427e-51
1.2273583e-51
1.2273351e-51
1.2273284e-51
1.2273269e-51
1.2273267e-51
1.2273273e-51
1.2273293e-51
1.2273347e-51
1.2275974e-51
1.2274285e-51
1.2273601e-51
1.227337e-51
1.2273304e-51
1.2273288e-51
1.2273287e-51
1.2273293e-51
1.2273312e-51
1.2273367e-51
1.2276e-51
1.2274332e-51
1.2273654e-51
1.2273424e-51
1.2273358e-51
1.2273343e-51
1.2273341e-51
1.2273347e-51
1.2273367e-51
1.2273421e-51
8.0041787e-51
8.0031107e-51
8.0026764e-51
8.0025292e-51
8.0024873e-51
8.0024773e-51
8.0024758e-51
8.0024773e-51
8.0024832e-51
8.0024997e-51
8.0031107e-51
8.0020433e-51
8.0016092e-51
8.0014619e-51
8.0014201e-51
8.0014102e-51
8.0014089e-51
8.0014115e-51
8.0014211e-51
8.0014504e-51
8.0026764e-51
8.0016092e-51
8.0011751e-51
8.0010279e-51
8.0009861e-51
8.0009762e-51
8.0009751e-51
8.0009783e-51
8.0009898e-51
8.0010229e-51
8.0025292e-51
8.0014619e-51
8.0010279e-51
8.0008807e-51
8.0008389e-51
8.000829e-51
8.000828e-51
8.0008316e-51
8.0008438e-51
8.0008778e-51
8.0024873e-51
8.0014201e-51
8.0009861e-51
8.0008389e-51
8.0007971e-51
8.0007873e-51
8.0007863e-51
8.0007899e-51
8.0008023e-51
8.0008366e-51
8.0024773e-51
8.0014102e-51
8.0009762e-51
8.000829e-51
8.0007873e-51
8.0007774e-51
8.0007764e-51
8.0007801e-51
8.0007925e-51
8.0008268e-51
8.0024758e-51
8.0014089e-51
8.0009751e-51
8.000828e-51
8.0007863e-51
8.0007764e-51
8.0007754e-51
8.0007791e-51
8.0007915e-51
8.0008259e-51
8.0024773e-51
8.0014115e-51
8.0009783e-51
8.0008316e-51
8.0007899e-51
8.0007801e-51
8.0007791e-51
8.0007828e-51
8.0007952e-51
8.0008296e-51
8.0024832e-51
8.0014211e-51
8.0009898e-51
8.0008438e-51
8.0008023e-51
8.0007925e-51
8.0007915e-51
8.0007952e-51
8.0008077e-51
8.000842e-51
8.0024997e-51
8.0014504e-51
8.0010229e-51
8.0008778e-51
8.0008366e-51
8.0008268e-51
8.0008259e-51
8.0008296e-51
8.000842e-51
8.0008763e-51
5.3334778e-50
5.3327914e-50
5.3325117e-50
5.3324168e-50
5.3323899e-50
5.3323834e-50
5.3323824e-50
5.3323835e-50
5.3323873e-50
5.3323977e-50
5.3327914e-50
5.3321053e-50
5.3318257e-50
5.3317309e-50
5.3317039e-50
5.3316975e-50
5.3316967e-50
5.3316984e-50
5.3317046e-50
5.3317235e-50
5.3325117e-50
5.3318257e-50
5.3315462e-50
5.3314514e-50
5.3314244e-50
5.3314181e-50
5.3314174e-50
5.3314195e-50
5.331427e-50
5.3314483e-50
5.3324168e-50
5.3317309e-50
5.3314514e-50
5.3313565e-50
5.3313296e-50
5.3313232e-50
5.3313226e-50
5.3313249e-50
5.3313329e-50
5.3313548e-50
5.3323899e-50
5.3317039e-50
5.3314244e-50
5.3313296e-50
5.3313027e-50
5.3312963e-50
5.3312957e-50
5.3312981e-50
5.3313061e-50
5.3313283e-50
5.3323834e-50
5.3316975e-50
5.3314181e-50
5.3313232e-50
5.3312963e-50
5.33129e-50
5.3312893e-50
5.3312917e-50
5.3312998e-50
5.331322e-50
5.3323824e-50
5.3316967e-50
5.3314174e-50
5.3313226e-50
5.3312957e-50
5.3312893e-50
5.3312887e-50
5.3312911e-50
5.3312992e-50
5.3313214e-50
5.3323835e-50
5.3316984e-50
5.3314195e-50
5.3313249e-50
5.3312981e-50
5.3312917e-50
5.3312911e-50
5.3312935e-50
5.3313016e-50
5.3313238e-50
5.3323873e-50
5.3317046e-50
5.331427e-50
5.3313329e-50
5.3313061e-50
5.3312998e-50
5.3312992e-50
5.3313016e-50
5.3313097e-50
5.3313319e-50
5.3323977e-50
5.3317235e-50
5.3314483e-50
5.3313548e-50
5.3313283e-50
5.331322e-50
5.3313214e-50
5.3313238e-50
5.3313319e-50
5.3313541e-50
3.6322248e-49
3.6317742e-49
3.6315903e-49
3.6315279e-49
3.6315101e-49
3.6315059e-49
3.6315052e-49
3.6315059e-49
3.6315085e-49
3.6315152e-49
3.6317742e-49
3.6313238e-49
3.63114e-49
3.6310776e-49
3.6310598e-49
3.6310556e-49
3.6310551e-49
3.6310562e-49
3.6310604e-49
3.6310728e-49
3.6315903e-49
3.63114e-49
3.6309562e-49
3.6308938e-49
3.6308761e-49
3.6308719e-49
3.6308714e-49
3.6308728e-49
3.6308778e-49
3.6308919e-49
3.6315279e-49
3.6310776e-49
3.6308938e-49
3.6308314e-49
3.6308137e-49
3.6308095e-49
3.630809e-49
3.6308106e-49
3.6308159e-49
3.6308304e-49
3.6315101e-49
3.6310598e-49
3.6308761e-49
3.6308137e-49
3.6307959e-49
3.6307917e-49
3.6307913e-49
3.6307929e-49
3.6307983e-49
3.6308129e-49
3.6315059e-49
3.6310556e-49
3.6308719e-49
3.6308095e-49
3.6307917e-49
3.6307876e-49
3.6307872e-49
3.6307888e-49
3.6307942e-49
3.6308088e-49
3.6315052e-49
3.6310551e-49
3.6308714e-49
3.630809e-49
3.6307913e-49
3.6307872e-49
3.6307868e-49
3.6307884e-49
3.6307938e-49
3.6308084e-49
3.6315059e-49
3.6310562e-49
3.6308728e-49
3.6308106e-49
3.6307929e-49
3.6307888e-49
3.6307884e-49
3.63079e-49
3.6307954e-49
3.63081e-49
3.6315085e-49
3.6310604e-49
3.6308778e-49
3.6308159e-49
3.6307983e-49
3.6307942e-49
3.6307938e-49
3.6307954e-49
3.6308008e-49
3.6308154e-49
3.6315152e-49
3.6310728e-49
3.6308919e-49
3.6308304e-49
3.6308129e-49
3.6308088e-49
3.6308084e-49
3.63081e-49
3.6308154e-49
3.63083e-49
2.5277645e-48
2.5274624e-48
2.5273389e-48
2.5272969e-48
2.527285e-48
2.5272822e-48
2.5272817e-48
2.5272822e-48
2.5272839e-48
2.5272884e-48
2.5274624e-48
2.5271605e-48
2.527037e-48
2.5269951e-48
2.5269831e-48
2.5269803e-48
2.5269799e-48
2.5269807e-48
2.5269835e-48
2.5269919e-48
2.5273389e-48
2.527037e-48
2.5269136e-48
2.5268717e-48
2.5268597e-48
2.5268569e-48
2.5268566e-48
2.5268576e-48
2.526861e-48
2.5268705e-48
2.5272969e-48
2.5269951e-48
2.5268717e-48
2.5268297e-48
2.5268178e-48
2.526815e-48
2.5268147e-48
2.5268158e-48
2.5268194e-48
2.5268292e-48
2.527285e-48
2.5269831e-48
2.5268597e-48
2.5268178e-48
2.5268059e-48
2.5268031e-48
2.5268028e-48
2.5268039e-48
2.5268076e-48
2.5268174e-48
2.5272822e-48
2.5269803e-48
2.5268569e-48
2.526815e-48
2.5268031e-48
2.5268003e-48
2.5268e-48
2.5268011e-48
2.5268048e-48
2.5268146e-48
2.5272817e-48
2.5269799e-48
2.5268566e-48
2.5268147e-48
2.5268028e-48
2.5268e-48
2.5267997e-48
2.5268008e-48
2.5268045e-48
2.5268144e-48
2.5272822e-48
2.5269807e-48
2.5268576e-48
2.5268158e-48
2.5268039e-48
2.5268011e-48
2.5268008e-48
2.5268019e-48
2.5268056e-48
2.5268155e-48
2.5272839e-48
2.5269835e-48
2.526861e-48
2.5268194e-48
2.5268076e-48
2.5268048e-48
2.5268045e-48
2.5268056e-48
2.5268093e-48
2.5268192e-48
2.5272884e-48
2.5269919e-48
2.5268705e-48
2.5268292e-48
2.5268174e-48
2.5268146e-48
2.5268144e-48
2.5268155e-48
2.5268192e-48
2.526829e-48
1.7973295e-47
1.7971228e-47
1.7970381e-47
1.7970093e-47
1.7970011e-47
1.7969992e-47
1.7969989e-47
1.7969992e-47
1.7970004e-47
1.7970034e-47
1.7971228e-47
1.7969161e-47
1.7968315e-47
1.7968027e-47
1.7967945e-47
1.7967926e-47
1.7967923e-47
1.7967929e-47
1.7967948e-47
1.7968006e-47
1.7970381e-47
1.7968315e-47
1.7967469e-47
1.7967181e-47
1.7967099e-47
1.796708e-47
1.7967078e-47
1.7967085e-47
1.7967108e-47
1.7967174e-47
1.7970093e-47
1.7968027e-47
1.7967181e-47
1.7966894e-47
1.7966812e-47
1.7966792e-47
1.7966791e-47
1.7966798e-47
1.7966823e-47
1.796689e-47
1.7970011e-47
1.7967945e-47
1.7967099e-47
1.7966812e-47
1.796673e-47
1.7966711e-47
1.7966709e-47
1.7966717e-47
1.7966742e-47
1.796681e-47
1.7969992e-47
1.7967926e-47
1.796708e-47
1.7966792e-47
1.7966711e-47
1.7966691e-47
1.796669e-47
1.7966697e-47
1.7966723e-47
1.7966791e-47
1.7969989e-47
1.7967923e-47
1.7967078e-47
1.7966791e-47
1.7966709e-47
1.796669e-47
1.7966688e-47
1.7966696e-47
1.7966721e-47
1.7966789e-47
1.7969992e-47
1.7967929e-47
1.7967085e-47
1.7966798e-47
1.7966717e-47
1.7966697e-47
1.7966696e-47
1.7966703e-47
1.7966729e-47
1.7966797e-47
1.7970004e-47
1.7967948e-47
1.7967108e-47
1.7966823e-47
1.7966742e-47
1.7966723e-47
1.7966721e-47
1.7966729e-47
1.7966754e-47
1.7966822e-47
1.7970034e-47
1.7968006e-47
1.7967174e-47
1.796689e-47
1.796681e-47
1.7966791e-47
1.7966789e-47
1.7966797e-47
1.7966822e-47
1.796689e-47