/*--------------------------------*- C++ -*----------------------------------*\
| =========                 |                                                 |
| \\      /  F ield         | OpenFOAM: The Open Source CFD Toolbox           |
|  \\    /   O peration     | Version:  dev                                   |
|   \\  /    A nd           | Web:      www.OpenFOAM.org                      |
|    \\/     M anipulation  |                                                 |
\*---------------------------------------------------------------------------*/
FoamFile
{
    version     2.0;
    format      ascii;
    class       volScalarField;
    location    "14";
    object      A_0;
}
// * * * * * * * * * * * * * * * * * * * * * * * * * * * * * * * * * * * * * //

dimensions      [0 0 0 0 1 0 0];

internalField   nonuniform List<scalar> 
10000
(
8.4507538e-63
8.4488931e-63
8.4481672e-63
8.4479244e-63
8.4478558e-63
8.4478394e-63
8.4478368e-63
8.447839e-63
8.4478491e-63
8.4478858e-63
8.4488931e-63
8.4470335e-63
8.4463079e-63
8.4460652e-63
8.4459967e-63
8.4459804e-63
8.445978e-63
8.4459816e-63
8.4459966e-63
8.44605e-63
8.4481672e-63
8.4463079e-63
8.4455824e-63
8.4453397e-63
8.4452712e-63
8.445255e-63
8.4452529e-63
8.4452574e-63
8.4452749e-63
8.4453332e-63
8.4479244e-63
8.4460652e-63
8.4453397e-63
8.4450971e-63
8.4450286e-63
8.4450124e-63
8.4450105e-63
8.4450153e-63
8.4450337e-63
8.4450933e-63
8.4478558e-63
8.4459967e-63
8.4452712e-63
8.4450286e-63
8.4449602e-63
8.444944e-63
8.444942e-63
8.444947e-63
8.4449656e-63
8.4450256e-63
8.4478394e-63
8.4459804e-63
8.445255e-63
8.4450124e-63
8.444944e-63
8.4449278e-63
8.4449259e-63
8.4449309e-63
8.4449496e-63
8.4450095e-63
8.4478368e-63
8.445978e-63
8.4452529e-63
8.4450105e-63
8.444942e-63
8.4449259e-63
8.4449239e-63
8.444929e-63
8.4449477e-63
8.4450077e-63
8.447839e-63
8.4459816e-63
8.4452574e-63
8.4450153e-63
8.444947e-63
8.4449309e-63
8.444929e-63
8.444934e-63
8.4449527e-63
8.4450127e-63
8.4478491e-63
8.4459966e-63
8.4452749e-63
8.4450337e-63
8.4449656e-63
8.4449496e-63
8.4449477e-63
8.4449527e-63
8.4449714e-63
8.4450314e-63
8.4478858e-63
8.44605e-63
8.4453332e-63
8.4450933e-63
8.4450256e-63
8.4450095e-63
8.4450077e-63
8.4450127e-63
8.4450314e-63
8.4450914e-63
4.9651606e-62
4.964097e-62
4.9636785e-62
4.9635385e-62
4.9634989e-62
4.9634895e-62
4.9634879e-62
4.9634892e-62
4.963495e-62
4.9635169e-62
4.964097e-62
4.963034e-62
4.9626157e-62
4.9624757e-62
4.9624362e-62
4.9624268e-62
4.9624254e-62
4.9624275e-62
4.9624362e-62
4.9624678e-62
4.9636785e-62
4.9626157e-62
4.9621976e-62
4.9620576e-62
4.9620181e-62
4.9620087e-62
4.9620075e-62
4.9620101e-62
4.9620202e-62
4.9620547e-62
4.9635385e-62
4.9624757e-62
4.9620576e-62
4.9619176e-62
4.9618781e-62
4.9618688e-62
4.9618676e-62
4.9618705e-62
4.9618811e-62
4.9619163e-62
4.9634989e-62
4.9624362e-62
4.9620181e-62
4.9618781e-62
4.9618386e-62
4.9618293e-62
4.9618281e-62
4.961831e-62
4.9618418e-62
4.9618772e-62
4.9634895e-62
4.9624268e-62
4.9620087e-62
4.9618688e-62
4.9618293e-62
4.9618199e-62
4.9618188e-62
4.9618217e-62
4.9618325e-62
4.961868e-62
4.9634879e-62
4.9624254e-62
4.9620075e-62
4.9618676e-62
4.9618281e-62
4.9618188e-62
4.9618177e-62
4.9618206e-62
4.9618314e-62
4.9618669e-62
4.9634892e-62
4.9624275e-62
4.9620101e-62
4.9618705e-62
4.961831e-62
4.9618217e-62
4.9618206e-62
4.9618235e-62
4.9618344e-62
4.9618698e-62
4.963495e-62
4.9624362e-62
4.9620202e-62
4.9618811e-62
4.9618418e-62
4.9618325e-62
4.9618314e-62
4.9618344e-62
4.9618452e-62
4.9618806e-62
4.9635169e-62
4.9624678e-62
4.9620547e-62
4.9619163e-62
4.9618772e-62
4.961868e-62
4.9618669e-62
4.9618698e-62
4.9618806e-62
4.9619161e-62
2.3882679e-61
2.3877704e-61
2.3875741e-61
2.3875083e-61
2.3874897e-61
2.3874853e-61
2.3874846e-61
2.3874852e-61
2.3874879e-61
2.387498e-61
2.3877704e-61
2.3872732e-61
2.387077e-61
2.3870112e-61
2.3869927e-61
2.3869882e-61
2.3869876e-61
2.3869886e-61
2.3869926e-61
2.3870074e-61
2.3875741e-61
2.387077e-61
2.3868808e-61
2.3868151e-61
2.3867965e-61
2.3867921e-61
2.3867915e-61
2.3867928e-61
2.3867975e-61
2.3868137e-61
2.3875083e-61
2.3870112e-61
2.3868151e-61
2.3867493e-61
2.3867308e-61
2.3867264e-61
2.3867259e-61
2.3867272e-61
2.3867322e-61
2.3867487e-61
2.3874897e-61
2.3869927e-61
2.3867965e-61
2.3867308e-61
2.3867122e-61
2.3867078e-61
2.3867073e-61
2.3867087e-61
2.3867137e-61
2.3867303e-61
2.3874853e-61
2.3869882e-61
2.3867921e-61
2.3867264e-61
2.3867078e-61
2.3867034e-61
2.3867029e-61
2.3867043e-61
2.3867094e-61
2.386726e-61
2.3874846e-61
2.3869876e-61
2.3867915e-61
2.3867259e-61
2.3867073e-61
2.3867029e-61
2.3867024e-61
2.3867038e-61
2.3867089e-61
2.3867255e-61
2.3874852e-61
2.3869886e-61
2.3867928e-61
2.3867272e-61
2.3867087e-61
2.3867043e-61
2.3867038e-61
2.3867052e-61
2.3867103e-61
2.3867269e-61
2.3874879e-61
2.3869926e-61
2.3867975e-61
2.3867322e-61
2.3867137e-61
2.3867094e-61
2.3867089e-61
2.3867103e-61
2.3867153e-61
2.386732e-61
2.387498e-61
2.3870074e-61
2.3868137e-61
2.3867487e-61
2.3867303e-61
2.386726e-61
2.3867255e-61
2.3867269e-61
2.386732e-61
2.3867486e-61
1.1644168e-60
1.1641811e-60
1.1640879e-60
1.1640566e-60
1.1640477e-60
1.1640456e-60
1.1640453e-60
1.1640456e-60
1.1640469e-60
1.1640515e-60
1.1641811e-60
1.1639455e-60
1.1638523e-60
1.1638211e-60
1.1638122e-60
1.1638101e-60
1.1638098e-60
1.1638103e-60
1.1638122e-60
1.1638192e-60
1.1640879e-60
1.1638523e-60
1.1637591e-60
1.1637279e-60
1.1637191e-60
1.163717e-60
1.1637167e-60
1.1637173e-60
1.1637195e-60
1.1637271e-60
1.1640566e-60
1.1638211e-60
1.1637279e-60
1.1636966e-60
1.1636878e-60
1.1636857e-60
1.1636855e-60
1.1636861e-60
1.1636885e-60
1.1636962e-60
1.1640477e-60
1.1638122e-60
1.1637191e-60
1.1636878e-60
1.163679e-60
1.1636769e-60
1.1636766e-60
1.1636773e-60
1.1636797e-60
1.1636875e-60
1.1640456e-60
1.1638101e-60
1.163717e-60
1.1636857e-60
1.1636769e-60
1.1636748e-60
1.1636746e-60
1.1636752e-60
1.1636776e-60
1.1636854e-60
1.1640453e-60
1.1638098e-60
1.1637167e-60
1.1636855e-60
1.1636766e-60
1.1636746e-60
1.1636743e-60
1.163675e-60
1.1636774e-60
1.1636852e-60
1.1640456e-60
1.1638103e-60
1.1637173e-60
1.1636861e-60
1.1636773e-60
1.1636752e-60
1.163675e-60
1.1636756e-60
1.1636781e-60
1.1636859e-60
1.1640469e-60
1.1638122e-60
1.1637195e-60
1.1636885e-60
1.1636797e-60
1.1636776e-60
1.1636774e-60
1.1636781e-60
1.1636805e-60
1.1636883e-60
1.1640515e-60
1.1638192e-60
1.1637271e-60
1.1636962e-60
1.1636875e-60
1.1636854e-60
1.1636852e-60
1.1636859e-60
1.1636883e-60
1.1636961e-60
5.8039072e-60
5.802766e-60
5.8023134e-60
5.8021615e-60
5.8021185e-60
5.8021083e-60
5.8021066e-60
5.8021081e-60
5.8021142e-60
5.8021363e-60
5.802766e-60
5.8016255e-60
5.8011731e-60
5.8010212e-60
5.8009783e-60
5.800968e-60
5.8009666e-60
5.8009689e-60
5.8009783e-60
5.8010114e-60
5.8023134e-60
5.8011731e-60
5.8007208e-60
5.8005689e-60
5.800526e-60
5.8005158e-60
5.8005145e-60
5.8005175e-60
5.8005285e-60
5.8005648e-60
5.8021615e-60
5.8010212e-60
5.8005689e-60
5.8004171e-60
5.8003742e-60
5.800364e-60
5.8003628e-60
5.800366e-60
5.8003776e-60
5.8004148e-60
5.8021185e-60
5.8009783e-60
5.800526e-60
5.8003742e-60
5.8003313e-60
5.8003211e-60
5.8003199e-60
5.8003232e-60
5.8003349e-60
5.8003724e-60
5.8021083e-60
5.800968e-60
5.8005158e-60
5.800364e-60
5.8003211e-60
5.800311e-60
5.8003098e-60
5.8003131e-60
5.8003249e-60
5.8003624e-60
5.8021066e-60
5.8009666e-60
5.8005145e-60
5.8003628e-60
5.8003199e-60
5.8003098e-60
5.8003086e-60
5.8003119e-60
5.8003237e-60
5.8003612e-60
5.8021081e-60
5.8009689e-60
5.8005175e-60
5.800366e-60
5.8003232e-60
5.8003131e-60
5.8003119e-60
5.8003152e-60
5.800327e-60
5.8003645e-60
5.8021142e-60
5.8009783e-60
5.8005285e-60
5.8003776e-60
5.8003349e-60
5.8003249e-60
5.8003237e-60
5.800327e-60
5.8003388e-60
5.8003763e-60
5.8021363e-60
5.8010114e-60
5.8005648e-60
5.8004148e-60
5.8003724e-60
5.8003624e-60
5.8003612e-60
5.8003645e-60
5.8003763e-60
5.8004138e-60
2.9586253e-59
2.9580604e-59
2.9578359e-59
2.9577604e-59
2.9577391e-59
2.957734e-59
2.9577332e-59
2.9577339e-59
2.9577369e-59
2.9577476e-59
2.9580604e-59
2.9574959e-59
2.9572715e-59
2.957196e-59
2.9571747e-59
2.9571696e-59
2.9571689e-59
2.9571701e-59
2.9571747e-59
2.957191e-59
2.9578359e-59
2.9572715e-59
2.957047e-59
2.9569716e-59
2.9569503e-59
2.9569453e-59
2.9569446e-59
2.9569461e-59
2.9569516e-59
2.9569694e-59
2.9577604e-59
2.957196e-59
2.9569716e-59
2.9568963e-59
2.9568749e-59
2.9568699e-59
2.9568693e-59
2.9568709e-59
2.9568767e-59
2.9568949e-59
2.9577391e-59
2.9571747e-59
2.9569503e-59
2.9568749e-59
2.9568536e-59
2.9568486e-59
2.956848e-59
2.9568496e-59
2.9568555e-59
2.9568739e-59
2.957734e-59
2.9571696e-59
2.9569453e-59
2.9568699e-59
2.9568486e-59
2.9568435e-59
2.956843e-59
2.9568446e-59
2.9568505e-59
2.9568689e-59
2.9577332e-59
2.9571689e-59
2.9569446e-59
2.9568693e-59
2.956848e-59
2.956843e-59
2.9568424e-59
2.956844e-59
2.9568499e-59
2.9568683e-59
2.9577339e-59
2.9571701e-59
2.9569461e-59
2.9568709e-59
2.9568496e-59
2.9568446e-59
2.956844e-59
2.9568456e-59
2.9568515e-59
2.95687e-59
2.9577369e-59
2.9571747e-59
2.9569516e-59
2.9568767e-59
2.9568555e-59
2.9568505e-59
2.9568499e-59
2.9568515e-59
2.9568574e-59
2.9568758e-59
2.9577476e-59
2.957191e-59
2.9569694e-59
2.9568949e-59
2.9568739e-59
2.9568689e-59
2.9568683e-59
2.95687e-59
2.9568758e-59
2.9568943e-59
1.5425284e-58
1.5422426e-58
1.5421288e-58
1.5420905e-58
1.5420796e-58
1.542077e-58
1.5420766e-58
1.542077e-58
1.5420785e-58
1.5420838e-58
1.5422426e-58
1.541957e-58
1.5418432e-58
1.5418049e-58
1.541794e-58
1.5417915e-58
1.5417911e-58
1.5417917e-58
1.5417941e-58
1.5418022e-58
1.5421288e-58
1.5418432e-58
1.5417293e-58
1.5416911e-58
1.5416802e-58
1.5416777e-58
1.5416774e-58
1.5416781e-58
1.5416809e-58
1.5416899e-58
1.5420905e-58
1.5418049e-58
1.5416911e-58
1.5416528e-58
1.541642e-58
1.5416394e-58
1.5416391e-58
1.5416399e-58
1.5416429e-58
1.5416521e-58
1.5420796e-58
1.541794e-58
1.5416802e-58
1.541642e-58
1.5416311e-58
1.5416286e-58
1.5416283e-58
1.5416291e-58
1.5416321e-58
1.5416414e-58
1.542077e-58
1.5417915e-58
1.5416777e-58
1.5416394e-58
1.5416286e-58
1.541626e-58
1.5416257e-58
1.5416266e-58
1.5416296e-58
1.5416388e-58
1.5420766e-58
1.5417911e-58
1.5416774e-58
1.5416391e-58
1.5416283e-58
1.5416257e-58
1.5416254e-58
1.5416263e-58
1.5416293e-58
1.5416385e-58
1.542077e-58
1.5417917e-58
1.5416781e-58
1.5416399e-58
1.5416291e-58
1.5416266e-58
1.5416263e-58
1.5416271e-58
1.5416301e-58
1.5416394e-58
1.5420785e-58
1.5417941e-58
1.5416809e-58
1.5416429e-58
1.5416321e-58
1.5416296e-58
1.5416293e-58
1.5416301e-58
1.5416331e-58
1.5416424e-58
1.5420838e-58
1.5418022e-58
1.5416899e-58
1.5416521e-58
1.5416414e-58
1.5416388e-58
1.5416385e-58
1.5416394e-58
1.5416424e-58
1.5416517e-58
8.2253713e-58
8.2238929e-58
8.2233025e-58
8.2231038e-58
8.2230475e-58
8.2230341e-58
8.2230319e-58
8.2230339e-58
8.2230418e-58
8.2230685e-58
8.2238929e-58
8.2224154e-58
8.2218252e-58
8.2216265e-58
8.2215703e-58
8.2215569e-58
8.2215551e-58
8.2215582e-58
8.2215705e-58
8.2216123e-58
8.2233025e-58
8.2218252e-58
8.2212351e-58
8.2210365e-58
8.2209803e-58
8.220967e-58
8.2209654e-58
8.2209693e-58
8.2209838e-58
8.22103e-58
8.2231038e-58
8.2216265e-58
8.2210365e-58
8.2208379e-58
8.2207817e-58
8.2207684e-58
8.2207669e-58
8.2207712e-58
8.2207865e-58
8.2208338e-58
8.2230475e-58
8.2215703e-58
8.2209803e-58
8.2207817e-58
8.2207255e-58
8.2207122e-58
8.2207107e-58
8.2207151e-58
8.2207307e-58
8.2207783e-58
8.2230341e-58
8.2215569e-58
8.220967e-58
8.2207684e-58
8.2207122e-58
8.220699e-58
8.2206975e-58
8.2207019e-58
8.2207175e-58
8.2207652e-58
8.2230319e-58
8.2215551e-58
8.2209654e-58
8.2207669e-58
8.2207107e-58
8.2206975e-58
8.220696e-58
8.2207004e-58
8.220716e-58
8.2207637e-58
8.2230339e-58
8.2215582e-58
8.2209693e-58
8.2207712e-58
8.2207151e-58
8.2207019e-58
8.2207004e-58
8.2207048e-58
8.2207204e-58
8.2207681e-58
8.2230418e-58
8.2215705e-58
8.2209838e-58
8.2207865e-58
8.2207307e-58
8.2207175e-58
8.220716e-58
8.2207204e-58
8.2207361e-58
8.2207838e-58
8.2230685e-58
8.2216123e-58
8.22103e-58
8.2208338e-58
8.2207783e-58
8.2207652e-58
8.2207637e-58
8.2207681e-58
8.2207838e-58
8.2208315e-58
4.4859783e-57
4.4851966e-57
4.4848837e-57
4.4847783e-57
4.4847484e-57
4.4847413e-57
4.4847401e-57
4.4847412e-57
4.4847454e-57
4.4847592e-57
4.4851966e-57
4.4844153e-57
4.4841025e-57
4.4839971e-57
4.4839673e-57
4.4839602e-57
4.4839592e-57
4.4839609e-57
4.4839674e-57
4.4839893e-57
4.4848837e-57
4.4841025e-57
4.4837898e-57
4.4836844e-57
4.4836546e-57
4.4836475e-57
4.4836467e-57
4.4836488e-57
4.4836565e-57
4.4836808e-57
4.4847783e-57
4.4839971e-57
4.4836844e-57
4.4835791e-57
4.4835493e-57
4.4835422e-57
4.4835414e-57
4.4835437e-57
4.4835519e-57
4.4835768e-57
4.4847484e-57
4.4839673e-57
4.4836546e-57
4.4835493e-57
4.4835194e-57
4.4835124e-57
4.4835116e-57
4.4835139e-57
4.4835222e-57
4.4835473e-57
4.4847413e-57
4.4839602e-57
4.4836475e-57
4.4835422e-57
4.4835124e-57
4.4835053e-57
4.4835046e-57
4.4835069e-57
4.4835153e-57
4.4835404e-57
4.4847401e-57
4.4839592e-57
4.4836467e-57
4.4835414e-57
4.4835116e-57
4.4835046e-57
4.4835038e-57
4.4835061e-57
4.4835145e-57
4.4835396e-57
4.4847412e-57
4.4839609e-57
4.4836488e-57
4.4835437e-57
4.4835139e-57
4.4835069e-57
4.4835061e-57
4.4835085e-57
4.4835168e-57
4.483542e-57
4.4847454e-57
4.4839674e-57
4.4836565e-57
4.4835519e-57
4.4835222e-57
4.4835153e-57
4.4835145e-57
4.4835168e-57
4.4835252e-57
4.4835503e-57
4.4847592e-57
4.4839893e-57
4.4836808e-57
4.4835768e-57
4.4835473e-57
4.4835404e-57
4.4835396e-57
4.483542e-57
4.4835503e-57
4.4835754e-57
2.5022647e-56
2.5018421e-56
2.5016726e-56
2.5016155e-56
2.5015993e-56
2.5015954e-56
2.5015948e-56
2.5015954e-56
2.5015976e-56
2.5016049e-56
2.5018421e-56
2.5014198e-56
2.5012503e-56
2.5011932e-56
2.501177e-56
2.5011732e-56
2.5011726e-56
2.5011735e-56
2.5011771e-56
2.5011889e-56
2.5016726e-56
2.5012503e-56
2.5010809e-56
2.5010238e-56
2.5010076e-56
2.5010038e-56
2.5010033e-56
2.5010045e-56
2.5010087e-56
2.5010218e-56
2.5016155e-56
2.5011932e-56
2.5010238e-56
2.5009667e-56
2.5009505e-56
2.5009467e-56
2.5009462e-56
2.5009475e-56
2.500952e-56
2.5009654e-56
2.5015993e-56
2.501177e-56
2.5010076e-56
2.5009505e-56
2.5009343e-56
2.5009305e-56
2.5009301e-56
2.5009314e-56
2.5009359e-56
2.5009494e-56
2.5015954e-56
2.5011732e-56
2.5010038e-56
2.5009467e-56
2.5009305e-56
2.5009267e-56
2.5009263e-56
2.5009276e-56
2.5009321e-56
2.5009456e-56
2.5015948e-56
2.5011726e-56
2.5010033e-56
2.5009462e-56
2.5009301e-56
2.5009263e-56
2.5009259e-56
2.5009271e-56
2.5009317e-56
2.5009452e-56
2.5015954e-56
2.5011735e-56
2.5010045e-56
2.5009475e-56
2.5009314e-56
2.5009276e-56
2.5009271e-56
2.5009284e-56
2.500933e-56
2.5009465e-56
2.5015976e-56
2.5011771e-56
2.5010087e-56
2.500952e-56
2.5009359e-56
2.5009321e-56
2.5009317e-56
2.500933e-56
2.5009375e-56
2.5009511e-56
2.5016049e-56
2.5011889e-56
2.5010218e-56
2.5009654e-56
2.5009494e-56
2.5009456e-56
2.5009452e-56
2.5009465e-56
2.5009511e-56
2.5009646e-56
1.4274916e-55
1.4272581e-55
1.4271642e-55
1.4271325e-55
1.4271236e-55
1.4271214e-55
1.4271211e-55
1.4271214e-55
1.4271226e-55
1.4271266e-55
1.4272581e-55
1.4270247e-55
1.4269309e-55
1.4268992e-55
1.4268902e-55
1.4268881e-55
1.4268878e-55
1.4268883e-55
1.4268903e-55
1.4268968e-55
1.4271642e-55
1.4269309e-55
1.4268371e-55
1.4268054e-55
1.4267964e-55
1.4267943e-55
1.426794e-55
1.4267947e-55
1.4267971e-55
1.4268043e-55
1.4271325e-55
1.4268992e-55
1.4268054e-55
1.4267737e-55
1.4267648e-55
1.4267627e-55
1.4267624e-55
1.4267631e-55
1.4267656e-55
1.426773e-55
1.4271236e-55
1.4268902e-55
1.4267964e-55
1.4267648e-55
1.4267558e-55
1.4267537e-55
1.4267535e-55
1.4267542e-55
1.4267567e-55
1.4267642e-55
1.4271214e-55
1.4268881e-55
1.4267943e-55
1.4267627e-55
1.4267537e-55
1.4267516e-55
1.4267513e-55
1.4267521e-55
1.4267546e-55
1.4267621e-55
1.4271211e-55
1.4268878e-55
1.426794e-55
1.4267624e-55
1.4267535e-55
1.4267513e-55
1.4267511e-55
1.4267518e-55
1.4267544e-55
1.4267618e-55
1.4271214e-55
1.4268883e-55
1.4267947e-55
1.4267631e-55
1.4267542e-55
1.4267521e-55
1.4267518e-55
1.4267526e-55
1.4267551e-55
1.4267626e-55
1.4271226e-55
1.4268903e-55
1.4267971e-55
1.4267656e-55
1.4267567e-55
1.4267546e-55
1.4267544e-55
1.4267551e-55
1.4267576e-55
1.4267651e-55
1.4271266e-55
1.4268968e-55
1.4268043e-55
1.426773e-55
1.4267642e-55
1.4267621e-55
1.4267618e-55
1.4267626e-55
1.4267651e-55
1.4267726e-55
8.3284162e-55
8.3270973e-55
8.3265661e-55
8.3263867e-55
8.3263358e-55
8.3263237e-55
8.3263217e-55
8.3263236e-55
8.3263307e-55
8.3263526e-55
8.3270973e-55
8.3257791e-55
8.3252481e-55
8.3250687e-55
8.3250179e-55
8.3250058e-55
8.3250042e-55
8.3250071e-55
8.3250184e-55
8.3250548e-55
8.3265661e-55
8.3252481e-55
8.3247172e-55
8.3245378e-55
8.324487e-55
8.324475e-55
8.3244736e-55
8.3244773e-55
8.3244907e-55
8.3245313e-55
8.3263867e-55
8.3250687e-55
8.3245378e-55
8.3243586e-55
8.3243077e-55
8.3242957e-55
8.3242944e-55
8.3242984e-55
8.3243126e-55
8.3243543e-55
8.3263358e-55
8.3250179e-55
8.324487e-55
8.3243077e-55
8.3242569e-55
8.3242449e-55
8.3242436e-55
8.3242478e-55
8.3242622e-55
8.3243042e-55
8.3263237e-55
8.3250058e-55
8.324475e-55
8.3242957e-55
8.3242449e-55
8.3242329e-55
8.3242316e-55
8.3242358e-55
8.3242503e-55
8.3242923e-55
8.3263217e-55
8.3250042e-55
8.3244736e-55
8.3242944e-55
8.3242436e-55
8.3242316e-55
8.3242304e-55
8.3242345e-55
8.324249e-55
8.3242911e-55
8.3263236e-55
8.3250071e-55
8.3244773e-55
8.3242984e-55
8.3242478e-55
8.3242358e-55
8.3242345e-55
8.3242387e-55
8.3242532e-55
8.3242953e-55
8.3263307e-55
8.3250184e-55
8.3244907e-55
8.3243126e-55
8.3242622e-55
8.3242503e-55
8.324249e-55
8.3242532e-55
8.3242677e-55
8.3243097e-55
8.3263526e-55
8.3250548e-55
8.3245313e-55
8.3243543e-55
8.3243042e-55
8.3242923e-55
8.3242911e-55
8.3242953e-55
8.3243097e-55
8.3243518e-55
4.9691093e-54
4.9683479e-54
4.9680406e-54
4.9679367e-54
4.9679073e-54
4.9679002e-54
4.9678991e-54
4.9679002e-54
4.9679043e-54
4.9679168e-54
4.9683479e-54
4.9675869e-54
4.9672797e-54
4.9671759e-54
4.9671464e-54
4.9671394e-54
4.9671385e-54
4.9671402e-54
4.9671468e-54
4.9671677e-54
4.9680406e-54
4.9672797e-54
4.9669726e-54
4.9668688e-54
4.9668394e-54
4.9668324e-54
4.9668316e-54
4.9668337e-54
4.9668416e-54
4.966865e-54
4.9679367e-54
4.9671759e-54
4.9668688e-54
4.966765e-54
4.9667356e-54
4.9667286e-54
4.9667278e-54
4.9667302e-54
4.9667385e-54
4.9667626e-54
4.9679073e-54
4.9671464e-54
4.9668394e-54
4.9667356e-54
4.9667061e-54
4.9666992e-54
4.9666985e-54
4.9667009e-54
4.9667093e-54
4.9667335e-54
4.9679002e-54
4.9671394e-54
4.9668324e-54
4.9667286e-54
4.9666992e-54
4.9666922e-54
4.9666915e-54
4.966694e-54
4.9667024e-54
4.9667267e-54
4.9678991e-54
4.9671385e-54
4.9668316e-54
4.9667278e-54
4.9666985e-54
4.9666915e-54
4.9666908e-54
4.9666932e-54
4.9667017e-54
4.9667259e-54
4.9679002e-54
4.9671402e-54
4.9668337e-54
4.9667302e-54
4.9667009e-54
4.966694e-54
4.9666932e-54
4.9666957e-54
4.9667041e-54
4.9667284e-54
4.9679043e-54
4.9671468e-54
4.9668416e-54
4.9667385e-54
4.9667093e-54
4.9667024e-54
4.9667017e-54
4.9667041e-54
4.9667126e-54
4.9667368e-54
4.9679168e-54
4.9671677e-54
4.966865e-54
4.9667626e-54
4.9667335e-54
4.9667267e-54
4.9667259e-54
4.9667284e-54
4.9667368e-54
4.9667611e-54
3.0317598e-53
3.0313106e-53
3.0311289e-53
3.0310675e-53
3.03105e-53
3.0310459e-53
3.0310452e-53
3.0310458e-53
3.0310483e-53
3.0310555e-53
3.0313106e-53
3.0308616e-53
3.03068e-53
3.0306186e-53
3.0306011e-53
3.030597e-53
3.0305964e-53
3.0305975e-53
3.0306014e-53
3.0306137e-53
3.0311289e-53
3.03068e-53
3.0304984e-53
3.030437e-53
3.0304196e-53
3.0304155e-53
3.030415e-53
3.0304163e-53
3.030421e-53
3.0304348e-53
3.0310675e-53
3.0306186e-53
3.030437e-53
3.0303756e-53
3.0303582e-53
3.0303541e-53
3.0303536e-53
3.0303551e-53
3.03036e-53
3.0303742e-53
3.03105e-53
3.0306011e-53
3.0304196e-53
3.0303582e-53
3.0303408e-53
3.0303367e-53
3.0303363e-53
3.0303377e-53
3.0303427e-53
3.030357e-53
3.0310459e-53
3.030597e-53
3.0304155e-53
3.0303541e-53
3.0303367e-53
3.0303326e-53
3.0303321e-53
3.0303336e-53
3.0303386e-53
3.030353e-53
3.0310452e-53
3.0305964e-53
3.030415e-53
3.0303536e-53
3.0303363e-53
3.0303321e-53
3.0303317e-53
3.0303332e-53
3.0303382e-53
3.0303526e-53
3.0310458e-53
3.0305975e-53
3.0304163e-53
3.0303551e-53
3.0303377e-53
3.0303336e-53
3.0303332e-53
3.0303347e-53
3.0303397e-53
3.030354e-53
3.0310483e-53
3.0306014e-53
3.030421e-53
3.03036e-53
3.0303427e-53
3.0303386e-53
3.0303382e-53
3.0303397e-53
3.0303447e-53
3.0303591e-53
3.0310555e-53
3.0306137e-53
3.0304348e-53
3.0303742e-53
3.030357e-53
3.030353e-53
3.0303526e-53
3.030354e-53
3.0303591e-53
3.0303734e-53
1.8913763e-52
1.8911055e-52
1.8909958e-52
1.8909586e-52
1.8909481e-52
1.8909456e-52
1.8909452e-52
1.8909456e-52
1.890947e-52
1.8909513e-52
1.8911055e-52
1.8908348e-52
1.8907251e-52
1.890688e-52
1.8906774e-52
1.8906749e-52
1.8906746e-52
1.8906752e-52
1.8906776e-52
1.8906851e-52
1.8909958e-52
1.8907251e-52
1.8906154e-52
1.8905783e-52
1.8905678e-52
1.8905653e-52
1.890565e-52
1.8905658e-52
1.8905687e-52
1.890577e-52
1.8909586e-52
1.890688e-52
1.8905783e-52
1.8905412e-52
1.8905307e-52
1.8905282e-52
1.8905279e-52
1.8905288e-52
1.8905318e-52
1.8905404e-52
1.8909481e-52
1.8906774e-52
1.8905678e-52
1.8905307e-52
1.8905201e-52
1.8905177e-52
1.8905174e-52
1.8905183e-52
1.8905214e-52
1.89053e-52
1.8909456e-52
1.8906749e-52
1.8905653e-52
1.8905282e-52
1.8905177e-52
1.8905152e-52
1.8905149e-52
1.8905158e-52
1.8905189e-52
1.8905275e-52
1.8909452e-52
1.8906746e-52
1.890565e-52
1.8905279e-52
1.8905174e-52
1.8905149e-52
1.8905147e-52
1.8905156e-52
1.8905186e-52
1.8905273e-52
1.8909456e-52
1.8906752e-52
1.8905658e-52
1.8905288e-52
1.8905183e-52
1.8905158e-52
1.8905156e-52
1.8905165e-52
1.8905195e-52
1.8905282e-52
1.890947e-52
1.8906776e-52
1.8905687e-52
1.8905318e-52
1.8905214e-52
1.8905189e-52
1.8905186e-52
1.8905195e-52
1.8905226e-52
1.8905313e-52
1.8909513e-52
1.8906851e-52
1.890577e-52
1.8905404e-52
1.89053e-52
1.8905275e-52
1.8905273e-52
1.8905282e-52
1.8905313e-52
1.8905399e-52
1.2063924e-51
1.2062256e-51
1.2061579e-51
1.2061349e-51
1.2061284e-51
1.2061268e-51
1.2061266e-51
1.2061268e-51
1.2061278e-51
1.2061304e-51
1.2062256e-51
1.2060588e-51
1.2059911e-51
1.2059682e-51
1.2059617e-51
1.2059601e-51
1.2059599e-51
1.2059603e-51
1.2059618e-51
1.2059664e-51
1.2061579e-51
1.2059911e-51
1.2059234e-51
1.2059005e-51
1.205894e-51
1.2058924e-51
1.2058923e-51
1.2058928e-51
1.2058946e-51
1.2058997e-51
1.2061349e-51
1.2059682e-51
1.2059005e-51
1.2058776e-51
1.2058711e-51
1.2058695e-51
1.2058694e-51
1.2058699e-51
1.2058718e-51
1.2058771e-51
1.2061284e-51
1.2059617e-51
1.205894e-51
1.2058711e-51
1.2058646e-51
1.205863e-51
1.2058629e-51
1.2058634e-51
1.2058653e-51
1.2058707e-51
1.2061268e-51
1.2059601e-51
1.2058924e-51
1.2058695e-51
1.205863e-51
1.2058615e-51
1.2058613e-51
1.2058619e-51
1.2058638e-51
1.2058692e-51
1.2061266e-51
1.2059599e-51
1.2058923e-51
1.2058694e-51
1.2058629e-51
1.2058613e-51
1.2058612e-51
1.2058617e-51
1.2058637e-51
1.205869e-51
1.2061268e-51
1.2059603e-51
1.2058928e-51
1.2058699e-51
1.2058634e-51
1.2058619e-51
1.2058617e-51
1.2058623e-51
1.2058642e-51
1.2058696e-51
1.2061278e-51
1.2059618e-51
1.2058946e-51
1.2058718e-51
1.2058653e-51
1.2058638e-51
1.2058637e-51
1.2058642e-51
1.2058661e-51
1.2058715e-51
1.2061304e-51
1.2059664e-51
1.2058997e-51
1.2058771e-51
1.2058707e-51
1.2058692e-51
1.205869e-51
1.2058696e-51
1.2058715e-51
1.2058768e-51
7.8664867e-51
7.8654366e-51
7.8650096e-51
7.8648648e-51
7.8648237e-51
7.8648139e-51
7.8648123e-51
7.8648139e-51
7.8648197e-51
7.8648358e-51
7.8654366e-51
7.8643869e-51
7.8639601e-51
7.8638153e-51
7.8637742e-51
7.8637645e-51
7.8637632e-51
7.8637657e-51
7.8637752e-51
7.863804e-51
7.8650096e-51
7.8639601e-51
7.8635333e-51
7.8633886e-51
7.8633475e-51
7.8633378e-51
7.8633367e-51
7.8633399e-51
7.8633512e-51
7.8633837e-51
7.8648648e-51
7.8638153e-51
7.8633886e-51
7.8632439e-51
7.8632028e-51
7.8631931e-51
7.8631921e-51
7.8631956e-51
7.8632076e-51
7.863241e-51
7.8648237e-51
7.8637742e-51
7.8633475e-51
7.8632028e-51
7.8631618e-51
7.8631521e-51
7.8631511e-51
7.8631547e-51
7.8631669e-51
7.8632005e-51
7.8648139e-51
7.8637645e-51
7.8633378e-51
7.8631931e-51
7.8631521e-51
7.8631424e-51
7.8631414e-51
7.863145e-51
7.8631573e-51
7.863191e-51
7.8648123e-51
7.8637632e-51
7.8633367e-51
7.8631921e-51
7.8631511e-51
7.8631414e-51
7.8631405e-51
7.8631441e-51
7.8631563e-51
7.86319e-51
7.8648139e-51
7.8637657e-51
7.8633399e-51
7.8631956e-51
7.8631547e-51
7.863145e-51
7.8631441e-51
7.8631477e-51
7.8631599e-51
7.8631937e-51
7.8648197e-51
7.8637752e-51
7.8633512e-51
7.8632076e-51
7.8631669e-51
7.8631573e-51
7.8631563e-51
7.8631599e-51
7.8631721e-51
7.8632059e-51
7.8648358e-51
7.863804e-51
7.8633837e-51
7.863241e-51
7.8632005e-51
7.863191e-51
7.86319e-51
7.8631937e-51
7.8632059e-51
7.8632397e-51
5.2432665e-50
5.2425913e-50
5.2423162e-50
5.2422229e-50
5.2421964e-50
5.2421901e-50
5.2421891e-50
5.2421901e-50
5.2421939e-50
5.2422041e-50
5.2425913e-50
5.2419164e-50
5.2416415e-50
5.2415482e-50
5.2415217e-50
5.2415154e-50
5.2415146e-50
5.2415163e-50
5.2415224e-50
5.2415409e-50
5.2423162e-50
5.2416415e-50
5.2413666e-50
5.2412733e-50
5.2412468e-50
5.2412406e-50
5.2412399e-50
5.241242e-50
5.2412494e-50
5.2412703e-50
5.2422229e-50
5.2415482e-50
5.2412733e-50
5.2411801e-50
5.2411536e-50
5.2411474e-50
5.2411467e-50
5.241149e-50
5.2411568e-50
5.2411784e-50
5.2421964e-50
5.2415217e-50
5.2412468e-50
5.2411536e-50
5.2411271e-50
5.2411209e-50
5.2411203e-50
5.2411226e-50
5.2411305e-50
5.2411523e-50
5.2421901e-50
5.2415154e-50
5.2412406e-50
5.2411474e-50
5.2411209e-50
5.2411146e-50
5.241114e-50
5.2411164e-50
5.2411244e-50
5.2411461e-50
5.2421891e-50
5.2415146e-50
5.2412399e-50
5.2411467e-50
5.2411203e-50
5.241114e-50
5.2411134e-50
5.2411158e-50
5.2411237e-50
5.2411455e-50
5.2421901e-50
5.2415163e-50
5.241242e-50
5.241149e-50
5.2411226e-50
5.2411164e-50
5.2411158e-50
5.2411182e-50
5.2411261e-50
5.2411479e-50
5.2421939e-50
5.2415224e-50
5.2412494e-50
5.2411568e-50
5.2411305e-50
5.2411244e-50
5.2411237e-50
5.2411261e-50
5.2411341e-50
5.2411559e-50
5.2422041e-50
5.2415409e-50
5.2412703e-50
5.2411784e-50
5.2411523e-50
5.2411461e-50
5.2411455e-50
5.2411479e-50
5.2411559e-50
5.2411777e-50
3.5718426e-49
3.5713992e-49
3.5712183e-49
3.5711569e-49
3.5711395e-49
3.5711353e-49
3.5711346e-49
3.5711353e-49
3.5711378e-49
3.5711445e-49
3.5713992e-49
3.5709561e-49
3.5707752e-49
3.5707138e-49
3.5706964e-49
3.5706922e-49
3.5706917e-49
3.5706928e-49
3.5706969e-49
3.5707091e-49
3.5712183e-49
3.5707752e-49
3.5705944e-49
3.570533e-49
3.5705156e-49
3.5705115e-49
3.570511e-49
3.5705124e-49
3.5705173e-49
3.5705311e-49
3.5711569e-49
3.5707138e-49
3.570533e-49
3.5704716e-49
3.5704542e-49
3.5704501e-49
3.5704497e-49
3.5704512e-49
3.5704564e-49
3.5704707e-49
3.5711395e-49
3.5706964e-49
3.5705156e-49
3.5704542e-49
3.5704368e-49
3.5704327e-49
3.5704323e-49
3.5704338e-49
3.5704391e-49
3.5704535e-49
3.5711353e-49
3.5706922e-49
3.5705115e-49
3.5704501e-49
3.5704327e-49
3.5704286e-49
3.5704282e-49
3.5704297e-49
3.570435e-49
3.5704494e-49
3.5711346e-49
3.5706917e-49
3.570511e-49
3.5704497e-49
3.5704323e-49
3.5704282e-49
3.5704278e-49
3.5704294e-49
3.5704347e-49
3.570449e-49
3.5711353e-49
3.5706928e-49
3.5705124e-49
3.5704512e-49
3.5704338e-49
3.5704297e-49
3.5704294e-49
3.5704309e-49
3.5704362e-49
3.5704506e-49
3.5711378e-49
3.5706969e-49
3.5705173e-49
3.5704564e-49
3.5704391e-49
3.570435e-49
3.5704347e-49
3.5704362e-49
3.5704416e-49
3.5704559e-49
3.5711445e-49
3.5707091e-49
3.5705311e-49
3.5704707e-49
3.5704535e-49
3.5704494e-49
3.570449e-49
3.5704506e-49
3.5704559e-49
3.5704703e-49
2.4864806e-48
2.4861833e-48
2.4860618e-48
2.4860205e-48
2.4860088e-48
2.486006e-48
2.4860056e-48
2.486006e-48
2.4860077e-48
2.4860121e-48
2.4861833e-48
2.4858862e-48
2.4857647e-48
2.4857234e-48
2.4857117e-48
2.4857089e-48
2.4857085e-48
2.4857093e-48
2.4857121e-48
2.4857203e-48
2.4860618e-48
2.4857647e-48
2.4856432e-48
2.485602e-48
2.4855903e-48
2.4855875e-48
2.4855872e-48
2.4855881e-48
2.4855915e-48
2.4856008e-48
2.4860205e-48
2.4857234e-48
2.485602e-48
2.4855607e-48
2.485549e-48
2.4855462e-48
2.485546e-48
2.485547e-48
2.4855505e-48
2.4855602e-48
2.4860088e-48
2.4857117e-48
2.4855903e-48
2.485549e-48
2.4855373e-48
2.4855345e-48
2.4855343e-48
2.4855353e-48
2.4855389e-48
2.4855486e-48
2.486006e-48
2.4857089e-48
2.4855875e-48
2.4855462e-48
2.4855345e-48
2.4855318e-48
2.4855315e-48
2.4855326e-48
2.4855362e-48
2.4855459e-48
2.4860056e-48
2.4857085e-48
2.4855872e-48
2.485546e-48
2.4855343e-48
2.4855315e-48
2.4855312e-48
2.4855323e-48
2.4855359e-48
2.4855456e-48
2.486006e-48
2.4857093e-48
2.4855881e-48
2.485547e-48
2.4855353e-48
2.4855326e-48
2.4855323e-48
2.4855334e-48
2.485537e-48
2.4855467e-48
2.4860077e-48
2.4857121e-48
2.4855915e-48
2.4855505e-48
2.4855389e-48
2.4855362e-48
2.4855359e-48
2.485537e-48
2.4855406e-48
2.4855503e-48
2.4860121e-48
2.4857203e-48
2.4856008e-48
2.4855602e-48
2.4855486e-48
2.4855459e-48
2.4855456e-48
2.4855467e-48
2.4855503e-48
2.48556e-48
1.768503e-47
1.7682994e-47
1.7682161e-47
1.7681878e-47
1.7681797e-47
1.7681778e-47
1.7681775e-47
1.7681778e-47
1.768179e-47
1.768182e-47
1.7682994e-47
1.768096e-47
1.7680127e-47
1.7679844e-47
1.7679763e-47
1.7679744e-47
1.7679741e-47
1.7679747e-47
1.7679766e-47
1.7679823e-47
1.7682161e-47
1.7680127e-47
1.7679294e-47
1.7679011e-47
1.767893e-47
1.7678911e-47
1.7678909e-47
1.7678916e-47
1.7678939e-47
1.7679003e-47
1.7681878e-47
1.7679844e-47
1.7679011e-47
1.7678728e-47
1.7678647e-47
1.7678628e-47
1.7678626e-47
1.7678634e-47
1.7678658e-47
1.7678725e-47
1.7681797e-47
1.7679763e-47
1.767893e-47
1.7678647e-47
1.7678567e-47
1.7678548e-47
1.7678546e-47
1.7678554e-47
1.7678578e-47
1.7678645e-47
1.7681778e-47
1.7679744e-47
1.7678911e-47
1.7678628e-47
1.7678548e-47
1.7678529e-47
1.7678527e-47
1.7678535e-47
1.767856e-47
1.7678627e-47
1.7681775e-47
1.7679741e-47
1.7678909e-47
1.7678626e-47
1.7678546e-47
1.7678527e-47
1.7678525e-47
1.7678533e-47
1.7678558e-47
1.7678625e-47
1.7681778e-47
1.7679747e-47
1.7678916e-47
1.7678634e-47
1.7678554e-47
1.7678535e-47
1.7678533e-47
1.767854e-47
1.7678566e-47
1.7678632e-47
1.768179e-47
1.7679766e-47
1.7678939e-47
1.7678658e-47
1.7678578e-47
1.767856e-47
1.7678558e-47
1.7678566e-47
1.7678591e-47
1.7678658e-47
1.768182e-47
1.7679823e-47
1.7679003e-47
1.7678725e-47
1.7678645e-47
1.7678627e-47