/*--------------------------------*- C++ -*----------------------------------*\
| =========                 |                                                 |
| \\      /  F ield         | OpenFOAM: The Open Source CFD Toolbox           |
|  \\    /   O peration     | Version:  dev                                   |
|   \\  /    A nd           | Web:      www.OpenFOAM.org                      |
|    \\/     M anipulation  |                                                 |
\*---------------------------------------------------------------------------*/
FoamFile
{
    version     2.0;
    format      ascii;
    class       volScalarField;
    location    "90.995";
    object      A;
}
// * * * * * * * * * * * * * * * * * * * * * * * * * * * * * * * * * * * * * //

dimensions      [0 0 0 0 1 0 0];

internalField   nonuniform List<scalar> 
10000
(
2.5500875e-22
2.5478008e-22
2.5465315e-22
2.5457959e-22
2.545388e-22
2.545191e-22
2.5451431e-22
2.545229e-22
2.5454852e-22
2.5459882e-22
2.5478008e-22
2.5455228e-22
2.5442566e-22
2.5435225e-22
2.5431157e-22
2.5429201e-22
2.5428747e-22
2.5429664e-22
2.543237e-22
2.5437811e-22
2.5465315e-22
2.5442566e-22
2.5429924e-22
2.5422597e-22
2.5418543e-22
2.5416605e-22
2.5416183e-22
2.5417158e-22
2.5419965e-22
2.5425549e-22
2.5457959e-22
2.5435225e-22
2.5422597e-22
2.5415283e-22
2.5411242e-22
2.5409322e-22
2.5408927e-22
2.5409943e-22
2.5412808e-22
2.5418448e-22
2.545388e-22
2.5431157e-22
2.5418543e-22
2.5411242e-22
2.5407215e-22
2.540531e-22
2.5404936e-22
2.5405978e-22
2.5408874e-22
2.5414537e-22
2.545191e-22
2.5429201e-22
2.5416605e-22
2.5409322e-22
2.540531e-22
2.540342e-22
2.540306e-22
2.5404119e-22
2.5407031e-22
2.5412705e-22
2.5451431e-22
2.5428747e-22
2.5416183e-22
2.5408927e-22
2.5404936e-22
2.540306e-22
2.5402712e-22
2.5403781e-22
2.5406702e-22
2.5412382e-22
2.545229e-22
2.5429664e-22
2.5417158e-22
2.5409943e-22
2.5405978e-22
2.5404119e-22
2.5403781e-22
2.5404859e-22
2.5407786e-22
2.541347e-22
2.5454852e-22
2.543237e-22
2.5419965e-22
2.5412808e-22
2.5408874e-22
2.5407031e-22
2.5406702e-22
2.5407786e-22
2.5410719e-22
2.541641e-22
2.5459882e-22
2.5437811e-22
2.5425549e-22
2.5418448e-22
2.5414537e-22
2.5412705e-22
2.5412382e-22
2.541347e-22
2.541641e-22
2.5422116e-22
8.3669056e-22
8.3596962e-22
8.3555746e-22
8.3531801e-22
8.3518514e-22
8.3512091e-22
8.3510523e-22
8.3513309e-22
8.3521642e-22
8.3538579e-22
8.3596962e-22
8.3525134e-22
8.3484016e-22
8.3460119e-22
8.3446868e-22
8.3440491e-22
8.3439008e-22
8.3441981e-22
8.3450787e-22
8.3469078e-22
8.3555746e-22
8.3484016e-22
8.3442963e-22
8.3419112e-22
8.3405905e-22
8.3399588e-22
8.3398208e-22
8.3401371e-22
8.3410509e-22
8.3429268e-22
8.3531801e-22
8.3460119e-22
8.3419112e-22
8.3395303e-22
8.338214e-22
8.3375881e-22
8.337459e-22
8.3377889e-22
8.3387215e-22
8.3406156e-22
8.3518514e-22
8.3446868e-22
8.3405905e-22
8.338214e-22
8.3369021e-22
8.3362812e-22
8.3361587e-22
8.3364973e-22
8.3374398e-22
8.3393417e-22
8.3512091e-22
8.3440491e-22
8.3399588e-22
8.3375881e-22
8.3362812e-22
8.335665e-22
8.3355473e-22
8.3358912e-22
8.3368391e-22
8.3387446e-22
8.3510523e-22
8.3439008e-22
8.3398208e-22
8.337459e-22
8.3361587e-22
8.3355473e-22
8.3354335e-22
8.3357809e-22
8.3367318e-22
8.3386392e-22
8.3513309e-22
8.3441981e-22
8.3401371e-22
8.3377889e-22
8.3364973e-22
8.3358912e-22
8.3357809e-22
8.3361308e-22
8.3370837e-22
8.3389925e-22
8.3521642e-22
8.3450787e-22
8.3410509e-22
8.3387215e-22
8.3374398e-22
8.3368391e-22
8.3367318e-22
8.3370837e-22
8.3380386e-22
8.3399495e-22
8.3538579e-22
8.3469078e-22
8.3429268e-22
8.3406156e-22
8.3393417e-22
8.3387446e-22
8.3386392e-22
8.3389925e-22
8.3399495e-22
8.3418659e-22
1.6577692e-21
1.6563887e-21
1.6555867e-21
1.6551194e-21
1.6548597e-21
1.654734e-21
1.6547031e-21
1.654757e-21
1.654919e-21
1.6552591e-21
1.6563887e-21
1.6550131e-21
1.6542131e-21
1.6537466e-21
1.6534876e-21
1.6533628e-21
1.6533336e-21
1.6533912e-21
1.6535626e-21
1.6539294e-21
1.6555867e-21
1.6542131e-21
1.6534143e-21
1.6529487e-21
1.6526906e-21
1.652567e-21
1.6525398e-21
1.6526011e-21
1.6527791e-21
1.6531551e-21
1.6551194e-21
1.6537466e-21
1.6529487e-21
1.652484e-21
1.6522267e-21
1.6521042e-21
1.6520788e-21
1.6521428e-21
1.6523245e-21
1.6527041e-21
1.6548597e-21
1.6534876e-21
1.6526906e-21
1.6522267e-21
1.6519703e-21
1.6518488e-21
1.6518247e-21
1.6518904e-21
1.652074e-21
1.6524552e-21
1.654734e-21
1.6533628e-21
1.652567e-21
1.6521042e-21
1.6518488e-21
1.6517283e-21
1.6517051e-21
1.6517719e-21
1.6519565e-21
1.6523384e-21
1.6547031e-21
1.6533336e-21
1.6525398e-21
1.6520788e-21
1.6518247e-21
1.6517051e-21
1.6516827e-21
1.6517501e-21
1.6519354e-21
1.6523177e-21
1.654757e-21
1.6533912e-21
1.6526011e-21
1.6521428e-21
1.6518904e-21
1.6517719e-21
1.6517501e-21
1.6518181e-21
1.6520038e-21
1.6523863e-21
1.654919e-21
1.6535626e-21
1.6527791e-21
1.6523245e-21
1.652074e-21
1.6519565e-21
1.6519354e-21
1.6520038e-21
1.6521898e-21
1.6525727e-21
1.6552591e-21
1.6539294e-21
1.6531551e-21
1.6527041e-21
1.6524552e-21
1.6523384e-21
1.6523177e-21
1.6523863e-21
1.6525727e-21
1.6529569e-21
2.9637125e-21
2.9613261e-21
2.9599258e-21
2.9591069e-21
2.9586511e-21
2.9584302e-21
2.9583754e-21
2.9584688e-21
2.9587503e-21
2.9593483e-21
2.9613261e-21
2.9589483e-21
2.9575512e-21
2.9567339e-21
2.9562794e-21
2.95606e-21
2.9560082e-21
2.9561081e-21
2.9564062e-21
2.957052e-21
2.9599258e-21
2.9575512e-21
2.9561563e-21
2.9553406e-21
2.9548876e-21
2.9546703e-21
2.9546221e-21
2.9547287e-21
2.9550384e-21
2.9557007e-21
2.9591069e-21
2.9567339e-21
2.9553406e-21
2.9545264e-21
2.9540748e-21
2.9538596e-21
2.9538145e-21
2.9539259e-21
2.9542422e-21
2.9549108e-21
2.9586511e-21
2.9562794e-21
2.9548876e-21
2.9540748e-21
2.9536248e-21
2.9534113e-21
2.9533686e-21
2.953483e-21
2.9538028e-21
2.9544741e-21
2.9584302e-21
2.95606e-21
2.9546703e-21
2.9538596e-21
2.9534113e-21
2.9531995e-21
2.9531584e-21
2.9532747e-21
2.9535963e-21
2.9542689e-21
2.9583754e-21
2.9560082e-21
2.9546221e-21
2.9538145e-21
2.9533686e-21
2.9531584e-21
2.9531187e-21
2.9532361e-21
2.9535589e-21
2.9542321e-21
2.9584688e-21
2.9561081e-21
2.9547287e-21
2.9539259e-21
2.953483e-21
2.9532747e-21
2.9532361e-21
2.9533545e-21
2.9536779e-21
2.9543517e-21
2.9587503e-21
2.9564062e-21
2.9550384e-21
2.9542422e-21
2.9538028e-21
2.9535963e-21
2.9535589e-21
2.9536779e-21
2.954002e-21
2.9546764e-21
2.9593483e-21
2.957052e-21
2.9557007e-21
2.9549108e-21
2.9544741e-21
2.9542689e-21
2.9542321e-21
2.9543517e-21
2.9546764e-21
2.9553529e-21
5.1647099e-21
5.1606901e-21
5.1583146e-21
5.1569207e-21
5.1561433e-21
5.1557659e-21
5.1556715e-21
5.1558282e-21
5.1563014e-21
5.1573084e-21
5.1606901e-21
5.1566846e-21
5.1543145e-21
5.1529234e-21
5.1521481e-21
5.1517733e-21
5.151684e-21
5.151852e-21
5.1523541e-21
5.153444e-21
5.1583146e-21
5.1543145e-21
5.151948e-21
5.1505596e-21
5.1497869e-21
5.1494158e-21
5.1493327e-21
5.1495122e-21
5.1500345e-21
5.1511528e-21
5.1569207e-21
5.1529234e-21
5.1505596e-21
5.1491736e-21
5.1484035e-21
5.1480359e-21
5.1479581e-21
5.1481459e-21
5.1486796e-21
5.149809e-21
5.1561433e-21
5.1521481e-21
5.1497869e-21
5.1484035e-21
5.1476361e-21
5.1472715e-21
5.1471977e-21
5.1473907e-21
5.1479304e-21
5.1490646e-21
5.1557659e-21
5.1517733e-21
5.1494158e-21
5.1480359e-21
5.1472715e-21
5.1469097e-21
5.1468388e-21
5.1470351e-21
5.1475779e-21
5.1487143e-21
5.1556715e-21
5.151684e-21
5.1493327e-21
5.1479581e-21
5.1471977e-21
5.1468388e-21
5.1467703e-21
5.1469686e-21
5.1475133e-21
5.1486508e-21
5.1558282e-21
5.151852e-21
5.1495122e-21
5.1481459e-21
5.1473907e-21
5.1470351e-21
5.1469686e-21
5.1471685e-21
5.1477144e-21
5.1488527e-21
5.1563014e-21
5.1523541e-21
5.1500345e-21
5.1486796e-21
5.1479304e-21
5.1475779e-21
5.1475133e-21
5.1477144e-21
5.1482614e-21
5.149401e-21
5.1573084e-21
5.153444e-21
5.1511528e-21
5.149809e-21
5.1490646e-21
5.1487143e-21
5.1486508e-21
5.1488527e-21
5.149401e-21
5.1505439e-21
8.9793953e-21
8.9726426e-21
8.9686295e-21
8.9662673e-21
8.964947e-21
8.9643048e-21
8.9641426e-21
8.964404e-21
8.9651944e-21
8.9668705e-21
8.9726426e-21
8.9659139e-21
8.9619098e-21
8.9595521e-21
8.9582354e-21
8.9575979e-21
8.9574443e-21
8.9577253e-21
8.9585656e-21
8.960385e-21
8.9686295e-21
8.9619098e-21
8.9579119e-21
8.9555587e-21
8.9542465e-21
8.9536151e-21
8.9534724e-21
8.9537732e-21
8.9546483e-21
8.9565169e-21
8.9662673e-21
8.9595521e-21
8.9555587e-21
8.9532097e-21
8.9519019e-21
8.9512766e-21
8.9511431e-21
8.9514581e-21
8.9523528e-21
8.9542405e-21
8.964947e-21
8.9582354e-21
8.9542465e-21
8.9519019e-21
8.9505987e-21
8.9499786e-21
8.9498519e-21
8.9501759e-21
8.9510811e-21
8.9529769e-21
8.9643048e-21
8.9575979e-21
8.9536151e-21
8.9512766e-21
8.9499786e-21
8.9493634e-21
8.9492416e-21
8.9495712e-21
8.9504819e-21
8.9523815e-21
8.9641426e-21
8.9574443e-21
8.9534724e-21
8.9511431e-21
8.9498519e-21
8.9492416e-21
8.9491239e-21
8.9494571e-21
8.9503709e-21
8.9522725e-21
8.964404e-21
8.9577253e-21
8.9537732e-21
8.9514581e-21
8.9501759e-21
8.9495712e-21
8.9494571e-21
8.9497929e-21
8.9507088e-21
8.9526118e-21
8.9651944e-21
8.9585656e-21
8.9546483e-21
8.9523528e-21
8.9510811e-21
8.9504819e-21
8.9503709e-21
8.9507088e-21
8.9516266e-21
8.9535316e-21
8.9668705e-21
8.960385e-21
8.9565169e-21
8.9542405e-21
8.9529769e-21
8.9523815e-21
8.9522725e-21
8.9526118e-21
8.9535316e-21
8.9554423e-21
1.5697172e-20
1.5685772e-20
1.5678963e-20
1.5674942e-20
1.567269e-20
1.5671593e-20
1.5671313e-20
1.567175e-20
1.5673075e-20
1.5675867e-20
1.5685772e-20
1.5674411e-20
1.5667617e-20
1.5663604e-20
1.5661358e-20
1.5660269e-20
1.5660004e-20
1.5660476e-20
1.5661887e-20
1.5664928e-20
1.5678963e-20
1.5667617e-20
1.5660834e-20
1.5656828e-20
1.565459e-20
1.5653512e-20
1.5653265e-20
1.5653771e-20
1.5655243e-20
1.5658369e-20
1.5674942e-20
1.5663604e-20
1.5656828e-20
1.565283e-20
1.56506e-20
1.5649531e-20
1.5649301e-20
1.5649832e-20
1.5651337e-20
1.5654497e-20
1.567269e-20
1.5661358e-20
1.565459e-20
1.56506e-20
1.5648377e-20
1.5647318e-20
1.5647099e-20
1.5647645e-20
1.5649169e-20
1.5652343e-20
1.5671593e-20
1.5660269e-20
1.5653512e-20
1.5649531e-20
1.5647318e-20
1.5646267e-20
1.5646057e-20
1.5646613e-20
1.5648146e-20
1.5651326e-20
1.5671313e-20
1.5660004e-20
1.5653265e-20
1.5649301e-20
1.5647099e-20
1.5646057e-20
1.5645854e-20
1.5646416e-20
1.5647954e-20
1.5651138e-20
1.567175e-20
1.5660476e-20
1.5653771e-20
1.5649832e-20
1.5647645e-20
1.5646613e-20
1.5646416e-20
1.5646983e-20
1.5648525e-20
1.5651711e-20
1.5673075e-20
1.5661887e-20
1.5655243e-20
1.5651337e-20
1.5649169e-20
1.5648146e-20
1.5647954e-20
1.5648525e-20
1.565007e-20
1.5653259e-20
1.5675867e-20
1.5664928e-20
1.5658369e-20
1.5654497e-20
1.5652343e-20
1.5651326e-20
1.5651138e-20
1.5651711e-20
1.5653259e-20
1.5656458e-20
2.7665179e-20
2.7645782e-20
2.7634143e-20
2.7627249e-20
2.7623381e-20
2.7621492e-20
2.7621005e-20
2.7621743e-20
2.7623977e-20
2.7628656e-20
2.7645782e-20
2.7626453e-20
2.7614839e-20
2.7607958e-20
2.76041e-20
2.7602225e-20
2.7601765e-20
2.7602562e-20
2.7604948e-20
2.7610063e-20
2.7634143e-20
2.7614839e-20
2.7603244e-20
2.7596376e-20
2.7592531e-20
2.7590675e-20
2.7590247e-20
2.7591104e-20
2.7593595e-20
2.7598859e-20
2.7627249e-20
2.7607958e-20
2.7596376e-20
2.7589521e-20
2.7585689e-20
2.7583851e-20
2.758345e-20
2.7584351e-20
2.7586901e-20
2.7592224e-20
2.7623381e-20
2.76041e-20
2.7592531e-20
2.7585689e-20
2.7581871e-20
2.7580048e-20
2.7579668e-20
2.7580596e-20
2.7583178e-20
2.7588525e-20
2.7621492e-20
2.7602225e-20
2.7590675e-20
2.7583851e-20
2.7580048e-20
2.757824e-20
2.7577876e-20
2.757882e-20
2.7581419e-20
2.7586777e-20
2.7621005e-20
2.7601765e-20
2.7590247e-20
2.758345e-20
2.7579668e-20
2.7577876e-20
2.7577523e-20
2.7578478e-20
2.7581086e-20
2.7586451e-20
2.7621743e-20
2.7602562e-20
2.7591104e-20
2.7584351e-20
2.7580596e-20
2.757882e-20
2.7578478e-20
2.7579441e-20
2.7582055e-20
2.7587424e-20
2.7623977e-20
2.7604948e-20
2.7593595e-20
2.7586901e-20
2.7583178e-20
2.7581419e-20
2.7581086e-20
2.7582055e-20
2.7584675e-20
2.759005e-20
2.7628656e-20
2.7610063e-20
2.7598859e-20
2.7592224e-20
2.7588525e-20
2.7586777e-20
2.7586451e-20
2.7587424e-20
2.759005e-20
2.759544e-20
4.920293e-20
4.9169641e-20
4.9149576e-20
4.9137655e-20
4.9130952e-20
4.9127673e-20
4.912682e-20
4.9128075e-20
4.9131876e-20
4.913978e-20
4.9169641e-20
4.9136467e-20
4.9116445e-20
4.9104547e-20
4.9097861e-20
4.9094607e-20
4.90938e-20
4.909516e-20
4.9099228e-20
4.9107902e-20
4.9149576e-20
4.9116445e-20
4.9096454e-20
4.9084578e-20
4.9077916e-20
4.9074695e-20
4.9073945e-20
4.907541e-20
4.9079664e-20
4.9088602e-20
4.9137655e-20
4.9104547e-20
4.9084578e-20
4.9072724e-20
4.9066085e-20
4.9062895e-20
4.9062195e-20
4.9063735e-20
4.9068094e-20
4.9077134e-20
4.9130952e-20
4.9097861e-20
4.9077916e-20
4.9066085e-20
4.905947e-20
4.9056308e-20
4.9055643e-20
4.9057232e-20
4.9061646e-20
4.9070729e-20
4.9127673e-20
4.9094607e-20
4.9074695e-20
4.9062895e-20
4.9056308e-20
4.9053171e-20
4.9052533e-20
4.9054151e-20
4.9058595e-20
4.9067698e-20
4.912682e-20
4.90938e-20
4.9073945e-20
4.9062195e-20
4.9055643e-20
4.9052533e-20
4.9051916e-20
4.9053553e-20
4.9058014e-20
4.9067127e-20
4.9128075e-20
4.909516e-20
4.907541e-20
4.9063735e-20
4.9057232e-20
4.9054151e-20
4.9053553e-20
4.9055204e-20
4.9059675e-20
4.9068796e-20
4.9131876e-20
4.9099228e-20
4.9079664e-20
4.9068094e-20
4.9061646e-20
4.9058595e-20
4.9058014e-20
4.9059675e-20
4.9064156e-20
4.9073287e-20
4.913978e-20
4.9107902e-20
4.9088602e-20
4.9077134e-20
4.9070729e-20
4.9067698e-20
4.9067127e-20
4.9068796e-20
4.9073287e-20
4.9082444e-20
8.8337225e-20
8.8279578e-20
8.8244677e-20
8.822388e-20
8.8212162e-20
8.8206422e-20
8.8204914e-20
8.8207068e-20
8.8213593e-20
8.8227061e-20
8.8279578e-20
8.8222129e-20
8.8187303e-20
8.8166544e-20
8.8154858e-20
8.814916e-20
8.8147735e-20
8.8150075e-20
8.8157075e-20
8.8171916e-20
8.8244677e-20
8.8187303e-20
8.815253e-20
8.8131811e-20
8.8120165e-20
8.8114525e-20
8.8113201e-20
8.8115728e-20
8.812306e-20
8.813837e-20
8.822388e-20
8.8166544e-20
8.8131811e-20
8.811113e-20
8.8099525e-20
8.8093941e-20
8.8092704e-20
8.8095366e-20
8.8102883e-20
8.8118375e-20
8.8212162e-20
8.8154858e-20
8.8120165e-20
8.8099525e-20
8.8087963e-20
8.8082428e-20
8.8081255e-20
8.8084001e-20
8.8091617e-20
8.8107187e-20
8.8206422e-20
8.814916e-20
8.8114525e-20
8.8093941e-20
8.8082428e-20
8.8076938e-20
8.8075812e-20
8.8078611e-20
8.8086279e-20
8.8101884e-20
8.8204914e-20
8.8147735e-20
8.8113201e-20
8.8092704e-20
8.8081255e-20
8.8075812e-20
8.8074724e-20
8.8077556e-20
8.8085254e-20
8.8100877e-20
8.8207068e-20
8.8150075e-20
8.8115728e-20
8.8095366e-20
8.8084001e-20
8.8078611e-20
8.8077556e-20
8.8080413e-20
8.808813e-20
8.8103766e-20
8.8213593e-20
8.8157075e-20
8.812306e-20
8.8102883e-20
8.8091617e-20
8.8086279e-20
8.8085254e-20
8.808813e-20
8.8095862e-20
8.8111516e-20
8.8227061e-20
8.8171916e-20
8.813837e-20
8.8118375e-20
8.8107187e-20
8.8101884e-20
8.8100877e-20
8.8103766e-20
8.8111516e-20
8.8127214e-20
1.6012327e-19
1.6002253e-19
1.5996127e-19
1.5992466e-19
1.5990399e-19
1.5989384e-19
1.5989116e-19
1.5989489e-19
1.5990619e-19
1.5992935e-19
1.6002253e-19
1.5992213e-19
1.59861e-19
1.5982445e-19
1.5980384e-19
1.5979377e-19
1.5979123e-19
1.597953e-19
1.5980746e-19
1.5983309e-19
1.5996127e-19
1.59861e-19
1.5979996e-19
1.5976349e-19
1.5974294e-19
1.5973298e-19
1.5973062e-19
1.5973502e-19
1.5974778e-19
1.5977425e-19
1.5992466e-19
1.5982445e-19
1.5976349e-19
1.5972708e-19
1.5970661e-19
1.5969675e-19
1.5969454e-19
1.5969919e-19
1.5971227e-19
1.5973907e-19
1.5990399e-19
1.5980384e-19
1.5974294e-19
1.5970661e-19
1.5968622e-19
1.5967644e-19
1.5967435e-19
1.5967915e-19
1.5969241e-19
1.5971935e-19
1.5989384e-19
1.5979377e-19
1.5973298e-19
1.5969675e-19
1.5967644e-19
1.5966675e-19
1.5966474e-19
1.5966963e-19
1.5968299e-19
1.5970999e-19
1.5989116e-19
1.5979123e-19
1.5973062e-19
1.5969454e-19
1.5967435e-19
1.5966474e-19
1.5966281e-19
1.5966776e-19
1.5968116e-19
1.597082e-19
1.5989489e-19
1.597953e-19
1.5973502e-19
1.5969919e-19
1.5967915e-19
1.5966963e-19
1.5966776e-19
1.5967275e-19
1.5968619e-19
1.5971325e-19
1.5990619e-19
1.5980746e-19
1.5974778e-19
1.5971227e-19
1.5969241e-19
1.5968299e-19
1.5968116e-19
1.5968619e-19
1.5969966e-19
1.5972675e-19
1.5992935e-19
1.5983309e-19
1.5977425e-19
1.5973907e-19
1.5971935e-19
1.5970999e-19
1.597082e-19
1.5971325e-19
1.5972675e-19
1.5975391e-19
2.9305925e-19
2.9288156e-19
2.9277305e-19
2.9270801e-19
2.9267122e-19
2.9265313e-19
2.9264831e-19
2.9265483e-19
2.926746e-19
2.927148e-19
2.9288156e-19
2.9270448e-19
2.9259619e-19
2.9253127e-19
2.9249458e-19
2.9247663e-19
2.9247207e-19
2.924792e-19
2.9250052e-19
2.9254519e-19
2.9277305e-19
2.9259619e-19
2.9248807e-19
2.9242327e-19
2.9238671e-19
2.9236895e-19
2.9236471e-19
2.9237245e-19
2.9239485e-19
2.9244105e-19
2.9270801e-19
2.9253127e-19
2.9242327e-19
2.9235859e-19
2.9232216e-19
2.9230458e-19
2.9230063e-19
2.923088e-19
2.923318e-19
2.923786e-19
2.9267122e-19
2.9249458e-19
2.9238671e-19
2.9232216e-19
2.9228587e-19
2.9226845e-19
2.922647e-19
2.9227315e-19
2.9229646e-19
2.9234352e-19
2.9265313e-19
2.9247663e-19
2.9236895e-19
2.9230458e-19
2.9226845e-19
2.9225117e-19
2.9224758e-19
2.9225619e-19
2.9227968e-19
2.9232685e-19
2.9264831e-19
2.9247207e-19
2.9236471e-19
2.9230063e-19
2.922647e-19
2.9224758e-19
2.9224411e-19
2.9225283e-19
2.9227641e-19
2.9232364e-19
2.9265483e-19
2.924792e-19
2.9237245e-19
2.923088e-19
2.9227315e-19
2.9225619e-19
2.9225283e-19
2.9226164e-19
2.9228528e-19
2.9233255e-19
2.926746e-19
2.9250052e-19
2.9239485e-19
2.923318e-19
2.9229646e-19
2.9227968e-19
2.9227641e-19
2.9228528e-19
2.9230897e-19
2.9235629e-19
2.927148e-19
2.9254519e-19
2.9244105e-19
2.923786e-19
2.9234352e-19
2.9232685e-19
2.9232364e-19
2.9233255e-19
2.9235629e-19
2.9240374e-19
5.4158594e-19
5.4126963e-19
5.4107564e-19
5.4095903e-19
5.4089295e-19
5.4086042e-19
5.4085167e-19
5.4086319e-19
5.4089809e-19
5.4096851e-19
5.4126963e-19
5.409544e-19
5.4076081e-19
5.4064441e-19
5.405785e-19
5.4054622e-19
5.4053795e-19
5.4055058e-19
5.4058832e-19
5.4066694e-19
5.4107564e-19
5.4076081e-19
5.4056751e-19
5.4045134e-19
5.4038566e-19
5.4035372e-19
5.4034605e-19
5.4035979e-19
5.4039949e-19
5.4048091e-19
5.4095903e-19
5.4064441e-19
5.4045134e-19
5.4033538e-19
5.4026994e-19
5.4023833e-19
5.4023118e-19
5.402457e-19
5.4028651e-19
5.4036901e-19
5.4089295e-19
5.405785e-19
5.4038566e-19
5.4026994e-19
5.4020476e-19
5.4017343e-19
5.4016666e-19
5.4018169e-19
5.4022307e-19
5.4030604e-19
5.4086042e-19
5.4054622e-19
5.4035372e-19
5.4023833e-19
5.4017343e-19
5.4014237e-19
5.4013587e-19
5.4015121e-19
5.4019291e-19
5.4027609e-19
5.4085167e-19
5.4053795e-19
5.4034605e-19
5.4023118e-19
5.4016666e-19
5.4013587e-19
5.401296e-19
5.4014514e-19
5.4018701e-19
5.4027029e-19
5.4086319e-19
5.4055058e-19
5.4035979e-19
5.402457e-19
5.4018169e-19
5.4015121e-19
5.4014514e-19
5.4016082e-19
5.402028e-19
5.4028616e-19
5.4089809e-19
5.4058832e-19
5.4039949e-19
5.4028651e-19
5.4022307e-19
5.4019291e-19
5.4018701e-19
5.402028e-19
5.4024487e-19
5.4032832e-19
5.4096851e-19
5.4066694e-19
5.4048091e-19
5.4036901e-19
5.4030604e-19
5.4027609e-19
5.4027029e-19
5.4028616e-19
5.4032832e-19
5.40412e-19
1.01066e-18
1.0100917e-18
1.0097417e-18
1.0095307e-18
1.0094109e-18
1.0093519e-18
1.0093359e-18
1.0093564e-18
1.0094186e-18
1.0095431e-18
1.0100917e-18
1.0095253e-18
1.009176e-18
1.0089654e-18
1.008846e-18
1.0087874e-18
1.0087723e-18
1.0087948e-18
1.0088623e-18
1.009002e-18
1.0097417e-18
1.009176e-18
1.0088273e-18
1.0086171e-18
1.008498e-18
1.00844e-18
1.008426e-18
1.0084507e-18
1.0085217e-18
1.0086666e-18
1.0095307e-18
1.0089654e-18
1.0086171e-18
1.0084073e-18
1.0082887e-18
1.0082313e-18
1.0082182e-18
1.0082443e-18
1.0083174e-18
1.0084643e-18
1.0094109e-18
1.008846e-18
1.008498e-18
1.0082887e-18
1.0081705e-18
1.0081137e-18
1.0081013e-18
1.0081283e-18
1.0082025e-18
1.0083502e-18
1.0093519e-18
1.0087874e-18
1.00844e-18
1.0082313e-18
1.0081137e-18
1.0080573e-18
1.0080455e-18
1.008073e-18
1.0081478e-18
1.0082959e-18
1.0093359e-18
1.0087723e-18
1.008426e-18
1.0082182e-18
1.0081013e-18
1.0080455e-18
1.008034e-18
1.008062e-18
1.008137e-18
1.0082853e-18
1.0093564e-18
1.0087948e-18
1.0084507e-18
1.0082443e-18
1.0081283e-18
1.008073e-18
1.008062e-18
1.0080902e-18
1.0081654e-18
1.0083139e-18
1.0094186e-18
1.0088623e-18
1.0085217e-18
1.0083174e-18
1.0082025e-18
1.0081478e-18
1.008137e-18
1.0081654e-18
1.0082409e-18
1.0083895e-18
1.0095431e-18
1.009002e-18
1.0086666e-18
1.0084643e-18
1.0083502e-18
1.0082959e-18
1.0082853e-18
1.0083139e-18
1.0083895e-18
1.0085385e-18
1.9044914e-18
1.9034609e-18
1.9028236e-18
1.9024383e-18
1.9022192e-18
1.902111e-18
1.9020815e-18
1.9021184e-18
1.9022304e-18
1.9024527e-18
1.9034609e-18
1.9024338e-18
1.9017978e-18
1.9014132e-18
1.9011947e-18
1.9010873e-18
1.9010595e-18
1.9011003e-18
1.9012219e-18
1.9014725e-18
1.9028236e-18
1.9017978e-18
1.9011627e-18
1.9007789e-18
1.9005611e-18
1.9004549e-18
1.9004291e-18
1.9004737e-18
1.9006021e-18
1.9008623e-18
1.9024383e-18
1.9014132e-18
1.9007789e-18
1.9003958e-18
1.9001788e-18
1.9000738e-18
1.9000497e-18
1.900097e-18
1.9002292e-18
1.9004932e-18
1.9022192e-18
1.9011947e-18
1.9005611e-18
1.9001788e-18
1.8999627e-18
1.8998586e-18
1.8998359e-18
1.8998849e-18
1.9000191e-18
1.9002846e-18
1.902111e-18
1.9010873e-18
1.9004549e-18
1.9000738e-18
1.8998586e-18
1.8997555e-18
1.8997337e-18
1.8997837e-18
1.899919e-18
1.9001853e-18
1.9020815e-18
1.9010595e-18
1.9004291e-18
1.9000497e-18
1.8998359e-18
1.8997337e-18
1.8997126e-18
1.8997634e-18
1.8998992e-18
1.9001659e-18
1.9021184e-18
1.9011003e-18
1.9004737e-18
1.900097e-18
1.8998849e-18
1.8997837e-18
1.8997634e-18
1.8998146e-18
1.8999509e-18
1.9002177e-18
1.9022304e-18
1.9012219e-18
1.9006021e-18
1.9002292e-18
1.9000191e-18
1.899919e-18
1.8998992e-18
1.8999509e-18
1.9000874e-18
1.9003546e-18
1.9024527e-18
1.9014725e-18
1.9008623e-18
1.9004932e-18
1.9002846e-18
1.9001853e-18
1.9001659e-18
1.9002177e-18
1.9003546e-18
1.9006224e-18
3.6240633e-18
3.6221773e-18
3.621006e-18
3.6202961e-18
3.6198915e-18
3.6196915e-18
3.6196366e-18
3.6197038e-18
3.6199071e-18
3.6203078e-18
3.6221773e-18
3.6202975e-18
3.6191286e-18
3.6184199e-18
3.6180164e-18
3.617818e-18
3.6177662e-18
3.6178405e-18
3.6180622e-18
3.618516e-18
3.621006e-18
3.6191286e-18
3.6179615e-18
3.6172541e-18
3.6168521e-18
3.6166558e-18
3.6166079e-18
3.6166894e-18
3.6169237e-18
3.6173957e-18
3.6202961e-18
3.6184199e-18
3.6172541e-18
3.6165481e-18
3.6161477e-18
3.6159535e-18
3.6159089e-18
3.6159954e-18
3.6162369e-18
3.6167158e-18
3.6198915e-18
3.6180164e-18
3.6168521e-18
3.6161477e-18
3.6157487e-18
3.6155564e-18
3.6155142e-18
3.615604e-18
3.6158492e-18
3.6163312e-18
3.6196915e-18
3.617818e-18
3.6166558e-18
3.6159535e-18
3.6155564e-18
3.6153658e-18
3.6153254e-18
3.6154172e-18
3.6156644e-18
3.6161477e-18
3.6196366e-18
3.6177662e-18
3.6166079e-18
3.6159089e-18
3.6155142e-18
3.6153254e-18
3.6152864e-18
3.6153795e-18
3.6156278e-18
3.6161118e-18
3.6197038e-18
3.6178405e-18
3.6166894e-18
3.6159954e-18
3.615604e-18
3.6154172e-18
3.6153795e-18
3.6154735e-18
3.6157225e-18
3.6162069e-18
3.6199071e-18
3.6180622e-18
3.6169237e-18
3.6162369e-18
3.6158492e-18
3.6156644e-18
3.6156278e-18
3.6157225e-18
3.615972e-18
3.616457e-18
3.6203078e-18
3.618516e-18
3.6173957e-18
3.6167158e-18
3.6163312e-18
3.6161477e-18
3.6161118e-18
3.6162069e-18
3.616457e-18
3.6169433e-18
6.9639856e-18
6.9605017e-18
6.9583294e-18
6.9570091e-18
6.9562554e-18
6.9558823e-18
6.9557793e-18
6.9559027e-18
6.9562756e-18
6.9570044e-18
6.9605017e-18
6.9570293e-18
6.9548613e-18
6.9535433e-18
6.9527917e-18
6.9524215e-18
6.9523245e-18
6.9524613e-18
6.952869e-18
6.9536988e-18
6.9583294e-18
6.9548613e-18
6.9526966e-18
6.9513811e-18
6.9506322e-18
6.9502661e-18
6.9501764e-18
6.9503268e-18
6.9507585e-18
6.9516228e-18
6.9570091e-18
6.9535433e-18
6.9513811e-18
6.9500682e-18
6.9493221e-18
6.9489601e-18
6.9488765e-18
6.9490366e-18
6.9494818e-18
6.9503594e-18
6.9562554e-18
6.9527917e-18
6.9506322e-18
6.9493221e-18
6.9485791e-18
6.9482205e-18
6.9481416e-18
6.9483078e-18
6.9487601e-18
6.9496433e-18
6.9558823e-18
6.9524215e-18
6.9502661e-18
6.9489601e-18
6.9482205e-18
6.9478651e-18
6.9477896e-18
6.9479595e-18
6.9484156e-18
6.9493014e-18
6.9557793e-18
6.9523245e-18
6.9501764e-18
6.9488765e-18
6.9481416e-18
6.9477896e-18
6.9477167e-18
6.9478891e-18
6.9483473e-18
6.9492344e-18
6.9559027e-18
6.9524613e-18
6.9503268e-18
6.9490366e-18
6.9483078e-18
6.9479595e-18
6.9478891e-18
6.9480632e-18
6.9485227e-18
6.9494107e-18
6.9562756e-18
6.952869e-18
6.9507585e-18
6.9494818e-18
6.9487601e-18
6.9484156e-18
6.9483473e-18
6.9485227e-18
6.9489833e-18
6.9498722e-18
6.9570044e-18
6.9536988e-18
6.9516228e-18
6.9503594e-18
6.9496433e-18
6.9493014e-18
6.9492344e-18
6.9494107e-18
6.9498722e-18
6.9507635e-18
1.3513367e-17
1.3506872e-17
1.3502806e-17
1.3500328e-17
1.3498911e-17
1.3498209e-17
1.3498014e-17
1.3498242e-17
1.3498933e-17
1.3500271e-17
1.3506872e-17
1.3500398e-17
1.349634e-17
1.3493866e-17
1.3492453e-17
1.3491756e-17
1.3491573e-17
1.3491828e-17
1.3492585e-17
1.3494117e-17
1.3502806e-17
1.349634e-17
1.3492288e-17
1.3489819e-17
1.3488411e-17
1.3487722e-17
1.3487553e-17
1.3487833e-17
1.3488636e-17
1.3490234e-17
1.3500328e-17
1.3493866e-17
1.3489819e-17
1.3487355e-17
1.3485953e-17
1.3485271e-17
1.3485114e-17
1.3485413e-17
1.3486242e-17
1.3487865e-17
1.3498911e-17
1.3492453e-17
1.3488411e-17
1.3485953e-17
1.3484556e-17
1.3483881e-17
1.3483732e-17
1.3484043e-17
1.3484886e-17
1.348652e-17
1.3498209e-17
1.3491756e-17
1.3487722e-17
1.3485271e-17
1.3483881e-17
1.3483213e-17
1.348307e-17
1.3483388e-17
1.3484238e-17
1.3485877e-17
1.3498014e-17
1.3491573e-17
1.3487553e-17
1.3485114e-17
1.3483732e-17
1.348307e-17
1.3482933e-17
1.3483256e-17
1.3484109e-17
1.3485751e-17
1.3498242e-17
1.3491828e-17
1.3487833e-17
1.3485413e-17
1.3484043e-17
1.3483388e-17
1.3483256e-17
1.3483581e-17
1.3484438e-17
1.3486081e-17
1.3498933e-17
1.3492585e-17
1.3488636e-17
1.3486242e-17
1.3484886e-17
1.3484238e-17
1.3484109e-17
1.3484438e-17
1.3485296e-17
1.3486941e-17
1.3500271e-17
1.3494117e-17
1.3490234e-17
1.3487865e-17
1.348652e-17
1.3485877e-17
1.3485751e-17
1.3486081e-17
1.3486941e-17
1.348859e-17
2.6479309e-17
2.6467089e-17
2.6459408e-17
2.6454715e-17
2.6452027e-17
2.6450693e-17
2.6450322e-17
2.645075e-17
2.645204e-17
2.6454522e-17
2.6467089e-17
2.6454908e-17
2.6447242e-17
2.6442557e-17
2.6439877e-17
2.6438553e-17
2.6438204e-17
2.6438682e-17
2.6440101e-17
2.6442957e-17
2.6459408e-17
2.6447242e-17
2.6439588e-17
2.6434912e-17
2.6432242e-17
2.6430933e-17
2.6430611e-17
2.6431139e-17
2.6432647e-17
2.6435631e-17
2.6454715e-17
2.6442557e-17
2.6434912e-17
2.6430246e-17
2.6427586e-17
2.6426292e-17
2.6425992e-17
2.6426556e-17
2.6428114e-17
2.6431147e-17
2.6452027e-17
2.6439877e-17
2.6432242e-17
2.6427586e-17
2.6424936e-17
2.6423655e-17
2.6423372e-17
2.6423959e-17
2.6425543e-17
2.6428597e-17
2.6450693e-17
2.6438553e-17
2.6430933e-17
2.6426292e-17
2.6423655e-17
2.6422387e-17
2.6422116e-17
2.6422716e-17
2.6424315e-17
2.6427378e-17
2.6450322e-17
2.6438204e-17
2.6430611e-17
2.6425992e-17
2.6423372e-17
2.6422116e-17
2.6421855e-17
2.6422465e-17
2.6424071e-17
2.6427139e-17
2.645075e-17
2.6438682e-17
2.6431139e-17
2.6426556e-17
2.6423959e-17
2.6422716e-17
2.6422465e-17
2.642308e-17
2.6424691e-17
2.6427762e-17
2.645204e-17
2.6440101e-17
2.6432647e-17
2.6428114e-17
2.6425543e-17
2.6424315e-17
2.6424071e-17
2.6424691e-17
2.6426306e-17
2.642938e-17
2.6454522e-17
2.6442957e-17
2.6435631e-17
2.6431147e-17
2.6428597e-17
2.6427378e-17
2.6427139e-17
2.6427762e-17
2.642938e-17
2.6432463e-17
5.2393341e-17
5.2370137e-17
5.2355496e-17
5.2346528e-17
5.2341382e-17
5.2338826e-17
5.2338111e-17
5.233892e-17
5.2341355e-17
5.2346e-17
5.2370137e-17
5.2347007e-17
5.2332395e-17
5.2323442e-17
5.231831e-17
5.2315775e-17
5.2315102e-17
5.2316009e-17
5.2318696e-17
5.2324071e-17
5.2355496e-17
5.2332395e-17
5.2317805e-17
5.2308869e-17
5.2303757e-17
5.2301251e-17
5.230063e-17
5.2301635e-17
5.2304495e-17
5.2310119e-17
5.2346528e-17
5.2323442e-17
5.2308869e-17
5.2299951e-17
5.2294859e-17
5.2292381e-17
5.2291806e-17
5.229288e-17
5.2295837e-17
5.2301557e-17
5.2341382e-17
5.231831e-17
5.2303757e-17
5.2294859e-17
5.2289788e-17
5.2287335e-17
5.2286793e-17
5.2287911e-17
5.2290919e-17
5.229668e-17
5.2338826e-17
5.2315775e-17
5.2301251e-17
5.2292381e-17
5.2287335e-17
5.2284906e-17
5.2284387e-17
5.2285532e-17
5.2288568e-17
5.2294347e-17
5.2338111e-17
5.2315102e-17
5.230063e-17
5.2291806e-17
5.2286793e-17
5.2284387e-17
5.2283888e-17
5.228505e-17
5.2288101e-17
5.229389e-17
5.233892e-17
5.2316009e-17
5.2301635e-17
5.229288e-17
5.2287911e-17
5.2285532e-17
5.228505e-17
5.2286225e-17
5.2289285e-17
5.229508e-17
5.2341355e-17
5.2318696e-17
5.2304495e-17
5.2295837e-17
5.2290919e-17
5.2288568e-17
5.2288101e-17
5.2289285e-17
5.2292353e-17
5.2298154e-17
5.2346e-17
5.2324071e-17
5.2310119e-17
5.2301557e-17
5.229668e-17
5.2294347e-17
5.229389e-17
5.229508e-17
5.2298154e-17
5.230397e-17
1.0467808e-16
1.0463362e-16
1.0460546e-16
1.0458817e-16
1.0457823e-16
1.0457329e-16
1.045719e-16
1.0457344e-16
1.0457808e-16
1.0458686e-16
1.0463362e-16
1.045893e-16
1.045612e-16
1.0454393e-16
1.0453402e-16
1.0452912e-16
1.0452781e-16
1.0452955e-16
1.0453469e-16
1.045449e-16
1.0460546e-16
1.045612e-16
1.0453313e-16
1.045159e-16
1.0450603e-16
1.0450118e-16
1.0449998e-16
1.0450191e-16
1.0450739e-16
1.0451809e-16
1.0458817e-16
1.0454393e-16
1.045159e-16
1.044987e-16
1.0448887e-16
1.0448408e-16
1.0448297e-16
1.0448503e-16
1.044907e-16
1.0450159e-16
1.0457823e-16
1.0453402e-16
1.0450603e-16
1.0448887e-16
1.0447908e-16
1.0447434e-16
1.0447329e-16
1.0447544e-16
1.0448121e-16
1.0449218e-16
1.0457329e-16
1.0452912e-16
1.0450118e-16
1.0448408e-16
1.0447434e-16
1.0446965e-16
1.0446864e-16
1.0447085e-16
1.0447667e-16
1.0448768e-16
1.045719e-16
1.0452781e-16
1.0449998e-16
1.0448297e-16
1.0447329e-16
1.0446864e-16
1.0446768e-16
1.0446992e-16
1.0447577e-16
1.044868e-16
1.0457344e-16
1.0452955e-16
1.0450191e-16
1.0448503e-16
1.0447544e-16
1.0447085e-16
1.0446992e-16
1.0447218e-16
1.0447805e-16
1.0448909e-16
1.0457808e-16
1.0453469e-16
1.0450739e-16
1.044907e-16
1.0448121e-16
1.0447667e-16
1.0447577e-16
1.0447805e-16
1.0448394e-16
1.0449499e-16
1.0458686e-16
1.045449e-16
1.0451809e-16
1.0450159e-16
1.0449218e-16
1.0448768e-16
1.044868e-16
1.0448909e-16