/*--------------------------------*- C++ -*----------------------------------*\
| =========                 |                                                 |
| \\      /  F ield         | OpenFOAM: The Open Source CFD Toolbox           |
|  \\    /   O peration     | Version:  dev                                   |
|   \\  /    A nd           | Web:      www.OpenFOAM.org                      |
|    \\/     M anipulation  |                                                 |
\*---------------------------------------------------------------------------*/
FoamFile
{
    version     2.0;
    format      ascii;
    class       volScalarField;
    location    "22";
    object      A;
}
// * * * * * * * * * * * * * * * * * * * * * * * * * * * * * * * * * * * * * //

dimensions      [0 0 0 0 1 0 0];

internalField   nonuniform List<scalar> 
10000
(
2.9211517e-51
2.9208422e-51
2.9206988e-51
2.9206371e-51
2.9206134e-51
2.9206055e-51
2.9206036e-51
2.9206045e-51
2.9206087e-51
2.9206216e-51
2.9208422e-51
2.9205328e-51
2.9203895e-51
2.9203278e-51
2.9203042e-51
2.9202963e-51
2.9202945e-51
2.9202958e-51
2.9203011e-51
2.9203176e-51
2.9206988e-51
2.9203895e-51
2.9202462e-51
2.9201845e-51
2.9201609e-51
2.9201531e-51
2.9201514e-51
2.920153e-51
2.920159e-51
2.9201766e-51
2.9206371e-51
2.9203278e-51
2.9201845e-51
2.9201228e-51
2.9200992e-51
2.9200914e-51
2.9200898e-51
2.9200915e-51
2.9200978e-51
2.9201158e-51
2.9206134e-51
2.9203042e-51
2.9201609e-51
2.9200992e-51
2.9200756e-51
2.9200678e-51
2.9200662e-51
2.920068e-51
2.9200744e-51
2.9200925e-51
2.9206055e-51
2.9202963e-51
2.9201531e-51
2.9200914e-51
2.9200678e-51
2.92006e-51
2.9200585e-51
2.9200603e-51
2.9200668e-51
2.9200849e-51
2.9206036e-51
2.9202945e-51
2.9201514e-51
2.9200898e-51
2.9200662e-51
2.9200585e-51
2.9200569e-51
2.9200587e-51
2.9200652e-51
2.9200834e-51
2.9206045e-51
2.9202958e-51
2.920153e-51
2.9200915e-51
2.920068e-51
2.9200603e-51
2.9200587e-51
2.9200606e-51
2.9200671e-51
2.9200852e-51
2.9206087e-51
2.9203011e-51
2.920159e-51
2.9200978e-51
2.9200744e-51
2.9200668e-51
2.9200652e-51
2.9200671e-51
2.9200735e-51
2.9200917e-51
2.9206216e-51
2.9203176e-51
2.9201766e-51
2.9201158e-51
2.9200925e-51
2.9200849e-51
2.9200834e-51
2.9200852e-51
2.9200917e-51
2.9201098e-51
1.3760095e-50
1.3758679e-50
1.3758015e-50
1.3757729e-50
1.3757619e-50
1.3757583e-50
1.3757574e-50
1.3757578e-50
1.3757597e-50
1.3757659e-50
1.3758679e-50
1.3757265e-50
1.3756601e-50
1.3756315e-50
1.3756205e-50
1.3756169e-50
1.375616e-50
1.3756166e-50
1.3756191e-50
1.3756269e-50
1.3758015e-50
1.3756601e-50
1.3755937e-50
1.3755651e-50
1.3755541e-50
1.3755505e-50
1.3755497e-50
1.3755505e-50
1.3755532e-50
1.3755616e-50
1.3757729e-50
1.3756315e-50
1.3755651e-50
1.3755365e-50
1.3755255e-50
1.3755219e-50
1.3755212e-50
1.375522e-50
1.3755249e-50
1.3755335e-50
1.3757619e-50
1.3756205e-50
1.3755541e-50
1.3755255e-50
1.3755146e-50
1.3755109e-50
1.3755102e-50
1.3755111e-50
1.375514e-50
1.3755227e-50
1.3757583e-50
1.3756169e-50
1.3755505e-50
1.3755219e-50
1.3755109e-50
1.3755073e-50
1.3755066e-50
1.3755075e-50
1.3755105e-50
1.3755191e-50
1.3757574e-50
1.375616e-50
1.3755497e-50
1.3755212e-50
1.3755102e-50
1.3755066e-50
1.3755059e-50
1.3755068e-50
1.3755098e-50
1.3755184e-50
1.3757578e-50
1.3756166e-50
1.3755505e-50
1.375522e-50
1.3755111e-50
1.3755075e-50
1.3755068e-50
1.3755076e-50
1.3755106e-50
1.3755193e-50
1.3757597e-50
1.3756191e-50
1.3755532e-50
1.3755249e-50
1.375514e-50
1.3755105e-50
1.3755098e-50
1.3755106e-50
1.3755136e-50
1.3755223e-50
1.3757659e-50
1.3756269e-50
1.3755616e-50
1.3755335e-50
1.3755227e-50
1.3755191e-50
1.3755184e-50
1.3755193e-50
1.3755223e-50
1.3755309e-50
4.8989818e-50
4.8984922e-50
4.8982614e-50
4.8981617e-50
4.8981234e-50
4.8981106e-50
4.8981076e-50
4.898109e-50
4.8981157e-50
4.8981371e-50
4.8984922e-50
4.8980029e-50
4.8977722e-50
4.8976725e-50
4.8976342e-50
4.8976215e-50
4.8976186e-50
4.8976207e-50
4.8976292e-50
4.8976565e-50
4.8982614e-50
4.8977722e-50
4.8975414e-50
4.8974417e-50
4.8974035e-50
4.8973909e-50
4.8973882e-50
4.8973907e-50
4.8974004e-50
4.8974296e-50
4.8981617e-50
4.8976725e-50
4.8974417e-50
4.8973421e-50
4.8973039e-50
4.8972913e-50
4.8972887e-50
4.8972915e-50
4.8973017e-50
4.8973315e-50
4.8981234e-50
4.8976342e-50
4.8974035e-50
4.8973039e-50
4.8972657e-50
4.8972531e-50
4.8972506e-50
4.8972535e-50
4.8972639e-50
4.8972939e-50
4.8981106e-50
4.8976215e-50
4.8973909e-50
4.8972913e-50
4.8972531e-50
4.8972406e-50
4.8972381e-50
4.897241e-50
4.8972514e-50
4.8972815e-50
4.8981076e-50
4.8976186e-50
4.8973882e-50
4.8972887e-50
4.8972506e-50
4.8972381e-50
4.8972356e-50
4.8972385e-50
4.897249e-50
4.8972791e-50
4.898109e-50
4.8976207e-50
4.8973907e-50
4.8972915e-50
4.8972535e-50
4.897241e-50
4.8972385e-50
4.8972415e-50
4.897252e-50
4.897282e-50
4.8981157e-50
4.8976292e-50
4.8974004e-50
4.8973017e-50
4.8972639e-50
4.8972514e-50
4.897249e-50
4.897252e-50
4.8972624e-50
4.8972925e-50
4.8981371e-50
4.8976565e-50
4.8974296e-50
4.8973315e-50
4.8972939e-50
4.8972815e-50
4.8972791e-50
4.897282e-50
4.8972925e-50
4.8973226e-50
1.7408992e-49
1.7407303e-49
1.7406504e-49
1.7406158e-49
1.7406025e-49
1.7405981e-49
1.740597e-49
1.7405975e-49
1.7405998e-49
1.740607e-49
1.7407303e-49
1.7405615e-49
1.7404816e-49
1.740447e-49
1.7404337e-49
1.7404293e-49
1.7404283e-49
1.740429e-49
1.740432e-49
1.7404413e-49
1.7406504e-49
1.7404816e-49
1.7404017e-49
1.7403671e-49
1.7403538e-49
1.7403494e-49
1.7403485e-49
1.7403494e-49
1.7403527e-49
1.7403627e-49
1.7406158e-49
1.740447e-49
1.7403671e-49
1.7403325e-49
1.7403193e-49
1.7403149e-49
1.740314e-49
1.740315e-49
1.7403185e-49
1.7403287e-49
1.7406025e-49
1.7404337e-49
1.7403538e-49
1.7403193e-49
1.740306e-49
1.7403016e-49
1.7403008e-49
1.7403018e-49
1.7403054e-49
1.7403156e-49
1.7405981e-49
1.7404293e-49
1.7403494e-49
1.7403149e-49
1.7403016e-49
1.7402973e-49
1.7402964e-49
1.7402974e-49
1.7403011e-49
1.7403113e-49
1.740597e-49
1.7404283e-49
1.7403485e-49
1.740314e-49
1.7403008e-49
1.7402964e-49
1.7402956e-49
1.7402966e-49
1.7403002e-49
1.7403105e-49
1.7405975e-49
1.740429e-49
1.7403494e-49
1.740315e-49
1.7403018e-49
1.7402974e-49
1.7402966e-49
1.7402976e-49
1.7403012e-49
1.7403115e-49
1.7405998e-49
1.740432e-49
1.7403527e-49
1.7403185e-49
1.7403054e-49
1.7403011e-49
1.7403002e-49
1.7403012e-49
1.7403049e-49
1.7403151e-49
1.740607e-49
1.7404413e-49
1.7403627e-49
1.7403287e-49
1.7403156e-49
1.7403113e-49
1.7403105e-49
1.7403115e-49
1.7403151e-49
1.7403254e-49
6.2970275e-49
6.2964346e-49
6.2961529e-49
6.2960309e-49
6.295984e-49
6.2959683e-49
6.2959646e-49
6.2959663e-49
6.2959743e-49
6.295999e-49
6.2964346e-49
6.2958419e-49
6.2955603e-49
6.2954383e-49
6.2953914e-49
6.2953759e-49
6.2953724e-49
6.2953749e-49
6.2953852e-49
6.2954174e-49
6.2961529e-49
6.2955603e-49
6.2952788e-49
6.2951568e-49
6.2951099e-49
6.2950945e-49
6.2950912e-49
6.2950943e-49
6.2951061e-49
6.2951406e-49
6.2960309e-49
6.2954383e-49
6.2951568e-49
6.2950348e-49
6.294988e-49
6.2949726e-49
6.2949694e-49
6.2949729e-49
6.2949853e-49
6.2950206e-49
6.295984e-49
6.2953914e-49
6.2951099e-49
6.294988e-49
6.2949412e-49
6.2949258e-49
6.2949227e-49
6.2949263e-49
6.2949389e-49
6.2949745e-49
6.2959683e-49
6.2953759e-49
6.2950945e-49
6.2949726e-49
6.2949258e-49
6.2949104e-49
6.2949073e-49
6.294911e-49
6.2949237e-49
6.2949593e-49
6.2959646e-49
6.2953724e-49
6.2950912e-49
6.2949694e-49
6.2949227e-49
6.2949073e-49
6.2949043e-49
6.294908e-49
6.2949207e-49
6.2949564e-49
6.2959663e-49
6.2953749e-49
6.2950943e-49
6.2949729e-49
6.2949263e-49
6.294911e-49
6.294908e-49
6.2949117e-49
6.2949244e-49
6.2949601e-49
6.2959743e-49
6.2953852e-49
6.2951061e-49
6.2949853e-49
6.2949389e-49
6.2949237e-49
6.2949207e-49
6.2949244e-49
6.2949372e-49
6.2949728e-49
6.295999e-49
6.2954174e-49
6.2951406e-49
6.2950206e-49
6.2949745e-49
6.2949593e-49
6.2949564e-49
6.2949601e-49
6.2949728e-49
6.2950084e-49
2.3221976e-48
2.3219854e-48
2.3218843e-48
2.3218404e-48
2.3218236e-48
2.3218179e-48
2.3218166e-48
2.3218172e-48
2.3218201e-48
2.3218287e-48
2.3219854e-48
2.3217734e-48
2.3216723e-48
2.3216284e-48
2.3216116e-48
2.321606e-48
2.3216047e-48
2.3216056e-48
2.3216093e-48
2.3216207e-48
2.3218843e-48
2.3216723e-48
2.3215712e-48
2.3215274e-48
2.3215105e-48
2.321505e-48
2.3215038e-48
2.3215049e-48
2.3215091e-48
2.3215213e-48
2.3218404e-48
2.3216284e-48
2.3215274e-48
2.3214835e-48
2.3214667e-48
2.3214611e-48
2.32146e-48
2.3214613e-48
2.3214657e-48
2.3214782e-48
2.3218236e-48
2.3216116e-48
2.3215105e-48
2.3214667e-48
2.3214498e-48
2.3214443e-48
2.3214432e-48
2.3214445e-48
2.321449e-48
2.3214616e-48
2.3218179e-48
2.321606e-48
2.321505e-48
2.3214611e-48
2.3214443e-48
2.3214388e-48
2.3214377e-48
2.321439e-48
2.3214436e-48
2.3214561e-48
2.3218166e-48
2.3216047e-48
2.3215038e-48
2.32146e-48
2.3214432e-48
2.3214377e-48
2.3214366e-48
2.3214379e-48
2.3214425e-48
2.3214551e-48
2.3218172e-48
2.3216056e-48
2.3215049e-48
2.3214613e-48
2.3214445e-48
2.321439e-48
2.3214379e-48
2.3214393e-48
2.3214438e-48
2.3214564e-48
2.3218201e-48
2.3216093e-48
2.3215091e-48
2.3214657e-48
2.321449e-48
2.3214436e-48
2.3214425e-48
2.3214438e-48
2.3214484e-48
2.321461e-48
2.3218287e-48
2.3216207e-48
2.3215213e-48
2.3214782e-48
2.3214616e-48
2.3214561e-48
2.3214551e-48
2.3214564e-48
2.321461e-48
2.3214736e-48
8.7325831e-48
8.7318096e-48
8.7314396e-48
8.7312788e-48
8.7312169e-48
8.7311963e-48
8.7311913e-48
8.7311936e-48
8.7312039e-48
8.7312347e-48
8.7318096e-48
8.7310364e-48
8.7306665e-48
8.7305057e-48
8.7304439e-48
8.7304233e-48
8.7304187e-48
8.7304221e-48
8.7304356e-48
8.7304764e-48
8.7314396e-48
8.7306665e-48
8.7302967e-48
8.7301359e-48
8.7300741e-48
8.7300537e-48
8.7300494e-48
8.7300536e-48
8.730069e-48
8.730113e-48
8.7312788e-48
8.7305057e-48
8.7301359e-48
8.7299752e-48
8.7299135e-48
8.7298931e-48
8.729889e-48
8.7298936e-48
8.7299099e-48
8.7299549e-48
8.7312169e-48
8.7304439e-48
8.7300741e-48
8.7299135e-48
8.7298517e-48
8.7298314e-48
8.7298274e-48
8.7298322e-48
8.7298488e-48
8.7298941e-48
8.7311963e-48
8.7304233e-48
8.7300537e-48
8.7298931e-48
8.7298314e-48
8.7298111e-48
8.7298071e-48
8.729812e-48
8.7298287e-48
8.7298741e-48
8.7311913e-48
8.7304187e-48
8.7300494e-48
8.729889e-48
8.7298274e-48
8.7298071e-48
8.7298032e-48
8.7298081e-48
8.7298248e-48
8.7298703e-48
8.7311936e-48
8.7304221e-48
8.7300536e-48
8.7298936e-48
8.7298322e-48
8.729812e-48
8.7298081e-48
8.729813e-48
8.7298298e-48
8.7298752e-48
8.7312039e-48
8.7304356e-48
8.730069e-48
8.7299099e-48
8.7298488e-48
8.7298287e-48
8.7298248e-48
8.7298298e-48
8.7298465e-48
8.729892e-48
8.7312347e-48
8.7304764e-48
8.730113e-48
8.7299549e-48
8.7298941e-48
8.7298741e-48
8.7298703e-48
8.7298752e-48
8.729892e-48
8.7299375e-48
3.3488227e-47
3.3485352e-47
3.3483972e-47
3.3483371e-47
3.348314e-47
3.3483063e-47
3.3483045e-47
3.3483053e-47
3.3483091e-47
3.3483203e-47
3.3485352e-47
3.3482478e-47
3.3481098e-47
3.3480498e-47
3.3480267e-47
3.348019e-47
3.3480173e-47
3.3480185e-47
3.3480236e-47
3.3480385e-47
3.3483972e-47
3.3481098e-47
3.3479719e-47
3.3479119e-47
3.3478888e-47
3.3478811e-47
3.3478795e-47
3.3478811e-47
3.3478869e-47
3.347903e-47
3.3483371e-47
3.3480498e-47
3.3479119e-47
3.3478519e-47
3.3478288e-47
3.3478212e-47
3.3478196e-47
3.3478214e-47
3.3478275e-47
3.347844e-47
3.348314e-47
3.3480267e-47
3.3478888e-47
3.3478288e-47
3.3478057e-47
3.3477981e-47
3.3477966e-47
3.3477984e-47
3.3478046e-47
3.3478213e-47
3.3483063e-47
3.348019e-47
3.3478811e-47
3.3478212e-47
3.3477981e-47
3.3477905e-47
3.347789e-47
3.3477909e-47
3.3477971e-47
3.3478138e-47
3.3483045e-47
3.3480173e-47
3.3478795e-47
3.3478196e-47
3.3477966e-47
3.347789e-47
3.3477876e-47
3.3477894e-47
3.3477957e-47
3.3478124e-47
3.3483053e-47
3.3480185e-47
3.3478811e-47
3.3478214e-47
3.3477984e-47
3.3477909e-47
3.3477894e-47
3.3477913e-47
3.3477975e-47
3.3478143e-47
3.3483091e-47
3.3480236e-47
3.3478869e-47
3.3478275e-47
3.3478046e-47
3.3477971e-47
3.3477957e-47
3.3477975e-47
3.3478038e-47
3.3478205e-47
3.3483203e-47
3.3480385e-47
3.347903e-47
3.347844e-47
3.3478213e-47
3.3478138e-47
3.3478124e-47
3.3478143e-47
3.3478205e-47
3.3478373e-47
1.3096803e-46
1.3095714e-46
1.3095189e-46
1.3094961e-46
1.3094873e-46
1.3094843e-46
1.3094836e-46
1.3094839e-46
1.3094854e-46
1.3094895e-46
1.3095714e-46
1.3094625e-46
1.30941e-46
1.3093872e-46
1.3093784e-46
1.3093755e-46
1.3093748e-46
1.3093753e-46
1.3093772e-46
1.3093828e-46
1.3095189e-46
1.30941e-46
1.3093576e-46
1.3093348e-46
1.309326e-46
1.3093231e-46
1.3093224e-46
1.3093231e-46
1.3093252e-46
1.3093313e-46
1.3094961e-46
1.3093872e-46
1.3093348e-46
1.3093119e-46
1.3093031e-46
1.3093002e-46
1.3092996e-46
1.3093003e-46
1.3093026e-46
1.3093088e-46
1.3094873e-46
1.3093784e-46
1.309326e-46
1.3093031e-46
1.3092943e-46
1.3092914e-46
1.3092909e-46
1.3092916e-46
1.3092939e-46
1.3093002e-46
1.3094843e-46
1.3093755e-46
1.3093231e-46
1.3093002e-46
1.3092914e-46
1.3092885e-46
1.309288e-46
1.3092887e-46
1.3092911e-46
1.3092973e-46
1.3094836e-46
1.3093748e-46
1.3093224e-46
1.3092996e-46
1.3092909e-46
1.309288e-46
1.3092874e-46
1.3092881e-46
1.3092905e-46
1.3092968e-46
1.3094839e-46
1.3093753e-46
1.3093231e-46
1.3093003e-46
1.3092916e-46
1.3092887e-46
1.3092881e-46
1.3092889e-46
1.3092912e-46
1.3092975e-46
1.3094854e-46
1.3093772e-46
1.3093252e-46
1.3093026e-46
1.3092939e-46
1.3092911e-46
1.3092905e-46
1.3092912e-46
1.3092936e-46
1.3092999e-46
1.3094895e-46
1.3093828e-46
1.3093313e-46
1.3093088e-46
1.3093002e-46
1.3092973e-46
1.3092968e-46
1.3092975e-46
1.3092999e-46
1.3093062e-46
5.2236622e-46
5.2232414e-46
5.2230382e-46
5.2229495e-46
5.2229153e-46
5.2229039e-46
5.2229011e-46
5.2229024e-46
5.222908e-46
5.2229236e-46
5.2232414e-46
5.2228208e-46
5.2226176e-46
5.2225289e-46
5.2224947e-46
5.2224834e-46
5.2224809e-46
5.2224827e-46
5.2224901e-46
5.2225115e-46
5.2230382e-46
5.2226176e-46
5.2224145e-46
5.2223258e-46
5.2222916e-46
5.2222803e-46
5.222278e-46
5.2222804e-46
5.2222888e-46
5.2223121e-46
5.2229495e-46
5.2225289e-46
5.2223258e-46
5.2222371e-46
5.222203e-46
5.2221917e-46
5.2221895e-46
5.2221921e-46
5.2222011e-46
5.2222249e-46
5.2229153e-46
5.2224947e-46
5.2222916e-46
5.222203e-46
5.2221689e-46
5.2221576e-46
5.2221554e-46
5.2221582e-46
5.2221673e-46
5.2221914e-46
5.2229039e-46
5.2224834e-46
5.2222803e-46
5.2221917e-46
5.2221576e-46
5.2221464e-46
5.2221442e-46
5.222147e-46
5.2221562e-46
5.2221803e-46
5.2229011e-46
5.2224809e-46
5.222278e-46
5.2221895e-46
5.2221554e-46
5.2221442e-46
5.2221421e-46
5.2221449e-46
5.2221541e-46
5.2221782e-46
5.2229024e-46
5.2224827e-46
5.2222804e-46
5.2221921e-46
5.2221582e-46
5.222147e-46
5.2221449e-46
5.2221477e-46
5.2221569e-46
5.222181e-46
5.222908e-46
5.2224901e-46
5.2222888e-46
5.2222011e-46
5.2221673e-46
5.2221562e-46
5.2221541e-46
5.2221569e-46
5.2221662e-46
5.2221903e-46
5.2229236e-46
5.2225115e-46
5.2223121e-46
5.2222249e-46
5.2221914e-46
5.2221803e-46
5.2221782e-46
5.222181e-46
5.2221903e-46
5.2222144e-46
2.1248561e-45
2.1246904e-45
2.1246101e-45
2.124575e-45
2.1245615e-45
2.124557e-45
2.1245559e-45
2.1245564e-45
2.1245586e-45
2.1245646e-45
2.1246904e-45
2.1245248e-45
2.1244445e-45
2.1244094e-45
2.1243959e-45
2.1243914e-45
2.1243904e-45
2.1243912e-45
2.1243941e-45
2.1244024e-45
2.1246101e-45
2.1244445e-45
2.1243643e-45
2.1243292e-45
2.1243157e-45
2.1243112e-45
2.1243103e-45
2.1243112e-45
2.1243146e-45
2.1243237e-45
2.124575e-45
2.1244094e-45
2.1243292e-45
2.1242941e-45
2.1242806e-45
2.1242762e-45
2.1242753e-45
2.1242763e-45
2.1242799e-45
2.1242892e-45
2.1245615e-45
2.1243959e-45
2.1243157e-45
2.1242806e-45
2.1242671e-45
2.1242627e-45
2.1242618e-45
2.1242629e-45
2.1242665e-45
2.1242759e-45
2.124557e-45
2.1243914e-45
2.1243112e-45
2.1242762e-45
2.1242627e-45
2.1242582e-45
2.1242574e-45
2.1242585e-45
2.1242621e-45
2.1242716e-45
2.1245559e-45
2.1243904e-45
2.1243103e-45
2.1242753e-45
2.1242618e-45
2.1242574e-45
2.1242565e-45
2.1242577e-45
2.1242613e-45
2.1242707e-45
2.1245564e-45
2.1243912e-45
2.1243112e-45
2.1242763e-45
2.1242629e-45
2.1242585e-45
2.1242577e-45
2.1242588e-45
2.1242624e-45
2.1242719e-45
2.1245586e-45
2.1243941e-45
2.1243146e-45
2.1242799e-45
2.1242665e-45
2.1242621e-45
2.1242613e-45
2.1242624e-45
2.1242661e-45
2.1242755e-45
2.1245646e-45
2.1244024e-45
2.1243237e-45
2.1242892e-45
2.1242759e-45
2.1242716e-45
2.1242707e-45
2.1242719e-45
2.1242755e-45
2.1242849e-45
8.8151863e-45
8.8145213e-45
8.8141982e-45
8.8140567e-45
8.8140021e-45
8.8139839e-45
8.8139796e-45
8.8139817e-45
8.8139904e-45
8.8140141e-45
8.8145213e-45
8.8138566e-45
8.8135335e-45
8.8133921e-45
8.8133376e-45
8.8133194e-45
8.8133154e-45
8.8133185e-45
8.8133302e-45
8.8133634e-45
8.8141982e-45
8.8135335e-45
8.8132105e-45
8.8130691e-45
8.8130146e-45
8.8129966e-45
8.8129929e-45
8.8129968e-45
8.8130103e-45
8.8130465e-45
8.8140567e-45
8.8133921e-45
8.8130691e-45
8.8129278e-45
8.8128733e-45
8.8128553e-45
8.8128518e-45
8.8128561e-45
8.8128705e-45
8.8129076e-45
8.8140021e-45
8.8133376e-45
8.8130146e-45
8.8128733e-45
8.8128188e-45
8.8128009e-45
8.8127975e-45
8.8128019e-45
8.8128166e-45
8.812854e-45
8.8139839e-45
8.8133194e-45
8.8129966e-45
8.8128553e-45
8.8128009e-45
8.812783e-45
8.8127796e-45
8.8127841e-45
8.8127989e-45
8.8128364e-45
8.8139796e-45
8.8133154e-45
8.8129929e-45
8.8128518e-45
8.8127975e-45
8.8127796e-45
8.8127762e-45
8.8127808e-45
8.8127956e-45
8.8128331e-45
8.8139817e-45
8.8133185e-45
8.8129968e-45
8.8128561e-45
8.8128019e-45
8.8127841e-45
8.8127808e-45
8.8127853e-45
8.8128001e-45
8.8128377e-45
8.8139904e-45
8.8133302e-45
8.8130103e-45
8.8128705e-45
8.8128166e-45
8.8127989e-45
8.8127956e-45
8.8128001e-45
8.8128149e-45
8.8128525e-45
8.8140141e-45
8.8133634e-45
8.8130465e-45
8.8129076e-45
8.812854e-45
8.8128364e-45
8.8128331e-45
8.8128377e-45
8.8128525e-45
8.8128901e-45
3.7297406e-44
3.7294685e-44
3.7293359e-44
3.7292778e-44
3.7292554e-44
3.7292479e-44
3.7292461e-44
3.729247e-44
3.7292506e-44
3.72926e-44
3.7294685e-44
3.7291966e-44
3.729064e-44
3.7290059e-44
3.7289835e-44
3.728976e-44
3.7289744e-44
3.7289757e-44
3.7289805e-44
3.7289939e-44
3.7293359e-44
3.729064e-44
3.7289315e-44
3.7288734e-44
3.728851e-44
3.7288436e-44
3.7288421e-44
3.7288437e-44
3.7288492e-44
3.7288639e-44
3.7292778e-44
3.7290059e-44
3.7288734e-44
3.7288153e-44
3.7287929e-44
3.7287855e-44
3.7287841e-44
3.7287859e-44
3.7287918e-44
3.7288069e-44
3.7292554e-44
3.7289835e-44
3.728851e-44
3.7287929e-44
3.7287705e-44
3.7287632e-44
3.7287618e-44
3.7287636e-44
3.7287697e-44
3.7287849e-44
3.7292479e-44
3.728976e-44
3.7288436e-44
3.7287855e-44
3.7287632e-44
3.7287558e-44
3.7287544e-44
3.7287563e-44
3.7287624e-44
3.7287777e-44
3.7292461e-44
3.7289744e-44
3.7288421e-44
3.7287841e-44
3.7287618e-44
3.7287544e-44
3.728753e-44
3.7287549e-44
3.728761e-44
3.7287763e-44
3.729247e-44
3.7289757e-44
3.7288437e-44
3.7287859e-44
3.7287636e-44
3.7287563e-44
3.7287549e-44
3.7287568e-44
3.7287629e-44
3.7287782e-44
3.7292506e-44
3.7289805e-44
3.7288492e-44
3.7287918e-44
3.7287697e-44
3.7287624e-44
3.728761e-44
3.7287629e-44
3.728769e-44
3.7287843e-44
3.72926e-44
3.7289939e-44
3.7288639e-44
3.7288069e-44
3.7287849e-44
3.7287777e-44
3.7287763e-44
3.7287782e-44
3.7287843e-44
3.7287996e-44
1.6093962e-43
1.6092828e-43
1.6092273e-43
1.609203e-43
1.6091936e-43
1.6091904e-43
1.6091897e-43
1.6091901e-43
1.6091916e-43
1.6091954e-43
1.6092828e-43
1.6091694e-43
1.6091139e-43
1.6090896e-43
1.6090802e-43
1.6090771e-43
1.6090764e-43
1.6090769e-43
1.609079e-43
1.6090845e-43
1.6092273e-43
1.6091139e-43
1.6090585e-43
1.6090342e-43
1.6090248e-43
1.6090217e-43
1.609021e-43
1.6090217e-43
1.6090241e-43
1.6090302e-43
1.609203e-43
1.6090896e-43
1.6090342e-43
1.6090099e-43
1.6090005e-43
1.6089974e-43
1.6089968e-43
1.6089975e-43
1.609e-43
1.6090063e-43
1.6091936e-43
1.6090802e-43
1.6090248e-43
1.6090005e-43
1.6089911e-43
1.608988e-43
1.6089874e-43
1.6089882e-43
1.6089907e-43
1.6089971e-43
1.6091904e-43
1.6090771e-43
1.6090217e-43
1.6089974e-43
1.608988e-43
1.6089849e-43
1.6089843e-43
1.6089851e-43
1.6089877e-43
1.608994e-43
1.6091897e-43
1.6090764e-43
1.609021e-43
1.6089968e-43
1.6089874e-43
1.6089843e-43
1.6089838e-43
1.6089846e-43
1.6089871e-43
1.6089935e-43
1.6091901e-43
1.6090769e-43
1.6090217e-43
1.6089975e-43
1.6089882e-43
1.6089851e-43
1.6089846e-43
1.6089854e-43
1.6089879e-43
1.6089943e-43
1.6091916e-43
1.609079e-43
1.6090241e-43
1.609e-43
1.6089907e-43
1.6089877e-43
1.6089871e-43
1.6089879e-43
1.6089905e-43
1.6089969e-43
1.6091954e-43
1.6090845e-43
1.6090302e-43
1.6090063e-43
1.6089971e-43
1.608994e-43
1.6089935e-43
1.6089943e-43
1.6089969e-43
1.6090032e-43
7.0822436e-43
7.0817613e-43
7.0815249e-43
7.0814211e-43
7.0813809e-43
7.0813675e-43
7.0813644e-43
7.0813659e-43
7.0813723e-43
7.0813885e-43
7.0817613e-43
7.0812793e-43
7.081043e-43
7.0809391e-43
7.080899e-43
7.0808857e-43
7.0808827e-43
7.0808851e-43
7.0808937e-43
7.0809172e-43
7.0815249e-43
7.081043e-43
7.0808067e-43
7.0807029e-43
7.0806628e-43
7.0806495e-43
7.0806468e-43
7.0806498e-43
7.0806598e-43
7.0806856e-43
7.0814211e-43
7.0809391e-43
7.0807029e-43
7.0805991e-43
7.080559e-43
7.0805458e-43
7.0805432e-43
7.0805465e-43
7.0805572e-43
7.0805837e-43
7.0813809e-43
7.080899e-43
7.0806628e-43
7.080559e-43
7.0805189e-43
7.0805057e-43
7.0805033e-43
7.0805067e-43
7.0805176e-43
7.0805444e-43
7.0813675e-43
7.0808857e-43
7.0806495e-43
7.0805458e-43
7.0805057e-43
7.0804926e-43
7.0804901e-43
7.0804936e-43
7.0805046e-43
7.0805314e-43
7.0813644e-43
7.0808827e-43
7.0806468e-43
7.0805432e-43
7.0805033e-43
7.0804901e-43
7.0804877e-43
7.0804912e-43
7.0805022e-43
7.0805291e-43
7.0813659e-43
7.0808851e-43
7.0806498e-43
7.0805465e-43
7.0805067e-43
7.0804936e-43
7.0804912e-43
7.0804947e-43
7.0805057e-43
7.0805326e-43
7.0813723e-43
7.0808937e-43
7.0806598e-43
7.0805572e-43
7.0805176e-43
7.0805046e-43
7.0805022e-43
7.0805057e-43
7.0805166e-43
7.0805435e-43
7.0813885e-43
7.0809172e-43
7.0806856e-43
7.0805837e-43
7.0805444e-43
7.0805314e-43
7.0805291e-43
7.0805326e-43
7.0805435e-43
7.0805705e-43
3.1782097e-42
3.1780008e-42
3.1778981e-42
3.1778529e-42
3.1778355e-42
3.1778296e-42
3.1778283e-42
3.177829e-42
3.1778317e-42
3.1778386e-42
3.1780008e-42
3.177792e-42
3.1776893e-42
3.1776442e-42
3.1776267e-42
3.1776209e-42
3.1776196e-42
3.1776207e-42
3.1776244e-42
3.1776345e-42
3.1778981e-42
3.1776893e-42
3.1775867e-42
3.1775415e-42
3.1775241e-42
3.1775183e-42
3.1775172e-42
3.1775184e-42
3.1775228e-42
3.177534e-42
3.1778529e-42
3.1776442e-42
3.1775415e-42
3.1774964e-42
3.1774789e-42
3.1774732e-42
3.1774721e-42
3.1774735e-42
3.1774782e-42
3.1774897e-42
3.1778355e-42
3.1776267e-42
3.1775241e-42
3.1774789e-42
3.1774615e-42
3.1774558e-42
3.1774547e-42
3.1774562e-42
3.177461e-42
3.1774726e-42
3.1778296e-42
3.1776209e-42
3.1775183e-42
3.1774732e-42
3.1774558e-42
3.17745e-42
3.177449e-42
3.1774505e-42
3.1774553e-42
3.1774669e-42
3.1778283e-42
3.1776196e-42
3.1775172e-42
3.1774721e-42
3.1774547e-42
3.177449e-42
3.1774479e-42
3.1774495e-42
3.1774543e-42
3.1774659e-42
3.177829e-42
3.1776207e-42
3.1775184e-42
3.1774735e-42
3.1774562e-42
3.1774505e-42
3.1774495e-42
3.177451e-42
3.1774558e-42
3.1774674e-42
3.1778317e-42
3.1776244e-42
3.1775228e-42
3.1774782e-42
3.177461e-42
3.1774553e-42
3.1774543e-42
3.1774558e-42
3.1774606e-42
3.1774723e-42
3.1778386e-42
3.1776345e-42
3.177534e-42
3.1774897e-42
3.1774726e-42
3.1774669e-42
3.1774659e-42
3.1774674e-42
3.1774723e-42
3.1774839e-42
1.4543606e-41
1.4542683e-41
1.4542229e-41
1.4542029e-41
1.4541951e-41
1.4541925e-41
1.4541919e-41
1.4541922e-41
1.4541934e-41
1.4541964e-41
1.4542683e-41
1.4541761e-41
1.4541307e-41
1.4541107e-41
1.4541029e-41
1.4541004e-41
1.4540998e-41
1.4541003e-41
1.4541019e-41
1.4541064e-41
1.4542229e-41
1.4541307e-41
1.4540853e-41
1.4540653e-41
1.4540575e-41
1.454055e-41
1.4540544e-41
1.454055e-41
1.454057e-41
1.4540619e-41
1.4542029e-41
1.4541107e-41
1.4540653e-41
1.4540453e-41
1.4540375e-41
1.454035e-41
1.4540345e-41
1.4540351e-41
1.4540372e-41
1.4540423e-41
1.4541951e-41
1.4541029e-41
1.4540575e-41
1.4540375e-41
1.4540298e-41
1.4540272e-41
1.4540268e-41
1.4540274e-41
1.4540296e-41
1.4540347e-41
1.4541925e-41
1.4541004e-41
1.454055e-41
1.454035e-41
1.4540272e-41
1.4540247e-41
1.4540242e-41
1.4540249e-41
1.4540271e-41
1.4540322e-41
1.4541919e-41
1.4540998e-41
1.4540544e-41
1.4540345e-41
1.4540268e-41
1.4540242e-41
1.4540238e-41
1.4540245e-41
1.4540266e-41
1.4540317e-41
1.4541922e-41
1.4541003e-41
1.454055e-41
1.4540351e-41
1.4540274e-41
1.4540249e-41
1.4540245e-41
1.4540252e-41
1.4540273e-41
1.4540324e-41
1.4541934e-41
1.4541019e-41
1.454057e-41
1.4540372e-41
1.4540296e-41
1.4540271e-41
1.4540266e-41
1.4540273e-41
1.4540294e-41
1.4540346e-41
1.4541964e-41
1.4541064e-41
1.4540619e-41
1.4540423e-41
1.4540347e-41
1.4540322e-41
1.4540317e-41
1.4540324e-41
1.4540346e-41
1.4540397e-41
6.7858924e-41
6.7854775e-41
6.7852725e-41
6.7851821e-41
6.7851471e-41
6.7851354e-41
6.7851327e-41
6.7851341e-41
6.7851396e-41
6.7851529e-41
6.7854775e-41
6.7850628e-41
6.7848579e-41
6.7847675e-41
6.7847325e-41
6.7847209e-41
6.7847184e-41
6.7847205e-41
6.7847281e-41
6.784748e-41
6.7852725e-41
6.7848579e-41
6.7846529e-41
6.7845626e-41
6.7845276e-41
6.7845161e-41
6.7845138e-41
6.7845164e-41
6.7845253e-41
6.7845474e-41
6.7851821e-41
6.7847675e-41
6.7845626e-41
6.7844723e-41
6.7844373e-41
6.7844258e-41
6.7844236e-41
6.7844266e-41
6.784436e-41
6.7844588e-41
6.7851471e-41
6.7847325e-41
6.7845276e-41
6.7844373e-41
6.7844024e-41
6.7843909e-41
6.7843888e-41
6.7843919e-41
6.7844015e-41
6.7844245e-41
6.7851354e-41
6.7847209e-41
6.7845161e-41
6.7844258e-41
6.7843909e-41
6.7843794e-41
6.7843773e-41
6.7843805e-41
6.7843902e-41
6.7844132e-41
6.7851327e-41
6.7847184e-41
6.7845138e-41
6.7844236e-41
6.7843888e-41
6.7843773e-41
6.7843753e-41
6.7843784e-41
6.7843882e-41
6.7844112e-41
6.7851341e-41
6.7847205e-41
6.7845164e-41
6.7844266e-41
6.7843919e-41
6.7843805e-41
6.7843784e-41
6.7843816e-41
6.7843913e-41
6.7844144e-41
6.7851396e-41
6.7847281e-41
6.7845253e-41
6.784436e-41
6.7844015e-41
6.7843902e-41
6.7843882e-41
6.7843913e-41
6.7844011e-41
6.7844241e-41
6.7851529e-41
6.784748e-41
6.7845474e-41
6.7844588e-41
6.7844245e-41
6.7844132e-41
6.7844112e-41
6.7844144e-41
6.7844241e-41
6.7844472e-41
3.2281067e-40
3.2279166e-40
3.2278224e-40
3.2277808e-40
3.2277647e-40
3.2277593e-40
3.227758e-40
3.2277587e-40
3.2277612e-40
3.2277672e-40
3.2279166e-40
3.2277265e-40
3.2276323e-40
3.2275907e-40
3.2275746e-40
3.2275693e-40
3.2275681e-40
3.2275691e-40
3.2275726e-40
3.2275817e-40
3.2278224e-40
3.2276323e-40
3.2275381e-40
3.2274966e-40
3.2274805e-40
3.2274751e-40
3.2274741e-40
3.2274753e-40
3.2274795e-40
3.2274896e-40
3.2277808e-40
3.2275907e-40
3.2274966e-40
3.227455e-40
3.2274389e-40
3.2274336e-40
3.2274326e-40
3.227434e-40
3.2274384e-40
3.2274488e-40
3.2277647e-40
3.2275746e-40
3.2274805e-40
3.2274389e-40
3.2274228e-40
3.2274175e-40
3.2274166e-40
3.227418e-40
3.2274225e-40
3.227433e-40
3.2277593e-40
3.2275693e-40
3.2274751e-40
3.2274336e-40
3.2274175e-40
3.2274123e-40
3.2274113e-40
3.2274128e-40
3.2274173e-40
3.2274279e-40
3.227758e-40
3.2275681e-40
3.2274741e-40
3.2274326e-40
3.2274166e-40
3.2274113e-40
3.2274104e-40
3.2274119e-40
3.2274164e-40
3.2274269e-40
3.2277587e-40
3.2275691e-40
3.2274753e-40
3.227434e-40
3.227418e-40
3.2274128e-40
3.2274119e-40
3.2274133e-40
3.2274179e-40
3.2274284e-40
3.2277612e-40
3.2275726e-40
3.2274795e-40
3.2274384e-40
3.2274225e-40
3.2274173e-40
3.2274164e-40
3.2274179e-40
3.2274224e-40
3.2274329e-40
3.2277672e-40
3.2275817e-40
3.2274896e-40
3.2274488e-40
3.227433e-40
3.2274279e-40
3.2274269e-40
3.2274284e-40
3.2274329e-40
3.2274435e-40
1.5654831e-39
1.5653943e-39
1.5653503e-39
1.5653308e-39
1.5653232e-39
1.5653207e-39
1.5653201e-39
1.5653204e-39
1.5653216e-39
1.5653244e-39
1.5653943e-39
1.5653056e-39
1.5652615e-39
1.565242e-39
1.5652345e-39
1.565232e-39
1.5652314e-39
1.5652319e-39
1.5652335e-39
1.5652378e-39
1.5653503e-39
1.5652615e-39
1.5652174e-39
1.5651979e-39
1.5651904e-39
1.5651879e-39
1.5651874e-39
1.565188e-39
1.5651899e-39
1.5651947e-39
1.5653308e-39
1.565242e-39
1.5651979e-39
1.5651785e-39
1.5651709e-39
1.5651684e-39
1.565168e-39
1.5651686e-39
1.5651707e-39
1.5651756e-39
1.5653232e-39
1.5652345e-39
1.5651904e-39
1.5651709e-39
1.5651634e-39
1.5651609e-39
1.5651605e-39
1.5651611e-39
1.5651633e-39
1.5651682e-39
1.5653207e-39
1.565232e-39
1.5651879e-39
1.5651684e-39
1.5651609e-39
1.5651584e-39
1.565158e-39
1.5651587e-39
1.5651608e-39
1.5651658e-39
1.5653201e-39
1.5652314e-39
1.5651874e-39
1.565168e-39
1.5651605e-39
1.565158e-39
1.5651576e-39
1.5651583e-39
1.5651604e-39
1.5651653e-39
1.5653204e-39
1.5652319e-39
1.565188e-39
1.5651686e-39
1.5651611e-39
1.5651587e-39
1.5651583e-39
1.565159e-39
1.5651611e-39
1.565166e-39
1.5653216e-39
1.5652335e-39
1.5651899e-39
1.5651707e-39
1.5651633e-39
1.5651608e-39
1.5651604e-39
1.5651611e-39
1.5651632e-39
1.5651682e-39
1.5653244e-39
1.5652378e-39
1.5651947e-39
1.5651756e-39
1.5651682e-39
1.5651658e-39
1.5651653e-39
1.565166e-39
1.5651682e-39
1.5651731e-39
7.7384617e-39
7.7380393e-39
7.7378291e-39
7.7377361e-39
7.7377e-39
7.7376879e-39
7.7376852e-39
7.7376867e-39
7.7376923e-39
7.7377053e-39
7.7380393e-39
7.7376171e-39
7.737407e-39
7.737314e-39
7.7372779e-39
7.7372659e-39
7.7372634e-39
7.7372657e-39
7.7372736e-39
7.7372938e-39
7.7378291e-39
7.737407e-39
7.7371968e-39
7.7371038e-39
7.7370678e-39
7.7370559e-39
7.7370536e-39
7.7370565e-39
7.7370658e-39
7.7370883e-39
7.7377361e-39
7.737314e-39
7.7371038e-39
7.7370109e-39
7.7369748e-39
7.736963e-39
7.7369608e-39
7.736964e-39
7.736974e-39
7.7369972e-39
7.7377e-39
7.7372779e-39
7.7370678e-39
7.7369748e-39
7.7369388e-39
7.736927e-39
7.7369249e-39
7.7369283e-39
7.7369384e-39
7.7369619e-39
7.7376879e-39
7.7372659e-39
7.7370559e-39
7.736963e-39
7.736927e-39
7.7369152e-39
7.7369131e-39
7.7369165e-39
7.7369268e-39
7.7369503e-39
7.7376852e-39
7.7372634e-39
7.7370536e-39
7.7369608e-39
7.7369249e-39
7.7369131e-39
7.7369111e-39
7.7369145e-39
7.7369247e-39
7.7369483e-39
7.7376867e-39
7.7372657e-39
7.7370565e-39
7.736964e-39
7.7369283e-39
7.7369165e-39
7.7369145e-39
7.7369179e-39
7.7369282e-39
7.7369517e-39
7.7376923e-39
7.7372736e-39
7.7370658e-39
7.736974e-39
7.7369384e-39
7.7369268e-39
7.7369247e-39
7.7369282e-39
7.7369385e-39
7.736962e-39
7.7377053e-39
7.7372938e-39
7.7370883e-39
7.7369972e-39
7.7369619e-39
7.7369503e-39
7.7369483e-39