/*--------------------------------*- C++ -*----------------------------------*\
| =========                 |                                                 |
| \\      /  F ield         | OpenFOAM: The Open Source CFD Toolbox           |
|  \\    /   O peration     | Version:  dev                                   |
|   \\  /    A nd           | Web:      www.OpenFOAM.org                      |
|    \\/     M anipulation  |                                                 |
\*---------------------------------------------------------------------------*/
FoamFile
{
    version     2.0;
    format      ascii;
    class       volScalarField;
    location    "22";
    object      A_0;
}
// * * * * * * * * * * * * * * * * * * * * * * * * * * * * * * * * * * * * * //

dimensions      [0 0 0 0 1 0 0];

internalField   nonuniform List<scalar> 
10000
(
2.8838726e-51
2.883567e-51
2.8834254e-51
2.8833644e-51
2.8833411e-51
2.8833333e-51
2.8833314e-51
2.8833323e-51
2.8833364e-51
2.8833491e-51
2.883567e-51
2.8832615e-51
2.8831199e-51
2.883059e-51
2.8830356e-51
2.8830279e-51
2.8830261e-51
2.8830274e-51
2.8830326e-51
2.8830489e-51
2.8834254e-51
2.8831199e-51
2.8829784e-51
2.8829175e-51
2.8828941e-51
2.8828864e-51
2.8828848e-51
2.8828863e-51
2.8828923e-51
2.8829096e-51
2.8833644e-51
2.883059e-51
2.8829175e-51
2.8828566e-51
2.8828332e-51
2.8828255e-51
2.882824e-51
2.8828257e-51
2.8828319e-51
2.8828496e-51
2.8833411e-51
2.8830356e-51
2.8828941e-51
2.8828332e-51
2.8828099e-51
2.8828022e-51
2.8828007e-51
2.8828025e-51
2.8828088e-51
2.8828267e-51
2.8833333e-51
2.8830279e-51
2.8828864e-51
2.8828255e-51
2.8828022e-51
2.8827946e-51
2.882793e-51
2.8827948e-51
2.8828012e-51
2.8828191e-51
2.8833314e-51
2.8830261e-51
2.8828848e-51
2.882824e-51
2.8828007e-51
2.882793e-51
2.8827915e-51
2.8827933e-51
2.8827997e-51
2.8828176e-51
2.8833323e-51
2.8830274e-51
2.8828863e-51
2.8828257e-51
2.8828025e-51
2.8827948e-51
2.8827933e-51
2.8827951e-51
2.8828015e-51
2.8828194e-51
2.8833364e-51
2.8830326e-51
2.8828923e-51
2.8828319e-51
2.8828088e-51
2.8828012e-51
2.8827997e-51
2.8828015e-51
2.8828079e-51
2.8828258e-51
2.8833491e-51
2.8830489e-51
2.8829096e-51
2.8828496e-51
2.8828267e-51
2.8828191e-51
2.8828176e-51
2.8828194e-51
2.8828258e-51
2.8828437e-51
1.3585807e-50
1.358441e-50
1.3583754e-50
1.3583471e-50
1.3583363e-50
1.3583326e-50
1.3583318e-50
1.3583322e-50
1.3583341e-50
1.3583402e-50
1.358441e-50
1.3583013e-50
1.3582357e-50
1.3582074e-50
1.3581966e-50
1.358193e-50
1.3581922e-50
1.3581927e-50
1.3581952e-50
1.3582029e-50
1.3583754e-50
1.3582357e-50
1.3581701e-50
1.3581419e-50
1.358131e-50
1.3581275e-50
1.3581267e-50
1.3581274e-50
1.3581302e-50
1.3581385e-50
1.3583471e-50
1.3582074e-50
1.3581419e-50
1.3581136e-50
1.3581028e-50
1.3580992e-50
1.3580985e-50
1.3580993e-50
1.3581022e-50
1.3581106e-50
1.3583363e-50
1.3581966e-50
1.358131e-50
1.3581028e-50
1.358092e-50
1.3580884e-50
1.3580877e-50
1.3580885e-50
1.3580914e-50
1.3581e-50
1.3583326e-50
1.358193e-50
1.3581275e-50
1.3580992e-50
1.3580884e-50
1.3580848e-50
1.3580841e-50
1.358085e-50
1.3580879e-50
1.3580964e-50
1.3583318e-50
1.3581922e-50
1.3581267e-50
1.3580985e-50
1.3580877e-50
1.3580841e-50
1.3580834e-50
1.3580843e-50
1.3580872e-50
1.3580958e-50
1.3583322e-50
1.3581927e-50
1.3581274e-50
1.3580993e-50
1.3580885e-50
1.358085e-50
1.3580843e-50
1.3580851e-50
1.3580881e-50
1.3580966e-50
1.3583341e-50
1.3581952e-50
1.3581302e-50
1.3581022e-50
1.3580914e-50
1.3580879e-50
1.3580872e-50
1.3580881e-50
1.358091e-50
1.3580996e-50
1.3583402e-50
1.3582029e-50
1.3581385e-50
1.3581106e-50
1.3581e-50
1.3580964e-50
1.3580958e-50
1.3580966e-50
1.3580996e-50
1.3581081e-50
4.837602e-50
4.8371184e-50
4.8368904e-50
4.8367919e-50
4.8367541e-50
4.8367415e-50
4.8367385e-50
4.8367399e-50
4.8367464e-50
4.8367676e-50
4.8371184e-50
4.836635e-50
4.8364071e-50
4.8363086e-50
4.8362708e-50
4.8362583e-50
4.8362555e-50
4.8362575e-50
4.8362659e-50
4.8362929e-50
4.8368904e-50
4.8364071e-50
4.8361791e-50
4.8360807e-50
4.836043e-50
4.8360305e-50
4.8360278e-50
4.8360303e-50
4.8360399e-50
4.8360687e-50
4.8367919e-50
4.8363086e-50
4.8360807e-50
4.8359823e-50
4.8359445e-50
4.8359321e-50
4.8359296e-50
4.8359323e-50
4.8359424e-50
4.8359718e-50
4.8367541e-50
4.8362708e-50
4.836043e-50
4.8359445e-50
4.8359068e-50
4.8358944e-50
4.8358919e-50
4.8358948e-50
4.835905e-50
4.8359347e-50
4.8367415e-50
4.8362583e-50
4.8360305e-50
4.8359321e-50
4.8358944e-50
4.835882e-50
4.8358796e-50
4.8358825e-50
4.8358928e-50
4.8359224e-50
4.8367385e-50
4.8362555e-50
4.8360278e-50
4.8359296e-50
4.8358919e-50
4.8358796e-50
4.8358771e-50
4.83588e-50
4.8358903e-50
4.83592e-50
4.8367399e-50
4.8362575e-50
4.8360303e-50
4.8359323e-50
4.8358948e-50
4.8358825e-50
4.83588e-50
4.835883e-50
4.8358933e-50
4.835923e-50
4.8367464e-50
4.8362659e-50
4.8360399e-50
4.8359424e-50
4.835905e-50
4.8358928e-50
4.8358903e-50
4.8358933e-50
4.8359036e-50
4.8359333e-50
4.8367676e-50
4.8362929e-50
4.8360687e-50
4.8359718e-50
4.8359347e-50
4.8359224e-50
4.83592e-50
4.835923e-50
4.8359333e-50
4.835963e-50
1.7193433e-49
1.7191764e-49
1.7190974e-49
1.7190633e-49
1.7190501e-49
1.7190458e-49
1.7190447e-49
1.7190452e-49
1.7190475e-49
1.7190546e-49
1.7191764e-49
1.7190096e-49
1.7189306e-49
1.7188965e-49
1.7188834e-49
1.718879e-49
1.718878e-49
1.7188787e-49
1.7188816e-49
1.7188908e-49
1.7190974e-49
1.7189306e-49
1.7188517e-49
1.7188175e-49
1.7188044e-49
1.7188001e-49
1.7187992e-49
1.7188001e-49
1.7188034e-49
1.7188132e-49
1.7190633e-49
1.7188965e-49
1.7188175e-49
1.7187834e-49
1.7187703e-49
1.718766e-49
1.7187651e-49
1.7187661e-49
1.7187695e-49
1.7187796e-49
1.7190501e-49
1.7188834e-49
1.7188044e-49
1.7187703e-49
1.7187572e-49
1.7187529e-49
1.718752e-49
1.718753e-49
1.7187566e-49
1.7187667e-49
1.7190458e-49
1.718879e-49
1.7188001e-49
1.718766e-49
1.7187529e-49
1.7187486e-49
1.7187477e-49
1.7187487e-49
1.7187523e-49
1.7187624e-49
1.7190447e-49
1.718878e-49
1.7187992e-49
1.7187651e-49
1.718752e-49
1.7187477e-49
1.7187469e-49
1.7187479e-49
1.7187515e-49
1.7187616e-49
1.7190452e-49
1.7188787e-49
1.7188001e-49
1.7187661e-49
1.718753e-49
1.7187487e-49
1.7187479e-49
1.7187489e-49
1.7187525e-49
1.7187626e-49
1.7190475e-49
1.7188816e-49
1.7188034e-49
1.7187695e-49
1.7187566e-49
1.7187523e-49
1.7187515e-49
1.7187525e-49
1.7187561e-49
1.7187662e-49
1.7190546e-49
1.7188908e-49
1.7188132e-49
1.7187796e-49
1.7187667e-49
1.7187624e-49
1.7187616e-49
1.7187626e-49
1.7187662e-49
1.7187764e-49
6.2200004e-49
6.2194145e-49
6.2191362e-49
6.2190156e-49
6.2189693e-49
6.2189538e-49
6.2189501e-49
6.2189518e-49
6.2189597e-49
6.2189842e-49
6.2194145e-49
6.2188289e-49
6.2185506e-49
6.2184301e-49
6.2183838e-49
6.2183684e-49
6.2183649e-49
6.2183674e-49
6.2183776e-49
6.2184094e-49
6.2191362e-49
6.2185506e-49
6.2182724e-49
6.2181519e-49
6.2181056e-49
6.2180903e-49
6.2180871e-49
6.2180902e-49
6.2181018e-49
6.2181359e-49
6.2190156e-49
6.2184301e-49
6.2181519e-49
6.2180314e-49
6.2179852e-49
6.2179699e-49
6.2179668e-49
6.2179702e-49
6.2179825e-49
6.2180173e-49
6.2189693e-49
6.2183838e-49
6.2181056e-49
6.2179852e-49
6.2179389e-49
6.2179237e-49
6.2179207e-49
6.2179242e-49
6.2179367e-49
6.2179718e-49
6.2189538e-49
6.2183684e-49
6.2180903e-49
6.2179699e-49
6.2179237e-49
6.2179085e-49
6.2179055e-49
6.2179091e-49
6.2179217e-49
6.2179568e-49
6.2189501e-49
6.2183649e-49
6.2180871e-49
6.2179668e-49
6.2179207e-49
6.2179055e-49
6.2179025e-49
6.2179062e-49
6.2179187e-49
6.2179539e-49
6.2189518e-49
6.2183674e-49
6.2180902e-49
6.2179702e-49
6.2179242e-49
6.2179091e-49
6.2179062e-49
6.2179098e-49
6.2179224e-49
6.2179576e-49
6.2189597e-49
6.2183776e-49
6.2181018e-49
6.2179825e-49
6.2179367e-49
6.2179217e-49
6.2179187e-49
6.2179224e-49
6.217935e-49
6.2179702e-49
6.2189842e-49
6.2184094e-49
6.2181359e-49
6.2180173e-49
6.2179718e-49
6.2179568e-49
6.2179539e-49
6.2179576e-49
6.2179702e-49
6.2180054e-49
2.2941436e-48
2.293934e-48
2.293834e-48
2.2937907e-48
2.293774e-48
2.2937684e-48
2.2937671e-48
2.2937677e-48
2.2937705e-48
2.2937791e-48
2.293934e-48
2.2937244e-48
2.2936245e-48
2.2935812e-48
2.2935645e-48
2.293559e-48
2.2935577e-48
2.2935586e-48
2.2935623e-48
2.2935735e-48
2.293834e-48
2.2936245e-48
2.2935246e-48
2.2934813e-48
2.2934646e-48
2.2934591e-48
2.293458e-48
2.2934591e-48
2.2934633e-48
2.2934753e-48
2.2937907e-48
2.2935812e-48
2.2934813e-48
2.293438e-48
2.2934213e-48
2.2934158e-48
2.2934147e-48
2.293416e-48
2.2934203e-48
2.2934327e-48
2.293774e-48
2.2935645e-48
2.2934646e-48
2.2934213e-48
2.2934047e-48
2.2933992e-48
2.2933981e-48
2.2933994e-48
2.2934039e-48
2.2934163e-48
2.2937684e-48
2.293559e-48
2.2934591e-48
2.2934158e-48
2.2933992e-48
2.2933937e-48
2.2933927e-48
2.293394e-48
2.2933985e-48
2.2934109e-48
2.2937671e-48
2.2935577e-48
2.293458e-48
2.2934147e-48
2.2933981e-48
2.2933927e-48
2.2933916e-48
2.2933929e-48
2.2933974e-48
2.2934099e-48
2.2937677e-48
2.2935586e-48
2.2934591e-48
2.293416e-48
2.2933994e-48
2.293394e-48
2.2933929e-48
2.2933942e-48
2.2933987e-48
2.2934112e-48
2.2937705e-48
2.2935623e-48
2.2934633e-48
2.2934203e-48
2.2934039e-48
2.2933985e-48
2.2933974e-48
2.2933987e-48
2.2934033e-48
2.2934157e-48
2.2937791e-48
2.2935735e-48
2.2934753e-48
2.2934327e-48
2.2934163e-48
2.2934109e-48
2.2934099e-48
2.2934112e-48
2.2934157e-48
2.2934282e-48
8.6284238e-48
8.6276592e-48
8.6272935e-48
8.6271346e-48
8.6270734e-48
8.627053e-48
8.6270482e-48
8.6270504e-48
8.6270606e-48
8.627091e-48
8.6276592e-48
8.6268949e-48
8.6265293e-48
8.6263705e-48
8.6263094e-48
8.6262891e-48
8.6262845e-48
8.6262878e-48
8.6263011e-48
8.6263415e-48
8.6272935e-48
8.6265293e-48
8.6261638e-48
8.626005e-48
8.6259439e-48
8.6259237e-48
8.6259195e-48
8.6259236e-48
8.6259388e-48
8.6259823e-48
8.6271346e-48
8.6263705e-48
8.626005e-48
8.6258462e-48
8.6257851e-48
8.625765e-48
8.6257609e-48
8.6257655e-48
8.6257816e-48
8.6258261e-48
8.6270734e-48
8.6263094e-48
8.6259439e-48
8.6257851e-48
8.6257241e-48
8.625704e-48
8.6257001e-48
8.6257048e-48
8.6257212e-48
8.625766e-48
8.627053e-48
8.6262891e-48
8.6259237e-48
8.625765e-48
8.625704e-48
8.625684e-48
8.62568e-48
8.6256849e-48
8.6257014e-48
8.6257463e-48
8.6270482e-48
8.6262845e-48
8.6259195e-48
8.6257609e-48
8.6257001e-48
8.62568e-48
8.6256761e-48
8.625681e-48
8.6256975e-48
8.6257425e-48
8.6270504e-48
8.6262878e-48
8.6259236e-48
8.6257655e-48
8.6257048e-48
8.6256849e-48
8.625681e-48
8.6256859e-48
8.6257024e-48
8.6257474e-48
8.6270606e-48
8.6263011e-48
8.6259388e-48
8.6257816e-48
8.6257212e-48
8.6257014e-48
8.6256975e-48
8.6257024e-48
8.6257189e-48
8.6257639e-48
8.627091e-48
8.6263415e-48
8.6259823e-48
8.6258261e-48
8.625766e-48
8.6257463e-48
8.6257425e-48
8.6257474e-48
8.6257639e-48
8.6258088e-48
3.3093971e-47
3.3091129e-47
3.3089765e-47
3.3089171e-47
3.3088942e-47
3.3088866e-47
3.3088848e-47
3.3088856e-47
3.3088894e-47
3.3089005e-47
3.3091129e-47
3.3088287e-47
3.3086924e-47
3.308633e-47
3.3086102e-47
3.3086026e-47
3.3086009e-47
3.3086021e-47
3.3086071e-47
3.3086219e-47
3.3089765e-47
3.3086924e-47
3.308556e-47
3.3084967e-47
3.3084739e-47
3.3084663e-47
3.3084647e-47
3.3084663e-47
3.308472e-47
3.308488e-47
3.3089171e-47
3.308633e-47
3.3084967e-47
3.3084374e-47
3.3084145e-47
3.308407e-47
3.3084055e-47
3.3084072e-47
3.3084132e-47
3.3084296e-47
3.3088942e-47
3.3086102e-47
3.3084739e-47
3.3084145e-47
3.3083917e-47
3.3083842e-47
3.3083828e-47
3.3083846e-47
3.3083907e-47
3.3084072e-47
3.3088866e-47
3.3086026e-47
3.3084663e-47
3.308407e-47
3.3083842e-47
3.3083767e-47
3.3083753e-47
3.3083771e-47
3.3083833e-47
3.3083998e-47
3.3088848e-47
3.3086009e-47
3.3084647e-47
3.3084055e-47
3.3083828e-47
3.3083753e-47
3.3083738e-47
3.3083757e-47
3.3083818e-47
3.3083984e-47
3.3088856e-47
3.3086021e-47
3.3084663e-47
3.3084072e-47
3.3083846e-47
3.3083771e-47
3.3083757e-47
3.3083775e-47
3.3083837e-47
3.3084002e-47
3.3088894e-47
3.3086071e-47
3.308472e-47
3.3084132e-47
3.3083907e-47
3.3083833e-47
3.3083818e-47
3.3083837e-47
3.3083898e-47
3.3084064e-47
3.3089005e-47
3.3086219e-47
3.308488e-47
3.3084296e-47
3.3084072e-47
3.3083998e-47
3.3083984e-47
3.3084002e-47
3.3084064e-47
3.3084229e-47
1.2944661e-46
1.2943584e-46
1.2943065e-46
1.2942839e-46
1.2942752e-46
1.2942723e-46
1.2942716e-46
1.294272e-46
1.2942734e-46
1.2942775e-46
1.2943584e-46
1.2942507e-46
1.2941989e-46
1.2941763e-46
1.2941676e-46
1.2941647e-46
1.2941641e-46
1.2941645e-46
1.2941664e-46
1.294172e-46
1.2943065e-46
1.2941989e-46
1.294147e-46
1.2941245e-46
1.2941158e-46
1.2941129e-46
1.2941123e-46
1.2941129e-46
1.294115e-46
1.294121e-46
1.2942839e-46
1.2941763e-46
1.2941245e-46
1.2941019e-46
1.2940932e-46
1.2940903e-46
1.2940897e-46
1.2940904e-46
1.2940927e-46
1.2940988e-46
1.2942752e-46
1.2941676e-46
1.2941158e-46
1.2940932e-46
1.2940845e-46
1.2940816e-46
1.2940811e-46
1.2940818e-46
1.2940841e-46
1.2940903e-46
1.2942723e-46
1.2941647e-46
1.2941129e-46
1.2940903e-46
1.2940816e-46
1.2940788e-46
1.2940782e-46
1.2940789e-46
1.2940813e-46
1.2940875e-46
1.2942716e-46
1.2941641e-46
1.2941123e-46
1.2940897e-46
1.2940811e-46
1.2940782e-46
1.2940777e-46
1.2940784e-46
1.2940807e-46
1.2940869e-46
1.294272e-46
1.2941645e-46
1.2941129e-46
1.2940904e-46
1.2940818e-46
1.2940789e-46
1.2940784e-46
1.2940791e-46
1.2940814e-46
1.2940877e-46
1.2942734e-46
1.2941664e-46
1.294115e-46
1.2940927e-46
1.2940841e-46
1.2940813e-46
1.2940807e-46
1.2940814e-46
1.2940838e-46
1.29409e-46
1.2942775e-46
1.294172e-46
1.294121e-46
1.2940988e-46
1.2940903e-46
1.2940875e-46
1.2940869e-46
1.2940877e-46
1.29409e-46
1.2940962e-46
5.1638046e-46
5.1633885e-46
5.1631875e-46
5.1630998e-46
5.163066e-46
5.1630547e-46
5.163052e-46
5.1630533e-46
5.1630588e-46
5.1630742e-46
5.1633885e-46
5.1629725e-46
5.1627716e-46
5.1626839e-46
5.1626501e-46
5.1626389e-46
5.1626364e-46
5.1626382e-46
5.1626455e-46
5.1626667e-46
5.1631875e-46
5.1627716e-46
5.1625707e-46
5.162483e-46
5.1624493e-46
5.1624381e-46
5.1624358e-46
5.1624381e-46
5.1624465e-46
5.1624695e-46
5.1630998e-46
5.1626839e-46
5.162483e-46
5.1623954e-46
5.1623616e-46
5.1623505e-46
5.1623483e-46
5.1623509e-46
5.1623598e-46
5.1623833e-46
5.163066e-46
5.1626501e-46
5.1624493e-46
5.1623616e-46
5.1623279e-46
5.1623168e-46
5.1623146e-46
5.1623173e-46
5.1623264e-46
5.1623501e-46
5.1630547e-46
5.1626389e-46
5.1624381e-46
5.1623505e-46
5.1623168e-46
5.1623057e-46
5.1623035e-46
5.1623063e-46
5.1623154e-46
5.1623392e-46
5.163052e-46
5.1626364e-46
5.1624358e-46
5.1623483e-46
5.1623146e-46
5.1623035e-46
5.1623014e-46
5.1623042e-46
5.1623133e-46
5.1623371e-46
5.1630533e-46
5.1626382e-46
5.1624381e-46
5.1623509e-46
5.1623173e-46
5.1623063e-46
5.1623042e-46
5.162307e-46
5.1623161e-46
5.1623399e-46
5.1630588e-46
5.1626455e-46
5.1624465e-46
5.1623598e-46
5.1623264e-46
5.1623154e-46
5.1623133e-46
5.1623161e-46
5.1623252e-46
5.1623491e-46
5.1630742e-46
5.1626667e-46
5.1624695e-46
5.1623833e-46
5.1623501e-46
5.1623392e-46
5.1623371e-46
5.1623399e-46
5.1623491e-46
5.1623729e-46
2.100846e-45
2.1006821e-45
2.1006027e-45
2.100568e-45
2.1005546e-45
2.1005502e-45
2.1005491e-45
2.1005496e-45
2.1005518e-45
2.1005577e-45
2.1006821e-45
2.1005183e-45
2.1004389e-45
2.1004042e-45
2.1003909e-45
2.1003864e-45
2.1003854e-45
2.1003862e-45
2.1003891e-45
2.1003973e-45
2.1006027e-45
2.1004389e-45
2.1003596e-45
2.1003249e-45
2.1003115e-45
2.1003071e-45
2.1003062e-45
2.1003071e-45
2.1003105e-45
2.1003194e-45
2.100568e-45
2.1004042e-45
2.1003249e-45
2.1002902e-45
2.1002769e-45
2.1002725e-45
2.1002716e-45
2.1002726e-45
2.1002761e-45
2.1002854e-45
2.1005546e-45
2.1003909e-45
2.1003115e-45
2.1002769e-45
2.1002635e-45
2.1002591e-45
2.1002583e-45
2.1002593e-45
2.1002629e-45
2.1002722e-45
2.1005502e-45
2.1003864e-45
2.1003071e-45
2.1002725e-45
2.1002591e-45
2.1002547e-45
2.1002539e-45
2.100255e-45
2.1002586e-45
2.1002679e-45
2.1005491e-45
2.1003854e-45
2.1003062e-45
2.1002716e-45
2.1002583e-45
2.1002539e-45
2.1002531e-45
2.1002542e-45
2.1002578e-45
2.1002671e-45
2.1005496e-45
2.1003862e-45
2.1003071e-45
2.1002726e-45
2.1002593e-45
2.100255e-45
2.1002542e-45
2.1002553e-45
2.1002589e-45
2.1002682e-45
2.1005518e-45
2.1003891e-45
2.1003105e-45
2.1002761e-45
2.1002629e-45
2.1002586e-45
2.1002578e-45
2.1002589e-45
2.1002625e-45
2.1002718e-45
2.1005577e-45
2.1003973e-45
2.1003194e-45
2.1002854e-45
2.1002722e-45
2.1002679e-45
2.1002671e-45
2.1002682e-45
2.1002718e-45
2.1002811e-45
8.7169956e-45
8.7163378e-45
8.7160181e-45
8.7158783e-45
8.7158243e-45
8.7158062e-45
8.715802e-45
8.715804e-45
8.7158127e-45
8.7158361e-45
8.7163378e-45
8.7156802e-45
8.7153607e-45
8.7152208e-45
8.7151669e-45
8.7151489e-45
8.715145e-45
8.715148e-45
8.7151596e-45
8.7151924e-45
8.7160181e-45
8.7153607e-45
8.7150411e-45
8.7149013e-45
8.7148474e-45
8.7148296e-45
8.7148259e-45
8.7148297e-45
8.7148431e-45
8.7148789e-45
8.7158783e-45
8.7152208e-45
8.7149013e-45
8.7147615e-45
8.7147076e-45
8.7146899e-45
8.7146864e-45
8.7146906e-45
8.7147048e-45
8.7147416e-45
8.7158243e-45
8.7151669e-45
8.7148474e-45
8.7147076e-45
8.7146538e-45
8.714636e-45
8.7146326e-45
8.7146371e-45
8.7146516e-45
8.7146886e-45
8.7158062e-45
8.7151489e-45
8.7148296e-45
8.7146899e-45
8.714636e-45
8.7146183e-45
8.714615e-45
8.7146195e-45
8.714634e-45
8.7146712e-45
8.715802e-45
8.715145e-45
8.7148259e-45
8.7146864e-45
8.7146326e-45
8.714615e-45
8.7146116e-45
8.7146161e-45
8.7146308e-45
8.7146679e-45
8.715804e-45
8.715148e-45
8.7148297e-45
8.7146906e-45
8.7146371e-45
8.7146195e-45
8.7146161e-45
8.7146207e-45
8.7146353e-45
8.7146724e-45
8.7158127e-45
8.7151596e-45
8.7148431e-45
8.7147048e-45
8.7146516e-45
8.714634e-45
8.7146308e-45
8.7146353e-45
8.7146499e-45
8.7146871e-45
8.7158361e-45
8.7151924e-45
8.7148789e-45
8.7147416e-45
8.7146886e-45
8.7146712e-45
8.7146679e-45
8.7146724e-45
8.7146871e-45
8.7147243e-45
3.6888011e-44
3.6885319e-44
3.6884007e-44
3.6883432e-44
3.688321e-44
3.6883136e-44
3.6883119e-44
3.6883127e-44
3.6883163e-44
3.6883257e-44
3.6885319e-44
3.6882628e-44
3.6881317e-44
3.6880742e-44
3.688052e-44
3.6880447e-44
3.688043e-44
3.6880443e-44
3.6880491e-44
3.6880624e-44
3.6884007e-44
3.6881317e-44
3.6880006e-44
3.6879431e-44
3.6879209e-44
3.6879136e-44
3.6879121e-44
3.6879137e-44
3.6879192e-44
3.6879338e-44
3.6883432e-44
3.6880742e-44
3.6879431e-44
3.6878857e-44
3.6878635e-44
3.6878562e-44
3.6878548e-44
3.6878565e-44
3.6878624e-44
3.6878773e-44
3.688321e-44
3.688052e-44
3.6879209e-44
3.6878635e-44
3.6878413e-44
3.6878341e-44
3.6878327e-44
3.6878345e-44
3.6878405e-44
3.6878556e-44
3.6883136e-44
3.6880447e-44
3.6879136e-44
3.6878562e-44
3.6878341e-44
3.6878268e-44
3.6878254e-44
3.6878273e-44
3.6878333e-44
3.6878484e-44
3.6883119e-44
3.688043e-44
3.6879121e-44
3.6878548e-44
3.6878327e-44
3.6878254e-44
3.687824e-44
3.6878259e-44
3.6878319e-44
3.6878471e-44
3.6883127e-44
3.6880443e-44
3.6879137e-44
3.6878565e-44
3.6878345e-44
3.6878273e-44
3.6878259e-44
3.6878278e-44
3.6878338e-44
3.687849e-44
3.6883163e-44
3.6880491e-44
3.6879192e-44
3.6878624e-44
3.6878405e-44
3.6878333e-44
3.6878319e-44
3.6878338e-44
3.6878399e-44
3.687855e-44
3.6883257e-44
3.6880624e-44
3.6879338e-44
3.6878773e-44
3.6878556e-44
3.6878484e-44
3.6878471e-44
3.687849e-44
3.687855e-44
3.6878701e-44
1.5919943e-43
1.591882e-43
1.5918271e-43
1.591803e-43
1.5917937e-43
1.5917906e-43
1.5917899e-43
1.5917903e-43
1.5917917e-43
1.5917956e-43
1.591882e-43
1.5917698e-43
1.5917149e-43
1.5916908e-43
1.5916815e-43
1.5916785e-43
1.5916778e-43
1.5916783e-43
1.5916803e-43
1.5916858e-43
1.5918271e-43
1.5917149e-43
1.5916601e-43
1.591636e-43
1.5916267e-43
1.5916236e-43
1.591623e-43
1.5916237e-43
1.591626e-43
1.591632e-43
1.591803e-43
1.5916908e-43
1.591636e-43
1.5916119e-43
1.5916027e-43
1.5915996e-43
1.591599e-43
1.5915997e-43
1.5916022e-43
1.5916084e-43
1.5917937e-43
1.5916815e-43
1.5916267e-43
1.5916027e-43
1.5915934e-43
1.5915903e-43
1.5915897e-43
1.5915905e-43
1.591593e-43
1.5915993e-43
1.5917906e-43
1.5916785e-43
1.5916236e-43
1.5915996e-43
1.5915903e-43
1.5915873e-43
1.5915867e-43
1.5915875e-43
1.59159e-43
1.5915963e-43
1.5917899e-43
1.5916778e-43
1.591623e-43
1.591599e-43
1.5915897e-43
1.5915867e-43
1.5915861e-43
1.5915869e-43
1.5915895e-43
1.5915957e-43
1.5917903e-43
1.5916783e-43
1.5916237e-43
1.5915997e-43
1.5915905e-43
1.5915875e-43
1.5915869e-43
1.5915877e-43
1.5915903e-43
1.5915965e-43
1.5917917e-43
1.5916803e-43
1.591626e-43
1.5916022e-43
1.591593e-43
1.59159e-43
1.5915895e-43
1.5915903e-43
1.5915928e-43
1.5915991e-43
1.5917956e-43
1.5916858e-43
1.591632e-43
1.5916084e-43
1.5915993e-43
1.5915963e-43
1.5915957e-43
1.5915965e-43
1.5915991e-43
1.5916054e-43
7.0068353e-43
7.006358e-43
7.0061241e-43
7.0060213e-43
7.0059816e-43
7.0059683e-43
7.0059652e-43
7.0059667e-43
7.005973e-43
7.005989e-43
7.006358e-43
7.0058809e-43
7.005647e-43
7.0055443e-43
7.0055046e-43
7.0054914e-43
7.0054885e-43
7.0054908e-43
7.0054994e-43
7.0055226e-43
7.0061241e-43
7.005647e-43
7.0054132e-43
7.0053105e-43
7.0052708e-43
7.0052577e-43
7.005255e-43
7.0052579e-43
7.0052679e-43
7.0052934e-43
7.0060213e-43
7.0055443e-43
7.0053105e-43
7.0052078e-43
7.0051681e-43
7.0051551e-43
7.0051525e-43
7.0051558e-43
7.0051663e-43
7.0051926e-43
7.0059816e-43
7.0055046e-43
7.0052708e-43
7.0051681e-43
7.0051285e-43
7.0051154e-43
7.005113e-43
7.0051164e-43
7.0051271e-43
7.0051537e-43
7.0059683e-43
7.0054914e-43
7.0052577e-43
7.0051551e-43
7.0051154e-43
7.0051024e-43
7.0051e-43
7.0051034e-43
7.0051143e-43
7.0051409e-43
7.0059652e-43
7.0054885e-43
7.005255e-43
7.0051525e-43
7.005113e-43
7.0051e-43
7.0050976e-43
7.005101e-43
7.0051119e-43
7.0051385e-43
7.0059667e-43
7.0054908e-43
7.0052579e-43
7.0051558e-43
7.0051164e-43
7.0051034e-43
7.005101e-43
7.0051045e-43
7.0051153e-43
7.005142e-43
7.005973e-43
7.0054994e-43
7.0052679e-43
7.0051663e-43
7.0051271e-43
7.0051143e-43
7.0051119e-43
7.0051153e-43
7.0051262e-43
7.0051528e-43
7.005989e-43
7.0055226e-43
7.0052934e-43
7.0051926e-43
7.0051537e-43
7.0051409e-43
7.0051385e-43
7.005142e-43
7.0051528e-43
7.0051795e-43
3.1448993e-42
3.1446925e-42
3.1445909e-42
3.1445462e-42
3.1445289e-42
3.1445231e-42
3.1445218e-42
3.1445225e-42
3.1445252e-42
3.144532e-42
3.1446925e-42
3.1444858e-42
3.1443842e-42
3.1443395e-42
3.1443222e-42
3.1443165e-42
3.1443152e-42
3.1443163e-42
3.14432e-42
3.14433e-42
3.1445909e-42
3.1443842e-42
3.1442826e-42
3.1442379e-42
3.1442207e-42
3.144215e-42
3.1442138e-42
3.1442151e-42
3.1442194e-42
3.1442305e-42
3.1445462e-42
3.1443395e-42
3.1442379e-42
3.1441933e-42
3.144176e-42
3.1441703e-42
3.1441692e-42
3.1441707e-42
3.1441753e-42
3.1441866e-42
3.1445289e-42
3.1443222e-42
3.1442207e-42
3.144176e-42
3.1441587e-42
3.1441531e-42
3.144152e-42
3.1441535e-42
3.1441582e-42
3.1441697e-42
3.1445231e-42
3.1443165e-42
3.144215e-42
3.1441703e-42
3.1441531e-42
3.1441474e-42
3.1441464e-42
3.1441479e-42
3.1441526e-42
3.1441641e-42
3.1445218e-42
3.1443152e-42
3.1442138e-42
3.1441692e-42
3.144152e-42
3.1441464e-42
3.1441453e-42
3.1441468e-42
3.1441516e-42
3.1441631e-42
3.1445225e-42
3.1443163e-42
3.1442151e-42
3.1441707e-42
3.1441535e-42
3.1441479e-42
3.1441468e-42
3.1441484e-42
3.1441531e-42
3.1441646e-42
3.1445252e-42
3.14432e-42
3.1442194e-42
3.1441753e-42
3.1441582e-42
3.1441526e-42
3.1441516e-42
3.1441531e-42
3.1441579e-42
3.1441694e-42
3.144532e-42
3.14433e-42
3.1442305e-42
3.1441866e-42
3.1441697e-42
3.1441641e-42
3.1441631e-42
3.1441646e-42
3.1441694e-42
3.1441809e-42
1.439362e-41
1.4392707e-41
1.4392257e-41
1.4392059e-41
1.4391982e-41
1.4391957e-41
1.4391951e-41
1.4391954e-41
1.4391966e-41
1.4391996e-41
1.4392707e-41
1.4391794e-41
1.4391345e-41
1.4391146e-41
1.439107e-41
1.4391044e-41
1.4391039e-41
1.4391043e-41
1.439106e-41
1.4391104e-41
1.4392257e-41
1.4391345e-41
1.4390895e-41
1.4390697e-41
1.439062e-41
1.4390595e-41
1.439059e-41
1.4390596e-41
1.4390615e-41
1.4390663e-41
1.4392059e-41
1.4391146e-41
1.4390697e-41
1.4390499e-41
1.4390422e-41
1.4390397e-41
1.4390392e-41
1.4390399e-41
1.4390419e-41
1.4390469e-41
1.4391982e-41
1.439107e-41
1.439062e-41
1.4390422e-41
1.4390346e-41
1.439032e-41
1.4390316e-41
1.4390322e-41
1.4390343e-41
1.4390394e-41
1.4391957e-41
1.4391044e-41
1.4390595e-41
1.4390397e-41
1.439032e-41
1.4390295e-41
1.4390291e-41
1.4390298e-41
1.4390319e-41
1.4390369e-41
1.4391951e-41
1.4391039e-41
1.439059e-41
1.4390392e-41
1.4390316e-41
1.4390291e-41
1.4390286e-41
1.4390293e-41
1.4390314e-41
1.4390365e-41
1.4391954e-41
1.4391043e-41
1.4390596e-41
1.4390399e-41
1.4390322e-41
1.4390298e-41
1.4390293e-41
1.43903e-41
1.4390321e-41
1.4390372e-41
1.4391966e-41
1.439106e-41
1.4390615e-41
1.4390419e-41
1.4390343e-41
1.4390319e-41
1.4390314e-41
1.4390321e-41
1.4390342e-41
1.4390393e-41
1.4391996e-41
1.4391104e-41
1.4390663e-41
1.4390469e-41
1.4390394e-41
1.4390369e-41
1.4390365e-41
1.4390372e-41
1.4390393e-41
1.4390444e-41
6.7170607e-41
6.7166499e-41
6.7164469e-41
6.7163574e-41
6.7163228e-41
6.7163112e-41
6.7163085e-41
6.7163099e-41
6.7163153e-41
6.7163285e-41
6.7166499e-41
6.7162392e-41
6.7160363e-41
6.7159468e-41
6.7159122e-41
6.7159007e-41
6.7158982e-41
6.7159003e-41
6.7159078e-41
6.7159275e-41
6.7164469e-41
6.7160363e-41
6.7158334e-41
6.7157439e-41
6.7157093e-41
6.7156979e-41
6.7156956e-41
6.7156982e-41
6.715707e-41
6.7157289e-41
6.7163574e-41
6.7159468e-41
6.7157439e-41
6.7156545e-41
6.7156199e-41
6.7156085e-41
6.7156064e-41
6.7156093e-41
6.7156186e-41
6.7156411e-41
6.7163228e-41
6.7159122e-41
6.7157093e-41
6.7156199e-41
6.7155853e-41
6.7155739e-41
6.7155719e-41
6.7155749e-41
6.7155845e-41
6.7156072e-41
6.7163112e-41
6.7159007e-41
6.7156979e-41
6.7156085e-41
6.7155739e-41
6.7155626e-41
6.7155605e-41
6.7155636e-41
6.7155733e-41
6.7155961e-41
6.7163085e-41
6.7158982e-41
6.7156956e-41
6.7156064e-41
6.7155719e-41
6.7155605e-41
6.7155585e-41
6.7155616e-41
6.7155713e-41
6.7155941e-41
6.7163099e-41
6.7159003e-41
6.7156982e-41
6.7156093e-41
6.7155749e-41
6.7155636e-41
6.7155616e-41
6.7155648e-41
6.7155744e-41
6.7155972e-41
6.7163153e-41
6.7159078e-41
6.715707e-41
6.7156186e-41
6.7155845e-41
6.7155733e-41
6.7155713e-41
6.7155744e-41
6.715584e-41
6.7156069e-41
6.7163285e-41
6.7159275e-41
6.7157289e-41
6.7156411e-41
6.7156072e-41
6.7155961e-41
6.7155941e-41
6.7155972e-41
6.7156069e-41
6.7156297e-41
3.1959143e-40
3.195726e-40
3.1956327e-40
3.1955915e-40
3.1955755e-40
3.1955702e-40
3.195569e-40
3.1955696e-40
3.1955721e-40
3.1955781e-40
3.195726e-40
3.1955377e-40
3.1954444e-40
3.1954033e-40
3.1953873e-40
3.195382e-40
3.1953809e-40
3.1953819e-40
3.1953853e-40
3.1953944e-40
3.1956327e-40
3.1954444e-40
3.1953512e-40
3.19531e-40
3.1952941e-40
3.1952888e-40
3.1952878e-40
3.195289e-40
3.1952931e-40
3.1953031e-40
3.1955915e-40
3.1954033e-40
3.19531e-40
3.1952689e-40
3.1952529e-40
3.1952477e-40
3.1952467e-40
3.1952481e-40
3.1952524e-40
3.1952627e-40
3.1955755e-40
3.1953873e-40
3.1952941e-40
3.1952529e-40
3.195237e-40
3.1952318e-40
3.1952308e-40
3.1952323e-40
3.1952367e-40
3.1952471e-40
3.1955702e-40
3.195382e-40
3.1952888e-40
3.1952477e-40
3.1952318e-40
3.1952266e-40
3.1952256e-40
3.1952271e-40
3.1952315e-40
3.195242e-40
3.195569e-40
3.1953809e-40
3.1952878e-40
3.1952467e-40
3.1952308e-40
3.1952256e-40
3.1952247e-40
3.1952262e-40
3.1952306e-40
3.1952411e-40
3.1955696e-40
3.1953819e-40
3.195289e-40
3.1952481e-40
3.1952323e-40
3.1952271e-40
3.1952262e-40
3.1952276e-40
3.1952321e-40
3.1952426e-40
3.1955721e-40
3.1953853e-40
3.1952931e-40
3.1952524e-40
3.1952367e-40
3.1952315e-40
3.1952306e-40
3.1952321e-40
3.1952366e-40
3.195247e-40
3.1955781e-40
3.1953944e-40
3.1953031e-40
3.1952627e-40
3.1952471e-40
3.195242e-40
3.1952411e-40
3.1952426e-40
3.195247e-40
3.1952575e-40
1.5501408e-39
1.5500529e-39
1.5500092e-39
1.5499899e-39
1.5499824e-39
1.5499799e-39
1.5499793e-39
1.5499796e-39
1.5499808e-39
1.5499835e-39
1.5500529e-39
1.5499649e-39
1.5499213e-39
1.549902e-39
1.5498945e-39
1.549892e-39
1.5498915e-39
1.5498919e-39
1.5498936e-39
1.5498978e-39
1.5500092e-39
1.5499213e-39
1.5498776e-39
1.5498583e-39
1.5498508e-39
1.5498484e-39
1.5498479e-39
1.5498485e-39
1.5498504e-39
1.5498551e-39
1.5499899e-39
1.549902e-39
1.5498583e-39
1.549839e-39
1.5498315e-39
1.5498291e-39
1.5498286e-39
1.5498293e-39
1.5498313e-39
1.5498362e-39
1.5499824e-39
1.5498945e-39
1.5498508e-39
1.5498315e-39
1.5498241e-39
1.5498216e-39
1.5498212e-39
1.5498219e-39
1.549824e-39
1.5498288e-39
1.5499799e-39
1.549892e-39
1.5498484e-39
1.5498291e-39
1.5498216e-39
1.5498192e-39
1.5498187e-39
1.5498194e-39
1.5498215e-39
1.5498264e-39
1.5499793e-39
1.5498915e-39
1.5498479e-39
1.5498286e-39
1.5498212e-39
1.5498187e-39
1.5498183e-39
1.549819e-39
1.5498211e-39
1.549826e-39
1.5499796e-39
1.5498919e-39
1.5498485e-39
1.5498293e-39
1.5498219e-39
1.5498194e-39
1.549819e-39
1.5498197e-39
1.5498218e-39
1.5498267e-39
1.5499808e-39
1.5498936e-39
1.5498504e-39
1.5498313e-39
1.549824e-39
1.5498215e-39
1.5498211e-39
1.5498218e-39
1.5498239e-39
1.5498288e-39
1.5499835e-39
1.5498978e-39
1.5498551e-39
1.5498362e-39
1.5498288e-39
1.5498264e-39
1.549826e-39
1.5498267e-39
1.5498288e-39
1.5498337e-39
7.6639643e-39
7.6635458e-39
7.6633376e-39
7.6632454e-39
7.6632097e-39
7.6631977e-39
7.663195e-39
7.6631965e-39
7.6632021e-39
7.663215e-39
7.6635458e-39
7.6631276e-39
7.6629193e-39
7.6628272e-39
7.6627915e-39
7.6627796e-39
7.6627771e-39
7.6627794e-39
7.6627873e-39
7.6628073e-39
7.6633376e-39
7.6629193e-39
7.6627111e-39
7.662619e-39
7.6625834e-39
7.6625716e-39
7.6625693e-39
7.6625721e-39
7.6625814e-39
7.6626037e-39
7.6632454e-39
7.6628272e-39
7.662619e-39
7.662527e-39
7.6624913e-39
7.6624795e-39
7.6624774e-39
7.6624806e-39
7.6624904e-39
7.6625134e-39
7.6632097e-39
7.6627915e-39
7.6625834e-39
7.6624913e-39
7.6624556e-39
7.6624439e-39
7.6624418e-39
7.6624452e-39
7.6624552e-39
7.6624785e-39
7.6631977e-39
7.6627796e-39
7.6625716e-39
7.6624795e-39
7.6624439e-39
7.6624322e-39
7.6624302e-39
7.6624335e-39
7.6624437e-39
7.662467e-39
7.663195e-39
7.6627771e-39
7.6625693e-39
7.6624774e-39
7.6624418e-39
7.6624302e-39
7.6624281e-39
7.6624315e-39
7.6624417e-39
7.662465e-39
7.6631965e-39
7.6627794e-39
7.6625721e-39
7.6624806e-39
7.6624452e-39
7.6624335e-39
7.6624315e-39
7.6624349e-39
7.6624451e-39
7.6624684e-39
7.6632021e-39
7.6627873e-39
7.6625814e-39
7.6624904e-39
7.6624552e-39
7.6624437e-39
7.6624417e-39
7.6624451e-39
7.6624553e-39
7.6624786e-39
7.663215e-39
7.6628073e-39
7.6626037e-39
7.6625134e-39
7.6624785e-39
7.662467e-39
7.662465e-39
7.6624684e-39
7.6624786e-39
7.6625019e-39