/*--------------------------------*- C++ -*----------------------------------*\
| =========                 |                                                 |
| \\      /  F ield         | OpenFOAM: The Open Source CFD Toolbox           |
|  \\    /   O peration     | Version:  dev                                   |
|   \\  /    A nd           | Web:      www.OpenFOAM.org                      |
|    \\/     M anipulation  |                                                 |
\*---------------------------------------------------------------------------*/
FoamFile
{
    version     2.0;
    format      ascii;
    class       volScalarField;
    location    "39.995";
    object      A;
}
// * * * * * * * * * * * * * * * * * * * * * * * * * * * * * * * * * * * * * //

dimensions      [0 0 0 0 1 0 0];

internalField   nonuniform List<scalar> 
10000
(
1.6059039e-37
1.6024517e-37
1.6017125e-37
1.60158e-37
1.6015562e-37
1.6015506e-37
1.6015506e-37
1.6015638e-37
1.6016467e-37
1.6020134e-37
1.6024517e-37
1.5990218e-37
1.5982869e-37
1.5981551e-37
1.5981314e-37
1.5981258e-37
1.5981261e-37
1.5981412e-37
1.5982361e-37
1.5986633e-37
1.6017125e-37
1.5982869e-37
1.5975531e-37
1.5974215e-37
1.5973978e-37
1.5973923e-37
1.5973928e-37
1.5974086e-37
1.5975072e-37
1.597946e-37
1.60158e-37
1.5981551e-37
1.5974215e-37
1.59729e-37
1.5972663e-37
1.5972609e-37
1.5972614e-37
1.5972774e-37
1.5973767e-37
1.5978174e-37
1.6015562e-37
1.5981314e-37
1.5973978e-37
1.5972663e-37
1.5972427e-37
1.5972373e-37
1.5972378e-37
1.5972539e-37
1.5973534e-37
1.5977942e-37
1.6015506e-37
1.5981258e-37
1.5973923e-37
1.5972609e-37
1.5972373e-37
1.5972318e-37
1.5972324e-37
1.5972485e-37
1.597348e-37
1.5977889e-37
1.6015506e-37
1.5981261e-37
1.5973928e-37
1.5972614e-37
1.5972378e-37
1.5972324e-37
1.5972329e-37
1.597249e-37
1.5973486e-37
1.5977895e-37
1.6015638e-37
1.5981412e-37
1.5974086e-37
1.5972774e-37
1.5972539e-37
1.5972485e-37
1.597249e-37
1.5972652e-37
1.5973647e-37
1.5978057e-37
1.6016467e-37
1.5982361e-37
1.5975072e-37
1.5973767e-37
1.5973534e-37
1.597348e-37
1.5973486e-37
1.5973647e-37
1.5974644e-37
1.5979057e-37
1.6020134e-37
1.5986633e-37
1.597946e-37
1.5978174e-37
1.5977942e-37
1.5977889e-37
1.5977895e-37
1.5978057e-37
1.5979057e-37
1.5983485e-37
6.1468647e-37
6.1342263e-37
6.1314462e-37
6.1309465e-37
6.1308564e-37
6.1308353e-37
6.1308353e-37
6.1308844e-37
6.1311967e-37
6.1326544e-37
6.1342263e-37
6.121668e-37
6.1189038e-37
6.1184066e-37
6.1183171e-37
6.1182961e-37
6.1182971e-37
6.1183536e-37
6.1187115e-37
6.1204019e-37
6.1314462e-37
6.1189038e-37
6.1161438e-37
6.1156475e-37
6.115558e-37
6.1155372e-37
6.1155388e-37
6.1155982e-37
6.1159702e-37
6.117705e-37
6.1309465e-37
6.1184066e-37
6.1156475e-37
6.1151513e-37
6.1150619e-37
6.1150413e-37
6.1150431e-37
6.1151032e-37
6.1154781e-37
6.1172199e-37
6.1308564e-37
6.1183171e-37
6.115558e-37
6.1150619e-37
6.1149726e-37
6.114952e-37
6.1149539e-37
6.1150143e-37
6.1153897e-37
6.1171325e-37
6.1308353e-37
6.1182961e-37
6.1155372e-37
6.1150413e-37
6.114952e-37
6.1149315e-37
6.1149334e-37
6.1149939e-37
6.1153695e-37
6.1171123e-37
6.1308353e-37
6.1182971e-37
6.1155388e-37
6.1150431e-37
6.1149539e-37
6.1149334e-37
6.1149355e-37
6.114996e-37
6.1153716e-37
6.1171145e-37
6.1308844e-37
6.1183536e-37
6.1155982e-37
6.1151032e-37
6.1150143e-37
6.1149939e-37
6.114996e-37
6.1150566e-37
6.1154322e-37
6.1171753e-37
6.1311967e-37
6.1187115e-37
6.1159702e-37
6.1154781e-37
6.1153897e-37
6.1153695e-37
6.1153716e-37
6.1154322e-37
6.1158082e-37
6.1175524e-37
6.1326544e-37
6.1204019e-37
6.117705e-37
6.1172199e-37
6.1171325e-37
6.1171123e-37
6.1171145e-37
6.1171753e-37
6.1175524e-37
6.1193031e-37
1.5961263e-36
1.5929574e-36
1.5922543e-36
1.5921276e-36
1.5921047e-36
1.5920993e-36
1.5920993e-36
1.5921116e-36
1.5921899e-36
1.592569e-36
1.5929574e-36
1.5898083e-36
1.5891092e-36
1.5889831e-36
1.5889604e-36
1.588955e-36
1.5889553e-36
1.5889694e-36
1.5890595e-36
1.5894989e-36
1.5922543e-36
1.5891092e-36
1.5884111e-36
1.5882853e-36
1.5882625e-36
1.5882572e-36
1.5882576e-36
1.5882725e-36
1.5883663e-36
1.5888172e-36
1.5921276e-36
1.5889831e-36
1.5882853e-36
1.5881595e-36
1.5881368e-36
1.5881315e-36
1.5881319e-36
1.588147e-36
1.5882415e-36
1.5886942e-36
1.5921047e-36
1.5889604e-36
1.5882625e-36
1.5881368e-36
1.5881141e-36
1.5881088e-36
1.5881093e-36
1.5881244e-36
1.5882191e-36
1.588672e-36
1.5920993e-36
1.588955e-36
1.5882572e-36
1.5881315e-36
1.5881088e-36
1.5881036e-36
1.588104e-36
1.5881192e-36
1.5882139e-36
1.5886669e-36
1.5920993e-36
1.5889553e-36
1.5882576e-36
1.5881319e-36
1.5881093e-36
1.588104e-36
1.5881045e-36
1.5881197e-36
1.5882144e-36
1.5886674e-36
1.5921116e-36
1.5889694e-36
1.5882725e-36
1.588147e-36
1.5881244e-36
1.5881192e-36
1.5881197e-36
1.588135e-36
1.5882297e-36
1.5886827e-36
1.5921899e-36
1.5890595e-36
1.5883663e-36
1.5882415e-36
1.5882191e-36
1.5882139e-36
1.5882144e-36
1.5882297e-36
1.5883245e-36
1.5887778e-36
1.592569e-36
1.5894989e-36
1.5888172e-36
1.5886942e-36
1.588672e-36
1.5886669e-36
1.5886674e-36
1.5886827e-36
1.5887778e-36
1.5892328e-36
3.9932565e-36
3.9855884e-36
3.9838811e-36
3.9835728e-36
3.983517e-36
3.9835038e-36
3.9835036e-36
3.9835329e-36
3.9837198e-36
3.9846307e-36
3.9855884e-36
3.9779678e-36
3.97627e-36
3.9759633e-36
3.9759078e-36
3.9758947e-36
3.9758952e-36
3.9759292e-36
3.9761455e-36
3.9772066e-36
3.9838811e-36
3.97627e-36
3.9745748e-36
3.9742686e-36
3.9742131e-36
3.9742002e-36
3.974201e-36
3.9742369e-36
3.9744623e-36
3.9755519e-36
3.9835728e-36
3.9759633e-36
3.9742686e-36
3.9739625e-36
3.9739071e-36
3.9738942e-36
3.9738952e-36
3.9739315e-36
3.9741588e-36
3.9752529e-36
3.983517e-36
3.9759078e-36
3.9742131e-36
3.9739071e-36
3.9738517e-36
3.9738389e-36
3.9738399e-36
3.9738764e-36
3.9741041e-36
3.9751988e-36
3.9835038e-36
3.9758947e-36
3.9742002e-36
3.9738942e-36
3.9738389e-36
3.973826e-36
3.9738271e-36
3.9738637e-36
3.9740914e-36
3.9751862e-36
3.9835036e-36
3.9758952e-36
3.974201e-36
3.9738952e-36
3.9738399e-36
3.9738271e-36
3.9738283e-36
3.9738648e-36
3.9740926e-36
3.9751874e-36
3.9835329e-36
3.9759292e-36
3.9742369e-36
3.9739315e-36
3.9738764e-36
3.9738637e-36
3.9738648e-36
3.9739015e-36
3.9741292e-36
3.9752242e-36
3.9837198e-36
3.9761455e-36
3.9744623e-36
3.9741588e-36
3.9741041e-36
3.9740914e-36
3.9740926e-36
3.9741292e-36
3.9743572e-36
3.9754529e-36
3.9846307e-36
3.9772066e-36
3.9755519e-36
3.9752529e-36
3.9751988e-36
3.9751862e-36
3.9751874e-36
3.9752242e-36
3.9754529e-36
3.9765526e-36
1.0056899e-35
1.0038219e-35
1.003405e-35
1.0033296e-35
1.003316e-35
1.0033127e-35
1.0033126e-35
1.0033197e-35
1.0033644e-35
1.0035817e-35
1.0038219e-35
1.0019653e-35
1.0015508e-35
1.0014758e-35
1.0014622e-35
1.0014589e-35
1.001459e-35
1.0014672e-35
1.0015193e-35
1.0017743e-35
1.003405e-35
1.0015508e-35
1.0011369e-35
1.001062e-35
1.0010484e-35
1.0010452e-35
1.0010454e-35
1.001054e-35
1.0011084e-35
1.0013706e-35
1.0033296e-35
1.0014758e-35
1.001062e-35
1.0009871e-35
1.0009735e-35
1.0009704e-35
1.0009706e-35
1.0009794e-35
1.0010342e-35
1.0012975e-35
1.003316e-35
1.0014622e-35
1.0010484e-35
1.0009735e-35
1.00096e-35
1.0009568e-35
1.000957e-35
1.0009659e-35
1.0010208e-35
1.0012842e-35
1.0033127e-35
1.0014589e-35
1.0010452e-35
1.0009704e-35
1.0009568e-35
1.0009536e-35
1.0009539e-35
1.0009627e-35
1.0010176e-35
1.0012811e-35
1.0033126e-35
1.001459e-35
1.0010454e-35
1.0009706e-35
1.000957e-35
1.0009539e-35
1.0009542e-35
1.000963e-35
1.0010179e-35
1.0012814e-35
1.0033197e-35
1.0014672e-35
1.001054e-35
1.0009794e-35
1.0009659e-35
1.0009627e-35
1.000963e-35
1.0009718e-35
1.0010268e-35
1.0012903e-35
1.0033644e-35
1.0015193e-35
1.0011084e-35
1.0010342e-35
1.0010208e-35
1.0010176e-35
1.0010179e-35
1.0010268e-35
1.0010818e-35
1.0013454e-35
1.0035817e-35
1.0017743e-35
1.0013706e-35
1.0012975e-35
1.0012842e-35
1.0012811e-35
1.0012814e-35
1.0012903e-35
1.0013454e-35
1.0016101e-35
2.5677874e-35
2.5631752e-35
2.5621442e-35
2.5619574e-35
2.5619234e-35
2.5619153e-35
2.5619151e-35
2.5619321e-35
2.5620403e-35
2.5625643e-35
2.5631752e-35
2.5585912e-35
2.5575658e-35
2.5573799e-35
2.5573461e-35
2.5573381e-35
2.5573383e-35
2.5573582e-35
2.5574851e-35
2.5581048e-35
2.5621442e-35
2.5575658e-35
2.5565418e-35
2.5563563e-35
2.5563225e-35
2.5563146e-35
2.556315e-35
2.5563361e-35
2.5564688e-35
2.5571067e-35
2.5619574e-35
2.5573799e-35
2.5563563e-35
2.5561708e-35
2.556137e-35
2.5561291e-35
2.5561296e-35
2.5561511e-35
2.556285e-35
2.5569257e-35
2.5619234e-35
2.5573461e-35
2.5563225e-35
2.556137e-35
2.5561033e-35
2.5560954e-35
2.556096e-35
2.5561176e-35
2.5562516e-35
2.5568928e-35
2.5619153e-35
2.5573381e-35
2.5563146e-35
2.5561291e-35
2.5560954e-35
2.5560876e-35
2.5560881e-35
2.5561098e-35
2.5562439e-35
2.5568851e-35
2.5619151e-35
2.5573383e-35
2.556315e-35
2.5561296e-35
2.556096e-35
2.5560881e-35
2.5560887e-35
2.5561104e-35
2.5562445e-35
2.5568857e-35
2.5619321e-35
2.5573582e-35
2.5563361e-35
2.5561511e-35
2.5561176e-35
2.5561098e-35
2.5561104e-35
2.556132e-35
2.5562662e-35
2.5569075e-35
2.5620403e-35
2.5574851e-35
2.5564688e-35
2.556285e-35
2.5562516e-35
2.5562439e-35
2.5562445e-35
2.5562662e-35
2.5564005e-35
2.5570421e-35
2.5625643e-35
2.5581048e-35
2.5571067e-35
2.5569257e-35
2.5568928e-35
2.5568851e-35
2.5568857e-35
2.5569075e-35
2.5570421e-35
2.5576861e-35
6.6548475e-35
6.6432934e-35
6.6407059e-35
6.6402364e-35
6.6401508e-35
6.6401303e-35
6.6401296e-35
6.6401714e-35
6.640437e-35
6.6417178e-35
6.6432934e-35
6.6318092e-35
6.6292356e-35
6.6287684e-35
6.6286832e-35
6.6286629e-35
6.6286633e-35
6.6287128e-35
6.6290265e-35
6.6305539e-35
6.6407059e-35
6.6292356e-35
6.6266658e-35
6.6261993e-35
6.6261142e-35
6.6260941e-35
6.6260951e-35
6.6261476e-35
6.6264763e-35
6.6280506e-35
6.6402364e-35
6.6287684e-35
6.6261993e-35
6.625733e-35
6.625648e-35
6.625628e-35
6.6256292e-35
6.6256825e-35
6.6260142e-35
6.6275958e-35
6.6401508e-35
6.6286832e-35
6.6261142e-35
6.625648e-35
6.625563e-35
6.6255431e-35
6.6255444e-35
6.625598e-35
6.6259302e-35
6.6275128e-35
6.6401303e-35
6.6286629e-35
6.6260941e-35
6.625628e-35
6.6255431e-35
6.6255232e-35
6.6255246e-35
6.6255782e-35
6.6259106e-35
6.6274934e-35
6.6401296e-35
6.6286633e-35
6.6260951e-35
6.6256292e-35
6.6255444e-35
6.6255246e-35
6.625526e-35
6.6255797e-35
6.6259121e-35
6.6274949e-35
6.6401714e-35
6.6287128e-35
6.6261476e-35
6.6256825e-35
6.625598e-35
6.6255782e-35
6.6255797e-35
6.6256335e-35
6.6259659e-35
6.6275489e-35
6.640437e-35
6.6290265e-35
6.6264763e-35
6.6260142e-35
6.6259302e-35
6.6259106e-35
6.6259121e-35
6.6259659e-35
6.6262987e-35
6.6278826e-35
6.6417178e-35
6.6305539e-35
6.6280506e-35
6.6275958e-35
6.6275128e-35
6.6274934e-35
6.6274949e-35
6.6275489e-35
6.6278826e-35
6.6294722e-35
1.7511058e-34
1.7481684e-34
1.7475094e-34
1.7473896e-34
1.7473677e-34
1.7473625e-34
1.7473622e-34
1.7473727e-34
1.7474389e-34
1.7477565e-34
1.7481684e-34
1.7452485e-34
1.744593e-34
1.7444738e-34
1.744452e-34
1.7444468e-34
1.7444469e-34
1.7444593e-34
1.7445381e-34
1.7449202e-34
1.7475094e-34
1.744593e-34
1.7439385e-34
1.7438195e-34
1.7437977e-34
1.7437926e-34
1.7437928e-34
1.743806e-34
1.7438887e-34
1.7442831e-34
1.7473896e-34
1.7444738e-34
1.7438195e-34
1.7437005e-34
1.7436788e-34
1.7436736e-34
1.7436739e-34
1.7436874e-34
1.7437708e-34
1.7441671e-34
1.7473677e-34
1.744452e-34
1.7437977e-34
1.7436788e-34
1.7436571e-34
1.7436519e-34
1.7436522e-34
1.7436658e-34
1.7437493e-34
1.7441459e-34
1.7473625e-34
1.7444468e-34
1.7437926e-34
1.7436736e-34
1.7436519e-34
1.7436468e-34
1.7436472e-34
1.7436607e-34
1.7437443e-34
1.744141e-34
1.7473622e-34
1.7444469e-34
1.7437928e-34
1.7436739e-34
1.7436522e-34
1.7436472e-34
1.7436475e-34
1.743661e-34
1.7437447e-34
1.7441413e-34
1.7473727e-34
1.7444593e-34
1.743806e-34
1.7436874e-34
1.7436658e-34
1.7436607e-34
1.743661e-34
1.7436746e-34
1.7437582e-34
1.7441549e-34
1.7474389e-34
1.7445381e-34
1.7438887e-34
1.7437708e-34
1.7437493e-34
1.7437443e-34
1.7437447e-34
1.7437582e-34
1.743842e-34
1.7442389e-34
1.7477565e-34
1.7449202e-34
1.7442831e-34
1.7441671e-34
1.7441459e-34
1.744141e-34
1.7441413e-34
1.7441549e-34
1.7442389e-34
1.7446372e-34
4.6787014e-34
4.6711215e-34
4.6694181e-34
4.6691081e-34
4.6690513e-34
4.6690376e-34
4.6690369e-34
4.6690634e-34
4.6692307e-34
4.6700304e-34
4.6711215e-34
4.6635867e-34
4.6618923e-34
4.6615837e-34
4.6615271e-34
4.6615136e-34
4.6615137e-34
4.6615454e-34
4.6617462e-34
4.662717e-34
4.6694181e-34
4.6618923e-34
4.6602003e-34
4.6598922e-34
4.6598357e-34
4.6598223e-34
4.6598228e-34
4.6598567e-34
4.6600677e-34
4.6610711e-34
4.6691081e-34
4.6615837e-34
4.6598922e-34
4.6595842e-34
4.6595278e-34
4.6595145e-34
4.6595151e-34
4.6595495e-34
4.6597626e-34
4.6607711e-34
4.6690513e-34
4.6615271e-34
4.6598357e-34
4.6595278e-34
4.6594714e-34
4.6594581e-34
4.6594588e-34
4.6594934e-34
4.6597069e-34
4.6607161e-34
4.6690376e-34
4.6615136e-34
4.6598223e-34
4.6595145e-34
4.6594581e-34
4.6594448e-34
4.6594456e-34
4.6594803e-34
4.6596938e-34
4.6607031e-34
4.6690369e-34
4.6615137e-34
4.6598228e-34
4.6595151e-34
4.6594588e-34
4.6594456e-34
4.6594464e-34
4.6594811e-34
4.6596947e-34
4.660704e-34
4.6690634e-34
4.6615454e-34
4.6598567e-34
4.6595495e-34
4.6594934e-34
4.6594803e-34
4.6594811e-34
4.6595158e-34
4.6597295e-34
4.6607389e-34
4.6692307e-34
4.6617462e-34
4.6600677e-34
4.6597626e-34
4.6597069e-34
4.6596938e-34
4.6596947e-34
4.6597295e-34
4.6599433e-34
4.6609533e-34
4.6700304e-34
4.662717e-34
4.6610711e-34
4.6607711e-34
4.6607161e-34
4.6607031e-34
4.660704e-34
4.6607389e-34
4.6609533e-34
4.6619668e-34
1.2694243e-33
1.267439e-33
1.2669921e-33
1.2669107e-33
1.2668957e-33
1.2668921e-33
1.2668919e-33
1.2668987e-33
1.2669416e-33
1.267146e-33
1.267439e-33
1.2654654e-33
1.2650209e-33
1.2649398e-33
1.2649249e-33
1.2649213e-33
1.2649213e-33
1.2649296e-33
1.2649815e-33
1.2652319e-33
1.2669921e-33
1.2650209e-33
1.264577e-33
1.264496e-33
1.2644811e-33
1.2644776e-33
1.2644777e-33
1.2644865e-33
1.2645412e-33
1.2648004e-33
1.2669107e-33
1.2649398e-33
1.264496e-33
1.2644151e-33
1.2644002e-33
1.2643967e-33
1.2643968e-33
1.2644058e-33
1.2644611e-33
1.2647216e-33
1.2668957e-33
1.2649249e-33
1.2644811e-33
1.2644002e-33
1.2643854e-33
1.2643818e-33
1.264382e-33
1.264391e-33
1.2644464e-33
1.2647072e-33
1.2668921e-33
1.2649213e-33
1.2644776e-33
1.2643967e-33
1.2643818e-33
1.2643783e-33
1.2643785e-33
1.2643875e-33
1.2644429e-33
1.2647037e-33
1.2668919e-33
1.2649213e-33
1.2644777e-33
1.2643968e-33
1.264382e-33
1.2643785e-33
1.2643787e-33
1.2643877e-33
1.2644431e-33
1.2647039e-33
1.2668987e-33
1.2649296e-33
1.2644865e-33
1.2644058e-33
1.264391e-33
1.2643875e-33
1.2643877e-33
1.2643968e-33
1.2644522e-33
1.264713e-33
1.2669416e-33
1.2649815e-33
1.2645412e-33
1.2644611e-33
1.2644464e-33
1.2644429e-33
1.2644431e-33
1.2644522e-33
1.2645077e-33
1.2647686e-33
1.267146e-33
1.2652319e-33
1.2648004e-33
1.2647216e-33
1.2647072e-33
1.2647037e-33
1.2647039e-33
1.264713e-33
1.2647686e-33
1.2650305e-33
3.4976897e-33
3.4924116e-33
3.4912216e-33
3.4910044e-33
3.4909644e-33
3.4909547e-33
3.4909541e-33
3.4909718e-33
3.4910838e-33
3.4916138e-33
3.4924116e-33
3.4871645e-33
3.4859806e-33
3.4857643e-33
3.4857245e-33
3.4857149e-33
3.4857148e-33
3.4857365e-33
3.485873e-33
3.4865291e-33
3.4912216e-33
3.4859806e-33
3.4847983e-33
3.4845824e-33
3.4845427e-33
3.4845331e-33
3.4845334e-33
3.4845566e-33
3.4847007e-33
3.4853807e-33
3.4910044e-33
3.4857643e-33
3.4845824e-33
3.4843666e-33
3.4843268e-33
3.4843174e-33
3.4843177e-33
3.4843414e-33
3.484487e-33
3.4851708e-33
3.4909644e-33
3.4857245e-33
3.4845427e-33
3.4843268e-33
3.4842871e-33
3.4842777e-33
3.4842781e-33
3.4843019e-33
3.4844478e-33
3.4851321e-33
3.4909547e-33
3.4857149e-33
3.4845331e-33
3.4843174e-33
3.4842777e-33
3.4842683e-33
3.4842687e-33
3.4842926e-33
3.4844385e-33
3.4851229e-33
3.4909541e-33
3.4857148e-33
3.4845334e-33
3.4843177e-33
3.4842781e-33
3.4842687e-33
3.4842692e-33
3.4842931e-33
3.484439e-33
3.4851234e-33
3.4909718e-33
3.4857365e-33
3.4845566e-33
3.4843414e-33
3.4843019e-33
3.4842926e-33
3.4842931e-33
3.4843169e-33
3.4844629e-33
3.4851474e-33
3.4910838e-33
3.485873e-33
3.4847007e-33
3.484487e-33
3.4844478e-33
3.4844385e-33
3.484439e-33
3.4844629e-33
3.484609e-33
3.4852939e-33
3.4916138e-33
3.4865291e-33
3.4853807e-33
3.4851708e-33
3.4851321e-33
3.4851229e-33
3.4851234e-33
3.4851474e-33
3.4852939e-33
3.485981e-33
9.7874298e-33
9.7731861e-33
9.7699694e-33
9.7693813e-33
9.7692727e-33
9.7692463e-33
9.7692445e-33
9.7692917e-33
9.7695878e-33
9.7709834e-33
9.7731861e-33
9.7590248e-33
9.7558245e-33
9.7552391e-33
9.755131e-33
9.7551048e-33
9.7551046e-33
9.7551626e-33
9.7555269e-33
9.7572723e-33
9.7699694e-33
9.7558245e-33
9.7526287e-33
9.7520441e-33
9.7519362e-33
9.7519103e-33
9.7519109e-33
9.7519731e-33
9.7523584e-33
9.7541704e-33
9.7693813e-33
9.7552391e-33
9.7520441e-33
9.7514598e-33
9.751352e-33
9.7513262e-33
9.7513271e-33
9.7513905e-33
9.75178e-33
9.7536024e-33
9.7692727e-33
9.755131e-33
9.7519362e-33
9.751352e-33
9.7512442e-33
9.7512186e-33
9.7512196e-33
9.7512834e-33
9.7516736e-33
9.7534974e-33
9.7692463e-33
9.7551048e-33
9.7519103e-33
9.7513262e-33
9.7512186e-33
9.751193e-33
9.7511941e-33
9.751258e-33
9.7516484e-33
9.7534724e-33
9.7692445e-33
9.7551046e-33
9.7519109e-33
9.7513271e-33
9.7512196e-33
9.7511941e-33
9.7511953e-33
9.7512592e-33
9.7516498e-33
9.7534739e-33
9.7692917e-33
9.7551626e-33
9.7519731e-33
9.7513905e-33
9.7512834e-33
9.751258e-33
9.7512592e-33
9.7513232e-33
9.7517139e-33
9.7535381e-33
9.7695878e-33
9.7555269e-33
9.7523584e-33
9.75178e-33
9.7516736e-33
9.7516484e-33
9.7516498e-33
9.7517139e-33
9.7521048e-33
9.75393e-33
9.7709834e-33
9.7572723e-33
9.7541704e-33
9.7536024e-33
9.7534974e-33
9.7534724e-33
9.7534739e-33
9.7535381e-33
9.75393e-33
9.7557614e-33
2.7815338e-32
2.7776317e-32
2.7767491e-32
2.7765875e-32
2.7765576e-32
2.7765503e-32
2.7765498e-32
2.7765625e-32
2.7766421e-32
2.7770152e-32
2.7776317e-32
2.7737521e-32
2.7728739e-32
2.7727131e-32
2.7726833e-32
2.7726761e-32
2.772676e-32
2.7726917e-32
2.7727905e-32
2.7732621e-32
2.7767491e-32
2.7728739e-32
2.771997e-32
2.7718364e-32
2.7718067e-32
2.7717995e-32
2.7717996e-32
2.7718166e-32
2.7719212e-32
2.7724116e-32
2.7765875e-32
2.7727131e-32
2.7718364e-32
2.7716758e-32
2.7716461e-32
2.771639e-32
2.7716392e-32
2.7716565e-32
2.7717623e-32
2.7722556e-32
2.7765576e-32
2.7726833e-32
2.7718067e-32
2.7716461e-32
2.7716164e-32
2.7716093e-32
2.7716096e-32
2.771627e-32
2.771733e-32
2.7722267e-32
2.7765503e-32
2.7726761e-32
2.7717995e-32
2.771639e-32
2.7716093e-32
2.7716023e-32
2.7716026e-32
2.77162e-32
2.7717261e-32
2.7722198e-32
2.7765498e-32
2.772676e-32
2.7717996e-32
2.7716392e-32
2.7716096e-32
2.7716026e-32
2.7716029e-32
2.7716203e-32
2.7717264e-32
2.7722202e-32
2.7765625e-32
2.7726917e-32
2.7718166e-32
2.7716565e-32
2.771627e-32
2.77162e-32
2.7716203e-32
2.7716377e-32
2.7717439e-32
2.7722377e-32
2.7766421e-32
2.7727905e-32
2.7719212e-32
2.7717623e-32
2.771733e-32
2.7717261e-32
2.7717264e-32
2.7717439e-32
2.7718501e-32
2.7723442e-32
2.7770152e-32
2.7732621e-32
2.7724116e-32
2.7722556e-32
2.7722267e-32
2.7722198e-32
2.7722202e-32
2.7722377e-32
2.7723442e-32
2.7728399e-32
8.0285829e-32
8.0177316e-32
8.0152734e-32
8.0148227e-32
8.0147391e-32
8.0147186e-32
8.014717e-32
8.0147518e-32
8.0149687e-32
8.0159814e-32
8.0177316e-32
8.0069421e-32
8.0044962e-32
8.0040475e-32
8.0039642e-32
8.003944e-32
8.0039436e-32
8.003987e-32
8.0042589e-32
8.0055533e-32
8.0152734e-32
8.0044962e-32
8.0020536e-32
8.0016056e-32
8.0015225e-32
8.0015024e-32
8.0015027e-32
8.0015496e-32
8.0018383e-32
8.0031863e-32
8.0148227e-32
8.0040475e-32
8.0016056e-32
8.0011577e-32
8.0010747e-32
8.0010547e-32
8.0010553e-32
8.001103e-32
8.0013951e-32
8.0027515e-32
8.0147391e-32
8.0039642e-32
8.0015225e-32
8.0010747e-32
8.0009917e-32
8.0009718e-32
8.0009725e-32
8.0010205e-32
8.0013133e-32
8.0026708e-32
8.0147186e-32
8.003944e-32
8.0015024e-32
8.0010547e-32
8.0009718e-32
8.000952e-32
8.0009527e-32
8.0010009e-32
8.0012937e-32
8.0026515e-32
8.014717e-32
8.0039436e-32
8.0015027e-32
8.0010553e-32
8.0009725e-32
8.0009527e-32
8.0009535e-32
8.0010017e-32
8.0012947e-32
8.0026524e-32
8.0147518e-32
8.003987e-32
8.0015496e-32
8.001103e-32
8.0010205e-32
8.0010009e-32
8.0010017e-32
8.00105e-32
8.001343e-32
8.0027009e-32
8.0149687e-32
8.0042589e-32
8.0018383e-32
8.0013951e-32
8.0013133e-32
8.0012937e-32
8.0012947e-32
8.001343e-32
8.0016362e-32
8.0029948e-32
8.0159814e-32
8.0055533e-32
8.0031863e-32
8.0027515e-32
8.0026708e-32
8.0026515e-32
8.0026524e-32
8.0027009e-32
8.0029948e-32
8.0043578e-32
2.3536283e-31
2.3505651e-31
2.3498701e-31
2.3497425e-31
2.3497188e-31
2.3497129e-31
2.3497125e-31
2.3497221e-31
2.3497822e-31
2.3500613e-31
2.3505651e-31
2.3475191e-31
2.3468276e-31
2.3467005e-31
2.3466769e-31
2.3466711e-31
2.346671e-31
2.3466832e-31
2.3467592e-31
2.34712e-31
2.3498701e-31
2.3468276e-31
2.346137e-31
2.3460101e-31
2.3459865e-31
2.3459808e-31
2.3459809e-31
2.345994e-31
2.3460749e-31
2.3464513e-31
2.3497425e-31
2.3467005e-31
2.3460101e-31
2.3458833e-31
2.3458597e-31
2.3458541e-31
2.3458542e-31
2.3458676e-31
2.3459495e-31
2.3463283e-31
2.3497188e-31
2.3466769e-31
2.3459865e-31
2.3458597e-31
2.3458362e-31
2.3458305e-31
2.3458307e-31
2.3458442e-31
2.3459263e-31
2.3463054e-31
2.3497129e-31
2.3466711e-31
2.3459808e-31
2.3458541e-31
2.3458305e-31
2.3458249e-31
2.3458251e-31
2.3458386e-31
2.3459207e-31
2.3462999e-31
2.3497125e-31
2.346671e-31
2.3459809e-31
2.3458542e-31
2.3458307e-31
2.3458251e-31
2.3458253e-31
2.3458388e-31
2.345921e-31
2.3463002e-31
2.3497221e-31
2.3466832e-31
2.345994e-31
2.3458676e-31
2.3458442e-31
2.3458386e-31
2.3458388e-31
2.3458524e-31
2.3459345e-31
2.3463138e-31
2.3497822e-31
2.3467592e-31
2.3460749e-31
2.3459495e-31
2.3459263e-31
2.3459207e-31
2.345921e-31
2.3459345e-31
2.3460167e-31
2.3463962e-31
2.3500613e-31
2.34712e-31
2.3464513e-31
2.3463283e-31
2.3463054e-31
2.3462999e-31
2.3463002e-31
2.3463138e-31
2.3463962e-31
2.3467769e-31
7.0077982e-31
6.9990202e-31
6.9970257e-31
6.996659e-31
6.9965907e-31
6.9965738e-31
6.9965724e-31
6.9965995e-31
6.9967685e-31
6.9975494e-31
6.9990202e-31
6.9902913e-31
6.9883066e-31
6.9879415e-31
6.9878735e-31
6.9878568e-31
6.9878564e-31
6.987891e-31
6.9881068e-31
6.9891287e-31
6.9970257e-31
6.9883066e-31
6.9863246e-31
6.98596e-31
6.9858921e-31
6.9858756e-31
6.9858757e-31
6.9859133e-31
6.9861435e-31
6.9872111e-31
6.996659e-31
6.9879415e-31
6.98596e-31
6.9855956e-31
6.9855277e-31
6.9855113e-31
6.9855117e-31
6.98555e-31
6.9857831e-31
6.9868579e-31
6.9965907e-31
6.9878735e-31
6.9858921e-31
6.9855277e-31
6.9854599e-31
6.9854436e-31
6.985444e-31
6.9854826e-31
6.9857162e-31
6.986792e-31
6.9965738e-31
6.9878568e-31
6.9858756e-31
6.9855113e-31
6.9854436e-31
6.9854273e-31
6.9854278e-31
6.9854664e-31
6.9857002e-31
6.9867761e-31
6.9965724e-31
6.9878564e-31
6.9858757e-31
6.9855117e-31
6.985444e-31
6.9854278e-31
6.9854283e-31
6.985467e-31
6.9857009e-31
6.9867768e-31
6.9965995e-31
6.987891e-31
6.9859133e-31
6.98555e-31
6.9854826e-31
6.9854664e-31
6.985467e-31
6.9855057e-31
6.9857396e-31
6.9868157e-31
6.9967685e-31
6.9881068e-31
6.9861435e-31
6.9857831e-31
6.9857162e-31
6.9857002e-31
6.9857009e-31
6.9857396e-31
6.9859737e-31
6.9870503e-31
6.9975494e-31
6.9891287e-31
6.9872111e-31
6.9868579e-31
6.986792e-31
6.9867761e-31
6.9867768e-31
6.9868157e-31
6.9870503e-31
6.9881303e-31
2.1191647e-30
2.1166114e-30
2.1160304e-30
2.1159235e-30
2.1159035e-30
2.1158986e-30
2.1158981e-30
2.1159059e-30
2.1159541e-30
2.116176e-30
2.1166114e-30
2.1140723e-30
2.1134941e-30
2.1133876e-30
2.1133677e-30
2.1133628e-30
2.1133627e-30
2.1133727e-30
2.113435e-30
2.1137289e-30
2.1160304e-30
2.1134941e-30
2.1129167e-30
2.1128104e-30
2.1127905e-30
2.1127857e-30
2.1127857e-30
2.1127966e-30
2.1128632e-30
2.1131708e-30
2.1159235e-30
2.1133876e-30
2.1128104e-30
2.1127041e-30
2.1126842e-30
2.1126794e-30
2.1126795e-30
2.1126906e-30
2.1127581e-30
2.1130678e-30
2.1159035e-30
2.1133677e-30
2.1127905e-30
2.1126842e-30
2.1126644e-30
2.1126596e-30
2.1126597e-30
2.1126709e-30
2.1127385e-30
2.1130485e-30
2.1158986e-30
2.1133628e-30
2.1127857e-30
2.1126794e-30
2.1126596e-30
2.1126548e-30
2.112655e-30
2.1126662e-30
2.1127338e-30
2.1130439e-30
2.1158981e-30
2.1133627e-30
2.1127857e-30
2.1126795e-30
2.1126597e-30
2.112655e-30
2.1126551e-30
2.1126663e-30
2.112734e-30
2.1130441e-30
2.1159059e-30
2.1133727e-30
2.1127966e-30
2.1126906e-30
2.1126709e-30
2.1126662e-30
2.1126663e-30
2.1126776e-30
2.1127452e-30
2.1130554e-30
2.1159541e-30
2.113435e-30
2.1128632e-30
2.1127581e-30
2.1127385e-30
2.1127338e-30
2.112734e-30
2.1127452e-30
2.1128129e-30
2.1131232e-30
2.116176e-30
2.1137289e-30
2.1131708e-30
2.1130678e-30
2.1130485e-30
2.1130439e-30
2.1130441e-30
2.1130554e-30
2.1131232e-30
2.1134344e-30
6.5084284e-30
6.5008899e-30
6.4991722e-30
6.4988555e-30
6.4987963e-30
6.4987816e-30
6.4987802e-30
6.4988028e-30
6.4989427e-30
6.4995826e-30
6.5008899e-30
6.493393e-30
6.4916835e-30
6.4913682e-30
6.4913091e-30
6.4912946e-30
6.4912942e-30
6.4913235e-30
6.4915059e-30
6.4923646e-30
6.4991722e-30
6.4916835e-30
6.4899763e-30
6.4896614e-30
6.4896025e-30
6.4895881e-30
6.4895882e-30
6.4896202e-30
6.4898157e-30
6.4907158e-30
6.4988555e-30
6.4913682e-30
6.4896614e-30
6.4893467e-30
6.4892878e-30
6.4892735e-30
6.4892737e-30
6.4893065e-30
6.4895046e-30
6.4904113e-30
6.4987963e-30
6.4913091e-30
6.4896025e-30
6.4892878e-30
6.489229e-30
6.4892147e-30
6.4892151e-30
6.489248e-30
6.4894466e-30
6.4903542e-30
6.4987816e-30
6.4912946e-30
6.4895881e-30
6.4892735e-30
6.4892147e-30
6.4892005e-30
6.4892009e-30
6.4892339e-30
6.4894326e-30
6.4903404e-30
6.4987802e-30
6.4912942e-30
6.4895882e-30
6.4892737e-30
6.4892151e-30
6.4892009e-30
6.4892013e-30
6.4892344e-30
6.4894331e-30
6.4903409e-30
6.4988028e-30
6.4913235e-30
6.4896202e-30
6.4893065e-30
6.489248e-30
6.4892339e-30
6.4892344e-30
6.4892675e-30
6.4894663e-30
6.4903741e-30
6.4989427e-30
6.4915059e-30
6.4898157e-30
6.4895046e-30
6.4894466e-30
6.4894326e-30
6.4894331e-30
6.4894663e-30
6.4896652e-30
6.4905735e-30
6.4995826e-30
6.4923646e-30
6.4907158e-30
6.4904113e-30
6.4903542e-30
6.4903404e-30
6.4903409e-30
6.4903741e-30
6.4905735e-30
6.4914845e-30
2.0300118e-29
2.0277528e-29
2.0272374e-29
2.0271422e-29
2.0271244e-29
2.02712e-29
2.0271195e-29
2.0271262e-29
2.0271674e-29
2.0273548e-29
2.0277528e-29
2.0255062e-29
2.0249932e-29
2.0248985e-29
2.0248807e-29
2.0248763e-29
2.0248761e-29
2.0248849e-29
2.0249392e-29
2.025194e-29
2.0272374e-29
2.0249932e-29
2.0244809e-29
2.0243863e-29
2.0243685e-29
2.0243642e-29
2.0243642e-29
2.0243738e-29
2.0244321e-29
2.0246997e-29
2.0271422e-29
2.0248985e-29
2.0243863e-29
2.0242917e-29
2.024274e-29
2.0242697e-29
2.0242697e-29
2.0242795e-29
2.0243386e-29
2.0246082e-29
2.0271244e-29
2.0248807e-29
2.0243685e-29
2.024274e-29
2.0242563e-29
2.024252e-29
2.024252e-29
2.0242619e-29
2.0243212e-29
2.024591e-29
2.02712e-29
2.0248763e-29
2.0243642e-29
2.0242697e-29
2.024252e-29
2.0242477e-29
2.0242478e-29
2.0242577e-29
2.024317e-29
2.0245869e-29
2.0271195e-29
2.0248761e-29
2.0243642e-29
2.0242697e-29
2.024252e-29
2.0242478e-29
2.0242479e-29
2.0242578e-29
2.0243171e-29
2.024587e-29
2.0271262e-29
2.0248849e-29
2.0243738e-29
2.0242795e-29
2.0242619e-29
2.0242577e-29
2.0242578e-29
2.0242677e-29
2.024327e-29
2.024597e-29
2.0271674e-29
2.0249392e-29
2.0244321e-29
2.0243386e-29
2.0243212e-29
2.024317e-29
2.0243171e-29
2.024327e-29
2.0243864e-29
2.0246565e-29
2.0273548e-29
2.025194e-29
2.0246997e-29
2.0246082e-29
2.024591e-29
2.0245869e-29
2.024587e-29
2.024597e-29
2.0246565e-29
2.0249273e-29
6.4299599e-29
6.4230898e-29
6.4215202e-29
6.4212301e-29
6.4211756e-29
6.421162e-29
6.4211605e-29
6.4211806e-29
6.4213037e-29
6.4218608e-29
6.4230898e-29
6.4162571e-29
6.4146948e-29
6.4144059e-29
6.4143516e-29
6.4143382e-29
6.4143376e-29
6.4143641e-29
6.4145282e-29
6.4152961e-29
6.4215202e-29
6.4146948e-29
6.4131346e-29
6.4128461e-29
6.4127919e-29
6.4127786e-29
6.4127785e-29
6.4128076e-29
6.4129842e-29
6.4137922e-29
6.4212301e-29
6.4144059e-29
6.4128461e-29
6.4125577e-29
6.4125035e-29
6.4124903e-29
6.4124905e-29
6.4125202e-29
6.4126994e-29
6.4135136e-29
6.4211756e-29
6.4143516e-29
6.4127919e-29
6.4125035e-29
6.4124494e-29
6.4124362e-29
6.4124365e-29
6.4124664e-29
6.412646e-29
6.4134611e-29
6.421162e-29
6.4143382e-29
6.4127786e-29
6.4124903e-29
6.4124362e-29
6.4124231e-29
6.4124234e-29
6.4124534e-29
6.4126331e-29
6.4134483e-29
6.4211605e-29
6.4143376e-29
6.4127785e-29
6.4124905e-29
6.4124365e-29
6.4124234e-29
6.4124237e-29
6.4124538e-29
6.4126336e-29
6.4134488e-29
6.4211806e-29
6.4143641e-29
6.4128076e-29
6.4125202e-29
6.4124664e-29
6.4124534e-29
6.4124538e-29
6.4124839e-29
6.4126637e-29
6.413479e-29
6.4213037e-29
6.4145282e-29
6.4129842e-29
6.4126994e-29
6.412646e-29
6.4126331e-29
6.4126336e-29
6.4126637e-29
6.4128436e-29
6.4136593e-29
6.4218608e-29
6.4152961e-29
6.4137922e-29
6.4135136e-29
6.4134611e-29
6.4134483e-29
6.4134488e-29
6.413479e-29
6.4136593e-29
6.4144773e-29
2.0681149e-28
2.0659947e-28
2.0655096e-28
2.0654198e-28
2.0654029e-28
2.0653987e-28
2.0653983e-28
2.0654044e-28
2.0654417e-28
2.0656099e-28
2.0659947e-28
2.0638859e-28
2.0634031e-28
2.0633137e-28
2.0632969e-28
2.0632927e-28
2.0632925e-28
2.0633007e-28
2.063351e-28
2.0635861e-28
2.0655096e-28
2.0634031e-28
2.0629209e-28
2.0628317e-28
2.0628148e-28
2.0628107e-28
2.0628107e-28
2.0628197e-28
2.062874e-28
2.0631217e-28
2.0654198e-28
2.0633137e-28
2.0628317e-28
2.0627424e-28
2.0627256e-28
2.0627215e-28
2.0627216e-28
2.0627307e-28
2.0627859e-28
2.0630356e-28
2.0654029e-28
2.0632969e-28
2.0628148e-28
2.0627256e-28
2.0627088e-28
2.0627047e-28
2.0627048e-28
2.0627141e-28
2.0627693e-28
2.0630194e-28
2.0653987e-28
2.0632927e-28
2.0628107e-28
2.0627215e-28
2.0627047e-28
2.0627007e-28
2.0627008e-28
2.06271e-28
2.0627653e-28
2.0630154e-28
2.0653983e-28
2.0632925e-28
2.0628107e-28
2.0627216e-28
2.0627048e-28
2.0627008e-28
2.0627009e-28
2.0627101e-28
2.0627655e-28
2.0630155e-28
2.0654044e-28
2.0633007e-28
2.0628197e-28
2.0627307e-28
2.0627141e-28
2.06271e-28
2.0627101e-28
2.0627194e-28
2.0627748e-28
2.0630249e-28
2.0654417e-28
2.063351e-28
2.062874e-28
2.0627859e-28
2.0627693e-28
2.0627653e-28
2.0627655e-28
2.0627748e-28
2.0628301e-28
2.0630804e-28
2.0656099e-28
2.0635861e-28
2.0631217e-28
2.0630356e-28
2.0630194e-28
2.0630154e-28
2.0630155e-28
2.0630249e-28