/*--------------------------------*- C++ -*----------------------------------*\
| =========                 |                                                 |
| \\      /  F ield         | OpenFOAM: The Open Source CFD Toolbox           |
|  \\    /   O peration     | Version:  dev                                   |
|   \\  /    A nd           | Web:      www.OpenFOAM.org                      |
|    \\/     M anipulation  |                                                 |
\*---------------------------------------------------------------------------*/
FoamFile
{
    version     2.0;
    format      ascii;
    class       volScalarField;
    location    "93.995";
    object      A;
}
// * * * * * * * * * * * * * * * * * * * * * * * * * * * * * * * * * * * * * //

dimensions      [0 0 0 0 1 0 0];

internalField   nonuniform List<scalar> 
10000
(
8.0322842e-22
8.0254522e-22
8.0216346e-22
8.0193995e-22
8.0181447e-22
8.0175295e-22
8.0173745e-22
8.0176365e-22
8.018425e-22
8.0199644e-22
8.0254522e-22
8.0186458e-22
8.0148372e-22
8.0126067e-22
8.0113553e-22
8.0107444e-22
8.0105972e-22
8.0108765e-22
8.0117084e-22
8.0133713e-22
8.0216346e-22
8.0148372e-22
8.0110346e-22
8.0088084e-22
8.0075611e-22
8.006956e-22
8.0068186e-22
8.0071155e-22
8.0079781e-22
8.0096839e-22
8.0193995e-22
8.0126067e-22
8.0088084e-22
8.0065862e-22
8.0053432e-22
8.0047437e-22
8.0046147e-22
8.0049244e-22
8.0058044e-22
8.007527e-22
8.0181447e-22
8.0113553e-22
8.0075611e-22
8.0053432e-22
8.0041046e-22
8.0035101e-22
8.0033874e-22
8.0037053e-22
8.0045947e-22
8.0063246e-22
8.0175295e-22
8.0107444e-22
8.006956e-22
8.0047437e-22
8.0035101e-22
8.0029201e-22
8.0028022e-22
8.0031252e-22
8.0040197e-22
8.005753e-22
8.0173745e-22
8.0105972e-22
8.0068186e-22
8.0046147e-22
8.0033874e-22
8.0028022e-22
8.0026881e-22
8.0030146e-22
8.003912e-22
8.0056472e-22
8.0176365e-22
8.0108765e-22
8.0071155e-22
8.0049244e-22
8.0037053e-22
8.0031252e-22
8.0030146e-22
8.0033436e-22
8.0042431e-22
8.0059796e-22
8.018425e-22
8.0117084e-22
8.0079781e-22
8.0058044e-22
8.0045947e-22
8.0040197e-22
8.003912e-22
8.0042431e-22
8.0051444e-22
8.0068829e-22
8.0199644e-22
8.0133713e-22
8.0096839e-22
8.007527e-22
8.0063246e-22
8.005753e-22
8.0056472e-22
8.0059796e-22
8.0068829e-22
8.0086263e-22
2.6255733e-21
2.6234278e-21
2.6221926e-21
2.6214677e-21
2.6210604e-21
2.6208606e-21
2.6208101e-21
2.6208947e-21
2.6211502e-21
2.6216667e-21
2.6234278e-21
2.6212902e-21
2.6200578e-21
2.6193344e-21
2.6189281e-21
2.6187297e-21
2.6186818e-21
2.618772e-21
2.6190418e-21
2.6195988e-21
2.6221926e-21
2.6200578e-21
2.6188274e-21
2.6181054e-21
2.6177005e-21
2.617504e-21
2.6174592e-21
2.6175552e-21
2.6178349e-21
2.6184059e-21
2.6214677e-21
2.6193344e-21
2.6181054e-21
2.6173846e-21
2.6169811e-21
2.6167864e-21
2.6167444e-21
2.6168445e-21
2.61713e-21
2.6177065e-21
2.6210604e-21
2.6189281e-21
2.6177005e-21
2.6169811e-21
2.6165791e-21
2.616386e-21
2.616346e-21
2.6164488e-21
2.6167373e-21
2.6173162e-21
2.6208606e-21
2.6187297e-21
2.617504e-21
2.6167864e-21
2.616386e-21
2.6161944e-21
2.6161559e-21
2.6162605e-21
2.6165506e-21
2.6171306e-21
2.6208101e-21
2.6186818e-21
2.6174592e-21
2.6167444e-21
2.616346e-21
2.6161559e-21
2.6161188e-21
2.6162244e-21
2.6165155e-21
2.6170961e-21
2.6208947e-21
2.618772e-21
2.6175552e-21
2.6168445e-21
2.6164488e-21
2.6162605e-21
2.6162244e-21
2.6163309e-21
2.6166226e-21
2.6172037e-21
2.6211502e-21
2.6190418e-21
2.6178349e-21
2.61713e-21
2.6167373e-21
2.6165506e-21
2.6165155e-21
2.6166226e-21
2.616915e-21
2.6174967e-21
2.6216667e-21
2.6195988e-21
2.6184059e-21
2.6177065e-21
2.6173162e-21
2.6171306e-21
2.6170961e-21
2.6172037e-21
2.6174967e-21
2.6180801e-21
5.165436e-21
5.1613571e-21
5.1589702e-21
5.1575649e-21
5.1567743e-21
5.1563859e-21
5.1562871e-21
5.1564498e-21
5.1569434e-21
5.1579737e-21
5.1613571e-21
5.1572928e-21
5.1549114e-21
5.1535089e-21
5.1527203e-21
5.1523347e-21
5.1522409e-21
5.1524146e-21
5.152936e-21
5.1540459e-21
5.1589702e-21
5.1549114e-21
5.1525338e-21
5.151134e-21
5.1503481e-21
5.1499661e-21
5.1498785e-21
5.1500635e-21
5.1506045e-21
5.1517419e-21
5.1575649e-21
5.1535089e-21
5.151134e-21
5.1497367e-21
5.1489535e-21
5.1485751e-21
5.1484929e-21
5.148686e-21
5.1492381e-21
5.1503863e-21
5.1567743e-21
5.1527203e-21
5.1503481e-21
5.1489535e-21
5.1481731e-21
5.1477979e-21
5.1477197e-21
5.147918e-21
5.1484762e-21
5.1496289e-21
5.1563859e-21
5.1523347e-21
5.1499661e-21
5.1485751e-21
5.1477979e-21
5.1474255e-21
5.1473504e-21
5.147552e-21
5.1481134e-21
5.1492684e-21
5.1562871e-21
5.1522409e-21
5.1498785e-21
5.1484929e-21
5.1477197e-21
5.1473504e-21
5.1472777e-21
5.1474815e-21
5.1480448e-21
5.1492009e-21
5.1564498e-21
5.1524146e-21
5.1500635e-21
5.148686e-21
5.147918e-21
5.147552e-21
5.1474815e-21
5.1476869e-21
5.1482515e-21
5.1494085e-21
5.1569434e-21
5.152936e-21
5.1506045e-21
5.1492381e-21
5.1484762e-21
5.1481134e-21
5.1480448e-21
5.1482515e-21
5.1488172e-21
5.1499755e-21
5.1579737e-21
5.1540459e-21
5.1517419e-21
5.1503863e-21
5.1496289e-21
5.1492684e-21
5.1492009e-21
5.1494085e-21
5.1499755e-21
5.1511372e-21
9.1468899e-21
9.139907e-21
9.1357783e-21
9.133339e-21
9.1319641e-21
9.1312878e-21
9.1311143e-21
9.1313932e-21
9.1322429e-21
9.1340393e-21
9.139907e-21
9.1329491e-21
9.1288296e-21
9.1263951e-21
9.1250239e-21
9.1243523e-21
9.1241876e-21
9.1244859e-21
9.1253847e-21
9.1273217e-21
9.1357783e-21
9.1288296e-21
9.1247166e-21
9.1222868e-21
9.1209202e-21
9.1202551e-21
9.1201013e-21
9.1204194e-21
9.1213527e-21
9.1233381e-21
9.133339e-21
9.1263951e-21
9.1222868e-21
9.1198615e-21
9.1184996e-21
9.1178407e-21
9.1176964e-21
9.1180289e-21
9.1189817e-21
9.120986e-21
9.1319641e-21
9.1250239e-21
9.1209202e-21
9.1184996e-21
9.1171426e-21
9.1164893e-21
9.116352e-21
9.1166937e-21
9.1176571e-21
9.1196696e-21
9.1312878e-21
9.1243523e-21
9.1202551e-21
9.1178407e-21
9.1164893e-21
9.1158411e-21
9.1157091e-21
9.1160566e-21
9.1170257e-21
9.1190421e-21
9.1311143e-21
9.1241876e-21
9.1201013e-21
9.1176964e-21
9.116352e-21
9.1157091e-21
9.1155815e-21
9.1159328e-21
9.1169052e-21
9.1189236e-21
9.1313932e-21
9.1244859e-21
9.1204194e-21
9.1180289e-21
9.1166937e-21
9.1160566e-21
9.1159328e-21
9.116287e-21
9.1172617e-21
9.1192816e-21
9.1322429e-21
9.1253847e-21
9.1213527e-21
9.1189817e-21
9.1176571e-21
9.1170257e-21
9.1169052e-21
9.1172617e-21
9.1182383e-21
9.1202605e-21
9.1340393e-21
9.1273217e-21
9.1233381e-21
9.120986e-21
9.1196696e-21
9.1190421e-21
9.1189236e-21
9.1192816e-21
9.1202605e-21
9.1222887e-21
1.5763422e-20
1.5751791e-20
1.5744864e-20
1.5740758e-20
1.5738438e-20
1.5737295e-20
1.5736999e-20
1.5737462e-20
1.5738875e-20
1.5741869e-20
1.5751791e-20
1.5740202e-20
1.573329e-20
1.5729191e-20
1.5726878e-20
1.5725744e-20
1.5725462e-20
1.5725958e-20
1.5727456e-20
1.5730691e-20
1.5744864e-20
1.573329e-20
1.5726389e-20
1.5722298e-20
1.5719993e-20
1.5718869e-20
1.5718607e-20
1.5719137e-20
1.5720693e-20
1.5724011e-20
1.5740758e-20
1.5729191e-20
1.5722298e-20
1.5718215e-20
1.5715918e-20
1.5714805e-20
1.5714558e-20
1.5715113e-20
1.5716703e-20
1.5720053e-20
1.5738438e-20
1.5726878e-20
1.5719993e-20
1.5715918e-20
1.5713629e-20
1.5712525e-20
1.5712291e-20
1.5712861e-20
1.5714469e-20
1.5717834e-20
1.5737295e-20
1.5725744e-20
1.5718869e-20
1.5714805e-20
1.5712525e-20
1.571143e-20
1.5711205e-20
1.5711785e-20
1.5713403e-20
1.5716774e-20
1.5736999e-20
1.5725462e-20
1.5718607e-20
1.5714558e-20
1.5712291e-20
1.5711205e-20
1.5710987e-20
1.5711574e-20
1.5713197e-20
1.5716572e-20
1.5737462e-20
1.5725958e-20
1.5719137e-20
1.5715113e-20
1.5712861e-20
1.5711785e-20
1.5711574e-20
1.5712165e-20
1.5713793e-20
1.571717e-20
1.5738875e-20
1.5727456e-20
1.5720693e-20
1.5716703e-20
1.5714469e-20
1.5713403e-20
1.5713197e-20
1.5713793e-20
1.5715423e-20
1.5718804e-20
1.5741869e-20
1.5730691e-20
1.5724011e-20
1.5720053e-20
1.5717834e-20
1.5716774e-20
1.5716572e-20
1.571717e-20
1.5718804e-20
1.5722195e-20
2.7077676e-20
2.7058375e-20
2.7046813e-20
2.7039936e-20
2.7036044e-20
2.7034123e-20
2.703362e-20
2.7034382e-20
2.7036715e-20
2.7041641e-20
2.7058375e-20
2.7039142e-20
2.7027606e-20
2.7020742e-20
2.701686e-20
2.7014953e-20
2.7014475e-20
2.7015294e-20
2.7017771e-20
2.7023109e-20
2.7046813e-20
2.7027606e-20
2.7016087e-20
2.7009237e-20
2.7005368e-20
2.7003479e-20
2.7003033e-20
2.700391e-20
2.7006487e-20
2.7011967e-20
2.7039936e-20
2.7020742e-20
2.7009237e-20
2.7002399e-20
2.6998544e-20
2.6996673e-20
2.6996255e-20
2.6997173e-20
2.6999808e-20
2.7005343e-20
2.7036044e-20
2.701686e-20
2.7005368e-20
2.6998544e-20
2.6994704e-20
2.6992848e-20
2.6992451e-20
2.6993396e-20
2.6996061e-20
2.700162e-20
2.7034123e-20
2.7014953e-20
2.7003479e-20
2.6996673e-20
2.6992848e-20
2.6991008e-20
2.6990626e-20
2.6991588e-20
2.699427e-20
2.699984e-20
2.703362e-20
2.7014475e-20
2.7003033e-20
2.6996255e-20
2.6992451e-20
2.6990626e-20
2.6990257e-20
2.699123e-20
2.6993921e-20
2.6999497e-20
2.7034382e-20
2.7015294e-20
2.700391e-20
2.6997173e-20
2.6993396e-20
2.6991588e-20
2.699123e-20
2.6992211e-20
2.6994909e-20
2.7000489e-20
2.7036715e-20
2.7017771e-20
2.7006487e-20
2.6999808e-20
2.6996061e-20
2.699427e-20
2.6993921e-20
2.6994909e-20
2.6997612e-20
2.7003199e-20
2.7041641e-20
2.7023109e-20
2.7011967e-20
2.7005343e-20
2.700162e-20
2.699984e-20
2.6999497e-20
2.7000489e-20
2.7003199e-20
2.7008802e-20
4.6741669e-20
4.6709496e-20
4.6690126e-20
4.6678568e-20
4.6672013e-20
4.6668771e-20
4.6667914e-20
4.6669173e-20
4.6673033e-20
4.6681137e-20
4.6709496e-20
4.6677436e-20
4.6658108e-20
4.6646572e-20
4.6640034e-20
4.6636815e-20
4.6636001e-20
4.6637358e-20
4.6641464e-20
4.6650276e-20
4.6690126e-20
4.6658108e-20
4.6638809e-20
4.6627296e-20
4.662078e-20
4.6617593e-20
4.6616834e-20
4.6618289e-20
4.6622567e-20
4.6631622e-20
4.6678568e-20
4.6646572e-20
4.6627296e-20
4.6615803e-20
4.6609311e-20
4.6606155e-20
4.6605442e-20
4.6606969e-20
4.6611345e-20
4.6620495e-20
4.6672013e-20
4.6640034e-20
4.662078e-20
4.6609311e-20
4.6602843e-20
4.6599714e-20
4.6599037e-20
4.6600609e-20
4.6605038e-20
4.6614229e-20
4.6668771e-20
4.6636815e-20
4.6617593e-20
4.6606155e-20
4.6599714e-20
4.659661e-20
4.659596e-20
4.6597561e-20
4.6602017e-20
4.6611228e-20
4.6667914e-20
4.6636001e-20
4.6616834e-20
4.6605442e-20
4.6599037e-20
4.659596e-20
4.659533e-20
4.659695e-20
4.6601423e-20
4.6610644e-20
4.6669173e-20
4.6637358e-20
4.6618289e-20
4.6606969e-20
4.6600609e-20
4.6597561e-20
4.659695e-20
4.6598584e-20
4.6603068e-20
4.6612296e-20
4.6673033e-20
4.6641464e-20
4.6622567e-20
4.6611345e-20
4.6605038e-20
4.6602017e-20
4.6601423e-20
4.6603068e-20
4.6607562e-20
4.66168e-20
4.6681137e-20
4.6650276e-20
4.6631622e-20
4.6620495e-20
4.6614229e-20
4.6611228e-20
4.6610644e-20
4.6612296e-20
4.66168e-20
4.6626065e-20
8.1316475e-20
8.1262451e-20
8.122977e-20
8.1210209e-20
8.1199092e-20
8.1193582e-20
8.1192111e-20
8.1194206e-20
8.1200633e-20
8.1214041e-20
8.1262451e-20
8.1208613e-20
8.1176002e-20
8.1156478e-20
8.114539e-20
8.1139921e-20
8.1138525e-20
8.1140787e-20
8.1147639e-20
8.116227e-20
8.122977e-20
8.1176002e-20
8.1143442e-20
8.1123956e-20
8.1112906e-20
8.1107491e-20
8.1106188e-20
8.110862e-20
8.1115769e-20
8.1130821e-20
8.1210209e-20
8.1156478e-20
8.1123956e-20
8.1104505e-20
8.1093496e-20
8.1088134e-20
8.1086912e-20
8.1089466e-20
8.1096784e-20
8.1111999e-20
8.1199092e-20
8.114539e-20
8.1112906e-20
8.1093496e-20
8.1082527e-20
8.1077212e-20
8.1076051e-20
8.1078685e-20
8.1086092e-20
8.1101378e-20
8.1193582e-20
8.1139921e-20
8.1107491e-20
8.1088134e-20
8.1077212e-20
8.1071941e-20
8.1070825e-20
8.1073508e-20
8.1080965e-20
8.1096283e-20
8.1192111e-20
8.1138525e-20
8.1106188e-20
8.1086912e-20
8.1076051e-20
8.1070825e-20
8.1069745e-20
8.1072461e-20
8.1079946e-20
8.1095282e-20
8.1194206e-20
8.1140787e-20
8.110862e-20
8.1089466e-20
8.1078685e-20
8.1073508e-20
8.1072461e-20
8.1075201e-20
8.1082705e-20
8.1098053e-20
8.1200633e-20
8.1147639e-20
8.1115769e-20
8.1096784e-20
8.1086092e-20
8.1080965e-20
8.1079946e-20
8.1082705e-20
8.1090225e-20
8.110559e-20
8.1214041e-20
8.116227e-20
8.1130821e-20
8.1111999e-20
8.1101378e-20
8.1096283e-20
8.1095282e-20
8.1098053e-20
8.110559e-20
8.1121e-20
1.427187e-19
1.4262722e-19
1.4257162e-19
1.4253825e-19
1.4251924e-19
1.425098e-19
1.4250726e-19
1.4251077e-19
1.4252156e-19
1.4254391e-19
1.4262722e-19
1.4253605e-19
1.4248057e-19
1.4244726e-19
1.424283e-19
1.4241893e-19
1.4241652e-19
1.4242032e-19
1.4243185e-19
1.4245633e-19
1.4257162e-19
1.4248057e-19
1.4242518e-19
1.4239193e-19
1.4237304e-19
1.4236376e-19
1.4236151e-19
1.4236561e-19
1.4237766e-19
1.4240287e-19
1.4253825e-19
1.4244726e-19
1.4239193e-19
1.4235874e-19
1.4233992e-19
1.4233074e-19
1.4232863e-19
1.4233294e-19
1.4234527e-19
1.4237077e-19
1.4251924e-19
1.424283e-19
1.4237304e-19
1.4233992e-19
1.4232117e-19
1.4231207e-19
1.4231006e-19
1.4231451e-19
1.42327e-19
1.4235263e-19
1.425098e-19
1.4241893e-19
1.4236376e-19
1.4233074e-19
1.4231207e-19
1.4230304e-19
1.4230111e-19
1.4230565e-19
1.4231823e-19
1.4234391e-19
1.4250726e-19
1.4241652e-19
1.4236151e-19
1.4232863e-19
1.4231006e-19
1.4230111e-19
1.4229925e-19
1.4230384e-19
1.4231647e-19
1.4234218e-19
1.4251077e-19
1.4242032e-19
1.4236561e-19
1.4233294e-19
1.4231451e-19
1.4230565e-19
1.4230384e-19
1.4230847e-19
1.4232113e-19
1.4234686e-19
1.4252156e-19
1.4243185e-19
1.4237766e-19
1.4234527e-19
1.42327e-19
1.4231823e-19
1.4231647e-19
1.4232113e-19
1.4233382e-19
1.4235958e-19
1.4254391e-19
1.4245633e-19
1.4240287e-19
1.4237077e-19
1.4235263e-19
1.4234391e-19
1.4234218e-19
1.4234686e-19
1.4235958e-19
1.4238542e-19
2.5280015e-19
2.5264387e-19
2.5254847e-19
2.5249103e-19
2.5245824e-19
2.5244194e-19
2.524375e-19
2.5244344e-19
2.5246171e-19
2.5249929e-19
2.5264387e-19
2.5248812e-19
2.5239293e-19
2.5233559e-19
2.5230289e-19
2.522867e-19
2.522825e-19
2.5228895e-19
2.5230851e-19
2.5234984e-19
2.5254847e-19
2.5239293e-19
2.5229788e-19
2.5224065e-19
2.5220807e-19
2.5219205e-19
2.5218812e-19
2.5219509e-19
2.5221557e-19
2.5225818e-19
2.5249103e-19
2.5233559e-19
2.5224065e-19
2.5218353e-19
2.5215107e-19
2.5213521e-19
2.5213153e-19
2.5213887e-19
2.5215986e-19
2.5220297e-19
2.5245824e-19
2.5230289e-19
2.5220807e-19
2.5215107e-19
2.5211873e-19
2.5210301e-19
2.5209952e-19
2.521071e-19
2.5212836e-19
2.5217169e-19
2.5244194e-19
2.522867e-19
2.5219205e-19
2.5213521e-19
2.5210301e-19
2.5208742e-19
2.5208407e-19
2.520918e-19
2.5211321e-19
2.5215664e-19
2.524375e-19
2.522825e-19
2.5218812e-19
2.5213153e-19
2.5209952e-19
2.5208407e-19
2.5208082e-19
2.5208865e-19
2.5211015e-19
2.5215363e-19
2.5244344e-19
2.5228895e-19
2.5219509e-19
2.5213887e-19
2.521071e-19
2.520918e-19
2.5208865e-19
2.5209656e-19
2.5211811e-19
2.5216163e-19
2.5246171e-19
2.5230851e-19
2.5221557e-19
2.5215986e-19
2.5212836e-19
2.5211321e-19
2.5211015e-19
2.5211811e-19
2.5213971e-19
2.5218328e-19
2.5249929e-19
2.5234984e-19
2.5225818e-19
2.5220297e-19
2.5217169e-19
2.5215664e-19
2.5215363e-19
2.5216163e-19
2.5218328e-19
2.5222697e-19
4.5199813e-19
4.5172877e-19
4.5156363e-19
4.5146388e-19
4.5140684e-19
4.5137842e-19
4.5137062e-19
4.5138076e-19
4.5141197e-19
4.5147571e-19
4.5172877e-19
4.5146033e-19
4.5129553e-19
4.5119596e-19
4.5113907e-19
4.5111086e-19
4.5110347e-19
4.5111451e-19
4.5114802e-19
4.5121842e-19
4.5156363e-19
4.5129553e-19
4.5113098e-19
4.510316e-19
4.5097492e-19
4.50947e-19
4.5094011e-19
4.5095206e-19
4.5098718e-19
4.5105985e-19
4.5146388e-19
4.5119596e-19
4.510316e-19
4.5093242e-19
4.5087594e-19
4.5084831e-19
4.5084185e-19
4.5085447e-19
4.5089049e-19
4.5096404e-19
4.5140684e-19
4.5113907e-19
4.5097492e-19
4.5087594e-19
4.5081968e-19
4.507923e-19
4.5078617e-19
4.5079921e-19
4.5083572e-19
4.5090966e-19
4.5137842e-19
4.5111086e-19
4.50947e-19
4.5084831e-19
4.507923e-19
4.5076515e-19
4.5075926e-19
4.5077257e-19
4.5080934e-19
4.5088345e-19
4.5137062e-19
4.5110347e-19
4.5094011e-19
4.5084185e-19
4.5078617e-19
4.5075926e-19
4.5075356e-19
4.5076705e-19
4.5080397e-19
4.5087818e-19
4.5138076e-19
4.5111451e-19
4.5095206e-19
4.5085447e-19
4.5079921e-19
4.5077257e-19
4.5076705e-19
4.5078066e-19
4.5081769e-19
4.5089196e-19
4.5141197e-19
4.5114802e-19
4.5098718e-19
4.5089049e-19
4.5083572e-19
4.5080934e-19
4.5080397e-19
4.5081769e-19
4.5085479e-19
4.5092914e-19
4.5147571e-19
4.5121842e-19
4.5105985e-19
4.5096404e-19
4.5090966e-19
4.5088345e-19
4.5087818e-19
4.5089196e-19
4.5092914e-19
4.5100371e-19
8.1581807e-19
8.1534963e-19
8.1506116e-19
8.1488641e-19
8.1478629e-19
8.1473631e-19
8.147225e-19
8.1473997e-19
8.1479377e-19
8.1490288e-19
8.1534963e-19
8.1488275e-19
8.1459489e-19
8.1442046e-19
8.143206e-19
8.14271e-19
8.142579e-19
8.1427698e-19
8.143349e-19
8.144559e-19
8.1506116e-19
8.1459489e-19
8.1430746e-19
8.1413337e-19
8.1403386e-19
8.1398478e-19
8.1397257e-19
8.1399329e-19
8.1405408e-19
8.1417915e-19
8.1488641e-19
8.1442046e-19
8.1413337e-19
8.1395961e-19
8.1386048e-19
8.138119e-19
8.1380046e-19
8.1382236e-19
8.1388477e-19
8.1401142e-19
8.1478629e-19
8.143206e-19
8.1403386e-19
8.1386048e-19
8.1376174e-19
8.1371361e-19
8.1370275e-19
8.137254e-19
8.1378868e-19
8.1391602e-19
8.1473631e-19
8.14271e-19
8.1398478e-19
8.138119e-19
8.1371361e-19
8.1366589e-19
8.1365547e-19
8.1367859e-19
8.1374234e-19
8.1387e-19
8.147225e-19
8.142579e-19
8.1397257e-19
8.1380046e-19
8.1370275e-19
8.1365547e-19
8.1364539e-19
8.1366883e-19
8.1373285e-19
8.1386067e-19
8.1473997e-19
8.1427698e-19
8.1399329e-19
8.1382236e-19
8.137254e-19
8.1367859e-19
8.1366883e-19
8.136925e-19
8.1375669e-19
8.1388463e-19
8.1479377e-19
8.143349e-19
8.1405408e-19
8.1388477e-19
8.1378868e-19
8.1374234e-19
8.1373285e-19
8.1375669e-19
8.1382103e-19
8.1394911e-19
8.1490288e-19
8.144559e-19
8.1417915e-19
8.1401142e-19
8.1391602e-19
8.1387e-19
8.1386067e-19
8.1388463e-19
8.1394911e-19
8.1407754e-19
1.4865128e-18
1.4856907e-18
1.4851823e-18
1.4848734e-18
1.4846961e-18
1.4846075e-18
1.4845828e-18
1.4846131e-18
1.4847068e-18
1.4848952e-18
1.4856907e-18
1.4848714e-18
1.484364e-18
1.4840557e-18
1.4838788e-18
1.4837909e-18
1.4837675e-18
1.4838008e-18
1.4839018e-18
1.4841117e-18
1.4851823e-18
1.484364e-18
1.4838574e-18
1.4835497e-18
1.4833735e-18
1.4832864e-18
1.4832646e-18
1.4833009e-18
1.4834071e-18
1.4836244e-18
1.4848734e-18
1.4840557e-18
1.4835497e-18
1.4832426e-18
1.483067e-18
1.4829809e-18
1.4829605e-18
1.4829988e-18
1.483108e-18
1.4833281e-18
1.4846961e-18
1.4838788e-18
1.4833735e-18
1.483067e-18
1.4828922e-18
1.4828068e-18
1.4827875e-18
1.4828272e-18
1.4829379e-18
1.4831592e-18
1.4846075e-18
1.4837909e-18
1.4832864e-18
1.4829809e-18
1.4828068e-18
1.4827222e-18
1.4827036e-18
1.4827442e-18
1.4828558e-18
1.4830777e-18
1.4845828e-18
1.4837675e-18
1.4832646e-18
1.4829605e-18
1.4827875e-18
1.4827036e-18
1.4826857e-18
1.4827268e-18
1.4828388e-18
1.4830611e-18
1.4846131e-18
1.4838008e-18
1.4833009e-18
1.4829988e-18
1.4828272e-18
1.4827442e-18
1.4827268e-18
1.4827683e-18
1.4828807e-18
1.4831031e-18
1.4847068e-18
1.4839018e-18
1.4834071e-18
1.483108e-18
1.4829379e-18
1.4828558e-18
1.4828388e-18
1.4828807e-18
1.4829933e-18
1.483216e-18
1.4848952e-18
1.4841117e-18
1.4836244e-18
1.4833281e-18
1.4831592e-18
1.4830777e-18
1.4830611e-18
1.4831031e-18
1.483216e-18
1.4834393e-18
2.7344971e-18
2.7330414e-18
2.7321373e-18
2.7315864e-18
2.7312695e-18
2.7311109e-18
2.7310663e-18
2.7311197e-18
2.7312841e-18
2.7316126e-18
2.7330414e-18
2.7315905e-18
2.7306882e-18
2.7301383e-18
2.7298223e-18
2.7296648e-18
2.7296227e-18
2.7296813e-18
2.7298592e-18
2.7302269e-18
2.7321373e-18
2.7306882e-18
2.7297873e-18
2.7292385e-18
2.7289236e-18
2.7287678e-18
2.7287286e-18
2.7287925e-18
2.7289799e-18
2.7293609e-18
2.7315864e-18
2.7301383e-18
2.7292385e-18
2.7286907e-18
2.728377e-18
2.7282229e-18
2.7281862e-18
2.728254e-18
2.7284466e-18
2.7288328e-18
2.7312695e-18
2.7298223e-18
2.7289236e-18
2.728377e-18
2.7280646e-18
2.727912e-18
2.7278771e-18
2.7279474e-18
2.7281429e-18
2.7285313e-18
2.7311109e-18
2.7296648e-18
2.7287678e-18
2.7282229e-18
2.727912e-18
2.7277607e-18
2.7277272e-18
2.7277991e-18
2.7279961e-18
2.7283856e-18
2.7310663e-18
2.7296227e-18
2.7287286e-18
2.7281862e-18
2.7278771e-18
2.7277272e-18
2.7276949e-18
2.7277678e-18
2.7279657e-18
2.7283557e-18
2.7311197e-18
2.7296813e-18
2.7287925e-18
2.728254e-18
2.7279474e-18
2.7277991e-18
2.7277678e-18
2.7278414e-18
2.7280399e-18
2.7284302e-18
2.7312841e-18
2.7298592e-18
2.7289799e-18
2.7284466e-18
2.7281429e-18
2.7279961e-18
2.7279657e-18
2.7280399e-18
2.7282388e-18
2.7286296e-18
2.7316126e-18
2.7302269e-18
2.7293609e-18
2.7288328e-18
2.7285313e-18
2.7283856e-18
2.7283557e-18
2.7284302e-18
2.7286296e-18
2.7290215e-18
5.0784389e-18
5.0758376e-18
5.0742152e-18
5.0732239e-18
5.0726526e-18
5.0723661e-18
5.0722852e-18
5.0723797e-18
5.0726713e-18
5.0732492e-18
5.0758376e-18
5.0732449e-18
5.0716258e-18
5.0706362e-18
5.0700665e-18
5.0697822e-18
5.0697056e-18
5.0698098e-18
5.0701261e-18
5.070776e-18
5.0742152e-18
5.0716258e-18
5.0700091e-18
5.0690215e-18
5.0684538e-18
5.0681726e-18
5.0681013e-18
5.0682154e-18
5.0685489e-18
5.0692233e-18
5.0732239e-18
5.0706362e-18
5.0690215e-18
5.0680358e-18
5.0674703e-18
5.0671921e-18
5.0671254e-18
5.0672465e-18
5.0675899e-18
5.0682738e-18
5.0726526e-18
5.0700665e-18
5.0684538e-18
5.0674703e-18
5.0669072e-18
5.0666316e-18
5.0665684e-18
5.0666941e-18
5.0670426e-18
5.0677306e-18
5.0723661e-18
5.0697822e-18
5.0681726e-18
5.0671921e-18
5.0666316e-18
5.0663586e-18
5.066298e-18
5.0664264e-18
5.0667778e-18
5.0674677e-18
5.0722852e-18
5.0697056e-18
5.0681013e-18
5.0671254e-18
5.0665684e-18
5.066298e-18
5.0662394e-18
5.0663697e-18
5.0667227e-18
5.0674136e-18
5.0723797e-18
5.0698098e-18
5.0682154e-18
5.0672465e-18
5.0666941e-18
5.0664264e-18
5.0663697e-18
5.0665014e-18
5.0668554e-18
5.067547e-18
5.0726713e-18
5.0701261e-18
5.0685489e-18
5.0675899e-18
5.0670426e-18
5.0667778e-18
5.0667227e-18
5.0668554e-18
5.0672102e-18
5.0679026e-18
5.0732492e-18
5.070776e-18
5.0692233e-18
5.0682738e-18
5.0677306e-18
5.0674677e-18
5.0674136e-18
5.067547e-18
5.0679026e-18
5.0685968e-18
9.5221145e-18
9.5174241e-18
9.5144866e-18
9.5126866e-18
9.5116474e-18
9.5111255e-18
9.5109772e-18
9.5111463e-18
9.5116679e-18
9.5126941e-18
9.5174241e-18
9.512749e-18
9.5098173e-18
9.5080205e-18
9.5069841e-18
9.5064663e-18
9.5063259e-18
9.506513e-18
9.5070806e-18
9.5082401e-18
9.5144866e-18
9.5098173e-18
9.5068901e-18
9.5050968e-18
9.5040642e-18
9.503552e-18
9.5034215e-18
9.5036267e-18
9.5042263e-18
9.5054313e-18
9.5126866e-18
9.5080205e-18
9.5050968e-18
9.503307e-18
9.5022785e-18
9.5017719e-18
9.5016499e-18
9.5018682e-18
9.5024858e-18
9.5037084e-18
9.5116474e-18
9.5069841e-18
9.5040642e-18
9.5022785e-18
9.5012543e-18
9.5007526e-18
9.500637e-18
9.5008637e-18
9.5014909e-18
9.5027211e-18
9.5111255e-18
9.5064663e-18
9.503552e-18
9.5017719e-18
9.5007526e-18
9.5002555e-18
9.5001447e-18
9.5003766e-18
9.501009e-18
9.5022428e-18
9.5109772e-18
9.5063259e-18
9.5034215e-18
9.5016499e-18
9.500637e-18
9.5001447e-18
9.5000377e-18
9.5002731e-18
9.5009084e-18
9.5021441e-18
9.5111463e-18
9.506513e-18
9.5036267e-18
9.5018682e-18
9.5008637e-18
9.5003766e-18
9.5002731e-18
9.5005109e-18
9.5011482e-18
9.502385e-18
9.5116679e-18
9.5070806e-18
9.5042263e-18
9.5024858e-18
9.5014909e-18
9.501009e-18
9.5009084e-18
9.5011482e-18
9.501787e-18
9.5030252e-18
9.5126941e-18
9.5082401e-18
9.5054313e-18
9.5037084e-18
9.5027211e-18
9.5022428e-18
9.5021441e-18
9.502385e-18
9.5030252e-18
9.5042667e-18
1.802559e-17
1.8017055e-17
1.8011689e-17
1.8008391e-17
1.8006484e-17
1.8005525e-17
1.8005251e-17
1.8005556e-17
1.8006498e-17
1.8008337e-17
1.8017055e-17
1.8008549e-17
1.8003193e-17
1.7999901e-17
1.7997999e-17
1.7997047e-17
1.7996788e-17
1.7997127e-17
1.7998155e-17
1.8000243e-17
1.8011689e-17
1.8003193e-17
1.7997844e-17
1.7994559e-17
1.7992664e-17
1.7991723e-17
1.7991482e-17
1.7991855e-17
1.7992943e-17
1.7995116e-17
1.8008391e-17
1.7999901e-17
1.7994559e-17
1.799128e-17
1.7989393e-17
1.7988462e-17
1.7988237e-17
1.7988635e-17
1.7989756e-17
1.7991962e-17
1.8006484e-17
1.7997999e-17
1.7992664e-17
1.7989393e-17
1.7987513e-17
1.7986592e-17
1.7986379e-17
1.7986792e-17
1.7987931e-17
1.7990152e-17
1.8005525e-17
1.7997047e-17
1.7991723e-17
1.7988462e-17
1.7986592e-17
1.7985679e-17
1.7985475e-17
1.7985897e-17
1.7987047e-17
1.7989274e-17
1.8005251e-17
1.7996788e-17
1.7991482e-17
1.7988237e-17
1.7986379e-17
1.7985475e-17
1.7985278e-17
1.7985707e-17
1.7986861e-17
1.7989092e-17
1.8005556e-17
1.7997127e-17
1.7991855e-17
1.7988635e-17
1.7986792e-17
1.7985897e-17
1.7985707e-17
1.7986141e-17
1.7987299e-17
1.7989532e-17
1.8006498e-17
1.7998155e-17
1.7992943e-17
1.7989756e-17
1.7987931e-17
1.7987047e-17
1.7986861e-17
1.7987299e-17
1.798846e-17
1.7990695e-17
1.8008337e-17
1.8000243e-17
1.7995116e-17
1.7991962e-17
1.7990152e-17
1.7989274e-17
1.7989092e-17
1.7989532e-17
1.7990695e-17
1.7992937e-17
3.4450598e-17
3.443493e-17
3.4425037e-17
3.4418941e-17
3.441541e-17
3.4413632e-17
3.4413121e-17
3.4413678e-17
3.4415395e-17
3.4418721e-17
3.443493e-17
3.4419311e-17
3.4409438e-17
3.4403353e-17
3.4399831e-17
3.4398067e-17
3.4397584e-17
3.4398204e-17
3.4400084e-17
3.4403881e-17
3.4425037e-17
3.4409438e-17
3.4399579e-17
3.4393506e-17
3.4389997e-17
3.4388253e-17
3.4387805e-17
3.4388489e-17
3.4390481e-17
3.4394439e-17
3.4418941e-17
3.4403353e-17
3.4393506e-17
3.4387446e-17
3.4383951e-17
3.4382226e-17
3.4381808e-17
3.4382538e-17
3.4384594e-17
3.4388614e-17
3.441541e-17
3.4399831e-17
3.4389997e-17
3.4383951e-17
3.4380472e-17
3.4378764e-17
3.4378368e-17
3.4379127e-17
3.4381217e-17
3.4385264e-17
3.4413632e-17
3.4398067e-17
3.4388253e-17
3.4382226e-17
3.4378764e-17
3.4377072e-17
3.4376693e-17
3.4377471e-17
3.4379579e-17
3.4383638e-17
3.4413121e-17
3.4397584e-17
3.4387805e-17
3.4381808e-17
3.4378368e-17
3.4376693e-17
3.4376327e-17
3.4377117e-17
3.4379236e-17
3.4383301e-17
3.4413678e-17
3.4398204e-17
3.4388489e-17
3.4382538e-17
3.4379127e-17
3.4377471e-17
3.4377117e-17
3.4377916e-17
3.4380041e-17
3.4384111e-17
3.4415395e-17
3.4400084e-17
3.4390481e-17
3.4384594e-17
3.4381217e-17
3.4379579e-17
3.4379236e-17
3.4380041e-17
3.4382171e-17
3.4386245e-17
3.4418721e-17
3.4403881e-17
3.4394439e-17
3.4388614e-17
3.4385264e-17
3.4383638e-17
3.4383301e-17
3.4384111e-17
3.4386245e-17
3.439033e-17
6.647359e-17
6.6444564e-17
6.6426164e-17
6.6414797e-17
6.64082e-17
6.6404874e-17
6.6403913e-17
6.6404939e-17
6.64081e-17
6.6414171e-17
6.6444564e-17
6.641563e-17
6.6397266e-17
6.6385919e-17
6.6379339e-17
6.637604e-17
6.6375133e-17
6.6376279e-17
6.6379748e-17
6.6386717e-17
6.6426164e-17
6.6397266e-17
6.6378929e-17
6.6367604e-17
6.636105e-17
6.6357788e-17
6.6356947e-17
6.6358214e-17
6.6361898e-17
6.6369172e-17
6.6414797e-17
6.6385919e-17
6.6367604e-17
6.6356303e-17
6.6349775e-17
6.634655e-17
6.6345766e-17
6.634712e-17
6.6350925e-17
6.6358317e-17
6.64082e-17
6.6379339e-17
6.636105e-17
6.6349775e-17
6.6343276e-17
6.6340084e-17
6.6339342e-17
6.6340752e-17
6.6344621e-17
6.6352065e-17
6.6404874e-17
6.637604e-17
6.6357788e-17
6.634655e-17
6.6340084e-17
6.6336922e-17
6.6336212e-17
6.6337657e-17
6.6341561e-17
6.6349028e-17
6.6403913e-17
6.6375133e-17
6.6356947e-17
6.6345766e-17
6.6339342e-17
6.6336212e-17
6.6335527e-17
6.6336996e-17
6.6340919e-17
6.6348398e-17
6.6404939e-17
6.6376279e-17
6.6358214e-17
6.634712e-17
6.6340752e-17
6.6337657e-17
6.6336996e-17
6.6338481e-17
6.6342417e-17
6.6349904e-17
6.64081e-17
6.6379748e-17
6.6361898e-17
6.6350925e-17
6.6344621e-17
6.6341561e-17
6.6340919e-17
6.6342417e-17
6.6346362e-17
6.6353858e-17
6.6414171e-17
6.6386717e-17
6.6369172e-17
6.6358317e-17
6.6352065e-17
6.6349028e-17
6.6348398e-17
6.6349904e-17
6.6353858e-17
6.6361373e-17
1.2948985e-16
1.2943559e-16
1.2940107e-16
1.2937968e-16
1.2936725e-16
1.2936097e-16
1.2935915e-16
1.2936106e-16
1.2936693e-16
1.2937812e-16
1.2943559e-16
1.2938151e-16
1.2934705e-16
1.293257e-16
1.293133e-16
1.2930708e-16
1.2930536e-16
1.293075e-16
1.2931396e-16
1.2932687e-16
1.2940107e-16
1.2934705e-16
1.2931264e-16
1.2929134e-16
1.2927899e-16
1.2927283e-16
1.2927124e-16
1.2927361e-16
1.2928049e-16
1.2929398e-16
1.2937968e-16
1.293257e-16
1.2929134e-16
1.2927008e-16
1.2925777e-16
1.2925169e-16
1.2925021e-16
1.2925275e-16
1.2925985e-16
1.2927358e-16
1.2936725e-16
1.293133e-16
1.2927899e-16
1.2925777e-16
1.2924553e-16
1.2923951e-16
1.2923811e-16
1.2924075e-16
1.2924798e-16
1.292618e-16
1.2936097e-16
1.2930708e-16
1.2927283e-16
1.2925169e-16
1.2923951e-16
1.2923355e-16
1.2923221e-16
1.2923492e-16
1.2924222e-16
1.2925608e-16
1.2935915e-16
1.2930536e-16
1.2927124e-16
1.2925021e-16
1.2923811e-16
1.2923221e-16
1.2923092e-16
1.2923367e-16
1.2924101e-16
1.292549e-16
1.2936106e-16
1.293075e-16
1.2927361e-16
1.2925275e-16
1.2924075e-16
1.2923492e-16
1.2923367e-16
1.2923646e-16
1.2924382e-16
1.2925773e-16
1.2936693e-16
1.2931396e-16
1.2928049e-16
1.2925985e-16
1.2924798e-16
1.2924222e-16
1.2924101e-16
1.2924382e-16
1.292512e-16
1.2926512e-16
1.2937812e-16
1.2932687e-16
1.2929398e-16
1.2927358e-16
1.292618e-16
1.2925608e-16
1.292549e-16
1.2925773e-16
1.2926512e-16
1.2927907e-16
2.5464823e-16
2.5454591e-16
2.5448055e-16
2.5443997e-16
2.5441633e-16
2.5440439e-16
2.5440091e-16
2.5440449e-16
2.5441549e-16
2.5443629e-16
2.5454591e-16
2.5444393e-16
2.5437869e-16
2.5433817e-16
2.543146e-16
2.5430275e-16
2.5429947e-16
2.543035e-16
2.5431566e-16
2.543398e-16
2.5448055e-16
2.5437869e-16
2.5431355e-16
2.5427311e-16
2.5424963e-16
2.5423793e-16
2.5423489e-16
2.5423937e-16
2.5425232e-16
2.542776e-16
2.5443997e-16
2.5433817e-16
2.5427311e-16
2.5423276e-16
2.5420938e-16
2.5419781e-16
2.5419498e-16
2.5419978e-16
2.5421318e-16
2.542389e-16
2.5441633e-16
2.543146e-16
2.5424963e-16
2.5420938e-16
2.541861e-16
2.5417465e-16
2.5417198e-16
2.5417699e-16
2.5419063e-16
2.5421654e-16
2.5440439e-16
2.5430275e-16
2.5423793e-16
2.5419781e-16
2.5417465e-16
2.5416331e-16
2.5416076e-16
2.541659e-16
2.5417967e-16
2.5420567e-16
2.5440091e-16
2.5429947e-16
2.5423489e-16
2.5419498e-16
2.5417198e-16
2.5416076e-16
2.5415831e-16
2.5416354e-16
2.5417737e-16
2.5420342e-16
2.5440449e-16
2.543035e-16
2.5423937e-16
2.5419978e-16
2.5417699e-16
2.541659e-16
2.5416354e-16
2.5416882e-16
2.5418271e-16
2.5420878e-16
2.5441549e-16
2.5431566e-16
2.5425232e-16
2.5421318e-16
2.5419063e-16
2.5417967e-16
2.5417737e-16
2.5418271e-16
2.5419663e-16
2.5422273e-16
2.5443629e-16
2.543398e-16
2.542776e-16
2.542389e-16
2.5421654e-16
2.5420567e-16
2.5420342e-16