/*--------------------------------*- C++ -*----------------------------------*\
| =========                 |                                                 |
| \\      /  F ield         | OpenFOAM: The Open Source CFD Toolbox           |
|  \\    /   O peration     | Version:  dev                                   |
|   \\  /    A nd           | Web:      www.OpenFOAM.org                      |
|    \\/     M anipulation  |                                                 |
\*---------------------------------------------------------------------------*/
FoamFile
{
    version     2.0;
    format      ascii;
    class       volScalarField;
    location    "93.995";
    object      A_0;
}
// * * * * * * * * * * * * * * * * * * * * * * * * * * * * * * * * * * * * * //

dimensions      [0 0 0 0 1 0 0];

internalField   nonuniform List<scalar> 
10000
(
7.8837173e-22
7.8770059e-22
7.873256e-22
7.871061e-22
7.8698288e-22
7.8692249e-22
7.8690728e-22
7.8693301e-22
7.8701043e-22
7.871616e-22
7.8770059e-22
7.8703196e-22
7.8665786e-22
7.864388e-22
7.8631592e-22
7.8625595e-22
7.8624151e-22
7.8626894e-22
7.8635063e-22
7.8651392e-22
7.873256e-22
7.8665786e-22
7.8628434e-22
7.8606571e-22
7.8594324e-22
7.8588384e-22
7.8587036e-22
7.8589951e-22
7.8598421e-22
7.8615172e-22
7.871061e-22
7.864388e-22
7.8606571e-22
7.8584747e-22
7.8572542e-22
7.8566657e-22
7.8565392e-22
7.8568432e-22
7.8577073e-22
7.859399e-22
7.8698288e-22
7.8631592e-22
7.8594324e-22
7.8572542e-22
7.856038e-22
7.8554544e-22
7.8553341e-22
7.8556462e-22
7.8565195e-22
7.8582183e-22
7.8692249e-22
7.8625595e-22
7.8588384e-22
7.8566657e-22
7.8554544e-22
7.8548752e-22
7.8547595e-22
7.8550768e-22
7.8559551e-22
7.8576572e-22
7.8690728e-22
7.8624151e-22
7.8587036e-22
7.8565392e-22
7.8553341e-22
7.8547595e-22
7.8546477e-22
7.8549682e-22
7.8558494e-22
7.8575534e-22
7.8693301e-22
7.8626894e-22
7.8589951e-22
7.8568432e-22
7.8556462e-22
7.8550768e-22
7.8549682e-22
7.8552913e-22
7.8561745e-22
7.8578798e-22
7.8701043e-22
7.8635063e-22
7.8598421e-22
7.8577073e-22
7.8565195e-22
7.8559551e-22
7.8558494e-22
7.8561745e-22
7.8570595e-22
7.8587668e-22
7.871616e-22
7.8651392e-22
7.8615172e-22
7.859399e-22
7.8582183e-22
7.8576572e-22
7.8575534e-22
7.8578798e-22
7.8587668e-22
7.8604788e-22
2.5771654e-21
2.5750576e-21
2.5738442e-21
2.5731322e-21
2.5727322e-21
2.5725361e-21
2.5724865e-21
2.5725696e-21
2.5728206e-21
2.5733278e-21
2.5750576e-21
2.5729575e-21
2.571747e-21
2.5710364e-21
2.5706375e-21
2.5704427e-21
2.5703956e-21
2.5704843e-21
2.5707492e-21
2.5712962e-21
2.5738442e-21
2.571747e-21
2.5705383e-21
2.5698291e-21
2.5694316e-21
2.5692386e-21
2.5691947e-21
2.569289e-21
2.5695637e-21
2.5701244e-21
2.5731322e-21
2.5710364e-21
2.5698291e-21
2.5691212e-21
2.568725e-21
2.5685339e-21
2.5684926e-21
2.568591e-21
2.5688713e-21
2.5694374e-21
2.5727322e-21
2.5706375e-21
2.5694316e-21
2.568725e-21
2.5683302e-21
2.5681407e-21
2.5681014e-21
2.5682024e-21
2.5684857e-21
2.5690542e-21
2.5725361e-21
2.5704427e-21
2.5692386e-21
2.5685339e-21
2.5681407e-21
2.5679525e-21
2.5679148e-21
2.5680175e-21
2.5683024e-21
2.568872e-21
2.5724865e-21
2.5703956e-21
2.5691947e-21
2.5684926e-21
2.5681014e-21
2.5679148e-21
2.5678784e-21
2.5679821e-21
2.568268e-21
2.5688382e-21
2.5725696e-21
2.5704843e-21
2.569289e-21
2.568591e-21
2.5682024e-21
2.5680175e-21
2.5679821e-21
2.5680867e-21
2.5683732e-21
2.5689438e-21
2.5728206e-21
2.5707492e-21
2.5695637e-21
2.5688713e-21
2.5684857e-21
2.5683024e-21
2.568268e-21
2.5683732e-21
2.5686603e-21
2.5692316e-21
2.5733278e-21
2.5712962e-21
2.5701244e-21
2.5694374e-21
2.5690542e-21
2.568872e-21
2.5688382e-21
2.5689438e-21
2.5692316e-21
2.5698045e-21
5.0707796e-21
5.0667719e-21
5.064427e-21
5.0630467e-21
5.0622701e-21
5.0618888e-21
5.0617919e-21
5.0619517e-21
5.0624364e-21
5.0634483e-21
5.0667719e-21
5.0627786e-21
5.0604391e-21
5.0590614e-21
5.058287e-21
5.0579084e-21
5.0578163e-21
5.0579869e-21
5.058499e-21
5.0595891e-21
5.064427e-21
5.0604391e-21
5.0581033e-21
5.0567283e-21
5.0559565e-21
5.0555814e-21
5.0554955e-21
5.0556771e-21
5.0562085e-21
5.0573256e-21
5.0630467e-21
5.0590614e-21
5.0567283e-21
5.0553558e-21
5.0545866e-21
5.0542151e-21
5.0541345e-21
5.0543241e-21
5.0548664e-21
5.055994e-21
5.0622701e-21
5.058287e-21
5.0559565e-21
5.0545866e-21
5.0538202e-21
5.0534518e-21
5.0533751e-21
5.0535699e-21
5.054118e-21
5.0552503e-21
5.0618888e-21
5.0579084e-21
5.0555814e-21
5.0542151e-21
5.0534518e-21
5.0530862e-21
5.0530125e-21
5.0532105e-21
5.0537619e-21
5.0548962e-21
5.0617919e-21
5.0578163e-21
5.0554955e-21
5.0541345e-21
5.0533751e-21
5.0530125e-21
5.0529412e-21
5.0531414e-21
5.0536945e-21
5.0548301e-21
5.0619517e-21
5.0579869e-21
5.0556771e-21
5.0543241e-21
5.0535699e-21
5.0532105e-21
5.0531414e-21
5.0533431e-21
5.0538976e-21
5.0550339e-21
5.0624364e-21
5.058499e-21
5.0562085e-21
5.0548664e-21
5.054118e-21
5.0537619e-21
5.0536945e-21
5.0538976e-21
5.0544531e-21
5.0555908e-21
5.0634483e-21
5.0595891e-21
5.0573256e-21
5.055994e-21
5.0552503e-21
5.0548962e-21
5.0548301e-21
5.0550339e-21
5.0555908e-21
5.0567318e-21
8.9806594e-21
8.9737975e-21
8.9697407e-21
8.9673444e-21
8.9659939e-21
8.9653298e-21
8.9651595e-21
8.9654335e-21
8.9662681e-21
8.9680326e-21
8.9737975e-21
8.96696e-21
8.9629124e-21
8.9605207e-21
8.9591738e-21
8.9585144e-21
8.9583527e-21
8.9586458e-21
8.9595286e-21
8.9614312e-21
8.9697407e-21
8.9629124e-21
8.9588711e-21
8.956484e-21
8.9551417e-21
8.9544886e-21
8.9543376e-21
8.9546502e-21
8.9555668e-21
8.9575171e-21
8.9673444e-21
8.9605207e-21
8.956484e-21
8.9541013e-21
8.9527637e-21
8.9521167e-21
8.951975e-21
8.9523016e-21
8.9532375e-21
8.9552064e-21
8.9659939e-21
8.9591738e-21
8.9551417e-21
8.9527637e-21
8.9514308e-21
8.9507892e-21
8.9506545e-21
8.9509902e-21
8.9519365e-21
8.9539134e-21
8.9653298e-21
8.9585144e-21
8.9544886e-21
8.9521167e-21
8.9507892e-21
8.9501527e-21
8.9500232e-21
8.9503646e-21
8.9513165e-21
8.9532971e-21
8.9651595e-21
8.9583527e-21
8.9543376e-21
8.951975e-21
8.9506545e-21
8.9500232e-21
8.9498979e-21
8.9502431e-21
8.9511982e-21
8.9531809e-21
8.9654335e-21
8.9586458e-21
8.9546502e-21
8.9523016e-21
8.9509902e-21
8.9503646e-21
8.9502431e-21
8.950591e-21
8.9515483e-21
8.9535325e-21
8.9662681e-21
8.9595286e-21
8.9555668e-21
8.9532375e-21
8.9519365e-21
8.9513165e-21
8.9511982e-21
8.9515483e-21
8.9525076e-21
8.954494e-21
8.9680326e-21
8.9614312e-21
8.9575171e-21
8.9552064e-21
8.9539134e-21
8.9532971e-21
8.9531809e-21
8.9535325e-21
8.954494e-21
8.9564863e-21
1.5479738e-20
1.5468307e-20
1.5461499e-20
1.5457464e-20
1.5455186e-20
1.5454063e-20
1.5453772e-20
1.5454227e-20
1.5455616e-20
1.5458557e-20
1.5468307e-20
1.5456916e-20
1.5450123e-20
1.5446096e-20
1.5443824e-20
1.5442709e-20
1.5442433e-20
1.5442921e-20
1.5444392e-20
1.544757e-20
1.5461499e-20
1.5450123e-20
1.5443341e-20
1.5439322e-20
1.5437057e-20
1.5435953e-20
1.5435696e-20
1.5436216e-20
1.5437746e-20
1.5441006e-20
1.5457464e-20
1.5446096e-20
1.5439322e-20
1.543531e-20
1.5433053e-20
1.543196e-20
1.5431718e-20
1.5432263e-20
1.5433825e-20
1.5437117e-20
1.5455186e-20
1.5443824e-20
1.5437057e-20
1.5433053e-20
1.5430804e-20
1.542972e-20
1.5429491e-20
1.5430051e-20
1.5431631e-20
1.5434936e-20
1.5454063e-20
1.5442709e-20
1.5435953e-20
1.543196e-20
1.542972e-20
1.5428645e-20
1.5428424e-20
1.5428994e-20
1.5430583e-20
1.5433895e-20
1.5453772e-20
1.5442433e-20
1.5435696e-20
1.5431718e-20
1.5429491e-20
1.5428424e-20
1.542821e-20
1.5428787e-20
1.5430381e-20
1.5433697e-20
1.5454227e-20
1.5442921e-20
1.5436216e-20
1.5432263e-20
1.5430051e-20
1.5428994e-20
1.5428787e-20
1.5429368e-20
1.5430966e-20
1.5434284e-20
1.5455616e-20
1.5444392e-20
1.5437746e-20
1.5433825e-20
1.5431631e-20
1.5430583e-20
1.5430381e-20
1.5430966e-20
1.5432568e-20
1.543589e-20
1.5458557e-20
1.544757e-20
1.5441006e-20
1.5437117e-20
1.5434936e-20
1.5433895e-20
1.5433697e-20
1.5434284e-20
1.543589e-20
1.5439222e-20
2.6595587e-20
2.6576613e-20
2.6565249e-20
2.655849e-20
2.6554666e-20
2.6552778e-20
2.6552285e-20
2.6553034e-20
2.6555326e-20
2.6560166e-20
2.6576613e-20
2.6557706e-20
2.6546366e-20
2.6539621e-20
2.6535807e-20
2.6533933e-20
2.6533464e-20
2.6534269e-20
2.6536703e-20
2.6541948e-20
2.6565249e-20
2.6546366e-20
2.6535044e-20
2.6528312e-20
2.6524511e-20
2.6522655e-20
2.6522218e-20
2.6523079e-20
2.6525611e-20
2.6530996e-20
2.655849e-20
2.6539621e-20
2.6528312e-20
2.6521592e-20
2.6517804e-20
2.6515966e-20
2.6515556e-20
2.6516458e-20
2.6519047e-20
2.6524486e-20
2.6554666e-20
2.6535807e-20
2.6524511e-20
2.6517804e-20
2.6514031e-20
2.6512208e-20
2.6511818e-20
2.6512747e-20
2.6515366e-20
2.6520828e-20
2.6552778e-20
2.6533933e-20
2.6522655e-20
2.6515966e-20
2.6512208e-20
2.6510401e-20
2.6510026e-20
2.6510971e-20
2.6513606e-20
2.6519079e-20
2.6552285e-20
2.6533464e-20
2.6522218e-20
2.6515556e-20
2.6511818e-20
2.6510026e-20
2.6509663e-20
2.6510619e-20
2.6513263e-20
2.6518743e-20
2.6553034e-20
2.6534269e-20
2.6523079e-20
2.6516458e-20
2.6512747e-20
2.6510971e-20
2.6510619e-20
2.6511584e-20
2.6514234e-20
2.6519718e-20
2.6555326e-20
2.6536703e-20
2.6525611e-20
2.6519047e-20
2.6515366e-20
2.6513606e-20
2.6513263e-20
2.6514234e-20
2.651689e-20
2.652238e-20
2.6560166e-20
2.6541948e-20
2.6530996e-20
2.6524486e-20
2.6520828e-20
2.6519079e-20
2.6518743e-20
2.6519718e-20
2.652238e-20
2.6527886e-20
4.5918905e-20
4.5887271e-20
4.5868227e-20
4.5856866e-20
4.5850424e-20
4.5847238e-20
4.5846396e-20
4.5847634e-20
4.5851427e-20
4.5859393e-20
4.5887271e-20
4.5855747e-20
4.5836744e-20
4.5825405e-20
4.581898e-20
4.5815817e-20
4.5815018e-20
4.5816351e-20
4.5820386e-20
4.5829048e-20
4.5868227e-20
4.5836744e-20
4.5817772e-20
4.5806454e-20
4.5800051e-20
4.5796919e-20
4.5796173e-20
4.5797604e-20
4.5801808e-20
4.5810708e-20
4.5856866e-20
4.5825405e-20
4.5806454e-20
4.5795157e-20
4.5788777e-20
4.5785675e-20
4.5784976e-20
4.5786476e-20
4.5790777e-20
4.579977e-20
4.5850424e-20
4.581898e-20
4.5800051e-20
4.5788777e-20
4.578242e-20
4.5779346e-20
4.5778681e-20
4.5780226e-20
4.5784578e-20
4.5793612e-20
4.5847238e-20
4.5815817e-20
4.5796919e-20
4.5785675e-20
4.5779346e-20
4.5776296e-20
4.5775657e-20
4.5777231e-20
4.5781611e-20
4.5790663e-20
4.5846396e-20
4.5815018e-20
4.5796173e-20
4.5784976e-20
4.5778681e-20
4.5775657e-20
4.5775039e-20
4.5776631e-20
4.5781027e-20
4.579009e-20
4.5847634e-20
4.5816351e-20
4.5797604e-20
4.5786476e-20
4.5780226e-20
4.5777231e-20
4.5776631e-20
4.5778237e-20
4.5782644e-20
4.5791714e-20
4.5851427e-20
4.5820386e-20
4.5801808e-20
4.5790777e-20
4.5784578e-20
4.5781611e-20
4.5781027e-20
4.5782644e-20
4.5787061e-20
4.579614e-20
4.5859393e-20
4.5829048e-20
4.5810708e-20
4.579977e-20
4.5793612e-20
4.5790663e-20
4.579009e-20
4.5791714e-20
4.579614e-20
4.5805246e-20
7.9901984e-20
7.9848853e-20
7.9816716e-20
7.9797484e-20
7.9786556e-20
7.9781141e-20
7.9779696e-20
7.9781756e-20
7.9788073e-20
7.9801254e-20
7.9848853e-20
7.9795905e-20
7.9763837e-20
7.9744641e-20
7.9733742e-20
7.9728366e-20
7.9726995e-20
7.9729219e-20
7.9735955e-20
7.9750338e-20
7.9816716e-20
7.9763837e-20
7.9731819e-20
7.971266e-20
7.9701798e-20
7.9696476e-20
7.9695197e-20
7.9697588e-20
7.9704616e-20
7.9719412e-20
7.9797484e-20
7.9744641e-20
7.971266e-20
7.9693537e-20
7.9682714e-20
7.9677445e-20
7.9676245e-20
7.9678756e-20
7.9685949e-20
7.9700907e-20
7.9786556e-20
7.9733742e-20
7.9701798e-20
7.9682714e-20
7.9671932e-20
7.9666709e-20
7.9665568e-20
7.9668158e-20
7.967544e-20
7.9690466e-20
7.9781141e-20
7.9728366e-20
7.9696476e-20
7.9677445e-20
7.9666709e-20
7.9661528e-20
7.9660432e-20
7.966307e-20
7.96704e-20
7.9685459e-20
7.9779696e-20
7.9726995e-20
7.9695197e-20
7.9676245e-20
7.9665568e-20
7.9660432e-20
7.9659372e-20
7.9662043e-20
7.96694e-20
7.9684476e-20
7.9781756e-20
7.9729219e-20
7.9697588e-20
7.9678756e-20
7.9668158e-20
7.966307e-20
7.9662043e-20
7.9664736e-20
7.9672112e-20
7.9687201e-20
7.9788073e-20
7.9735955e-20
7.9704616e-20
7.9685949e-20
7.967544e-20
7.96704e-20
7.96694e-20
7.9672112e-20
7.9679504e-20
7.9694609e-20
7.9801254e-20
7.9750338e-20
7.9719412e-20
7.9700907e-20
7.9690466e-20
7.9685459e-20
7.9684476e-20
7.9687201e-20
7.9694609e-20
7.9709759e-20
1.4026637e-19
1.4017638e-19
1.401217e-19
1.4008888e-19
1.4007019e-19
1.4006091e-19
1.4005841e-19
1.4006186e-19
1.4007247e-19
1.4009445e-19
1.4017638e-19
1.400867e-19
1.4003213e-19
1.3999937e-19
1.3998073e-19
1.3997152e-19
1.3996915e-19
1.3997289e-19
1.3998423e-19
1.400083e-19
1.401217e-19
1.4003213e-19
1.3997765e-19
1.3994496e-19
1.3992638e-19
1.3991726e-19
1.3991505e-19
1.3991908e-19
1.3993092e-19
1.3995572e-19
1.4008888e-19
1.3999937e-19
1.3994496e-19
1.3991232e-19
1.3989381e-19
1.3988478e-19
1.3988271e-19
1.3988695e-19
1.3989908e-19
1.3992415e-19
1.4007019e-19
1.3998073e-19
1.3992638e-19
1.3989381e-19
1.3987537e-19
1.3986643e-19
1.3986446e-19
1.3986883e-19
1.3988111e-19
1.3990631e-19
1.4006091e-19
1.3997152e-19
1.3991726e-19
1.3988478e-19
1.3986643e-19
1.3985755e-19
1.3985566e-19
1.3986012e-19
1.3987249e-19
1.3989774e-19
1.4005841e-19
1.3996915e-19
1.3991505e-19
1.3988271e-19
1.3986446e-19
1.3985566e-19
1.3985383e-19
1.3985834e-19
1.3987076e-19
1.3989604e-19
1.4006186e-19
1.3997289e-19
1.3991908e-19
1.3988695e-19
1.3986883e-19
1.3986012e-19
1.3985834e-19
1.398629e-19
1.3987535e-19
1.3990065e-19
1.4007247e-19
1.3998423e-19
1.3993092e-19
1.3989908e-19
1.3988111e-19
1.3987249e-19
1.3987076e-19
1.3987535e-19
1.3988782e-19
1.3991315e-19
1.4009445e-19
1.400083e-19
1.3995572e-19
1.3992415e-19
1.3990631e-19
1.3989774e-19
1.3989604e-19
1.3990065e-19
1.3991315e-19
1.3993856e-19
2.4851083e-19
2.4835707e-19
2.4826322e-19
2.4820671e-19
2.4817447e-19
2.4815844e-19
2.4815408e-19
2.4815993e-19
2.4817789e-19
2.4821485e-19
2.4835707e-19
2.4820383e-19
2.4811018e-19
2.4805378e-19
2.4802162e-19
2.4800571e-19
2.4800157e-19
2.4800792e-19
2.4802716e-19
2.480678e-19
2.4826322e-19
2.4811018e-19
2.4801667e-19
2.4796038e-19
2.4792834e-19
2.4791258e-19
2.4790873e-19
2.4791558e-19
2.4793572e-19
2.4797763e-19
2.4820671e-19
2.4805378e-19
2.4796038e-19
2.4790419e-19
2.4787227e-19
2.4785667e-19
2.4785306e-19
2.4786028e-19
2.4788092e-19
2.4792332e-19
2.4817447e-19
2.4802162e-19
2.4792834e-19
2.4787227e-19
2.4784047e-19
2.4782501e-19
2.4782158e-19
2.4782904e-19
2.4784995e-19
2.4789256e-19
2.4815844e-19
2.4800571e-19
2.4791258e-19
2.4785667e-19
2.4782501e-19
2.4780969e-19
2.4780639e-19
2.47814e-19
2.4783505e-19
2.4787776e-19
2.4815408e-19
2.4800157e-19
2.4790873e-19
2.4785306e-19
2.4782158e-19
2.4780639e-19
2.478032e-19
2.4781091e-19
2.4783204e-19
2.4787481e-19
2.4815993e-19
2.4800792e-19
2.4791558e-19
2.4786028e-19
2.4782904e-19
2.47814e-19
2.4781091e-19
2.4781868e-19
2.4783987e-19
2.4788267e-19
2.4817789e-19
2.4802716e-19
2.4793572e-19
2.4788092e-19
2.4784995e-19
2.4783505e-19
2.4783204e-19
2.4783987e-19
2.4786112e-19
2.4790396e-19
2.4821485e-19
2.480678e-19
2.4797763e-19
2.4792332e-19
2.4789256e-19
2.4787776e-19
2.4787481e-19
2.4788267e-19
2.4790396e-19
2.4794693e-19
4.444281e-19
4.4416302e-19
4.4400052e-19
4.4390238e-19
4.4384627e-19
4.4381832e-19
4.4381066e-19
4.4382064e-19
4.4385134e-19
4.4391404e-19
4.4416302e-19
4.4389884e-19
4.4373667e-19
4.4363871e-19
4.4358276e-19
4.4355502e-19
4.4354775e-19
4.4355862e-19
4.4359158e-19
4.4366082e-19
4.4400052e-19
4.4373667e-19
4.4357476e-19
4.4347699e-19
4.4342123e-19
4.4339377e-19
4.43387e-19
4.4339876e-19
4.4343331e-19
4.4350479e-19
4.4390238e-19
4.4363871e-19
4.4347699e-19
4.4337941e-19
4.4332385e-19
4.4329668e-19
4.4329033e-19
4.4330274e-19
4.4333818e-19
4.4341053e-19
4.4384627e-19
4.4358276e-19
4.4342123e-19
4.4332385e-19
4.4326851e-19
4.4324158e-19
4.4323556e-19
4.4324839e-19
4.432843e-19
4.4335704e-19
4.4381832e-19
4.4355502e-19
4.4339377e-19
4.4329668e-19
4.4324158e-19
4.4321488e-19
4.4320909e-19
4.4322219e-19
4.4325836e-19
4.4333127e-19
4.4381066e-19
4.4354775e-19
4.43387e-19
4.4329033e-19
4.4323556e-19
4.4320909e-19
4.432035e-19
4.4321677e-19
4.4325309e-19
4.4332608e-19
4.4382064e-19
4.4355862e-19
4.4339876e-19
4.4330274e-19
4.4324839e-19
4.4322219e-19
4.4321677e-19
4.4323016e-19
4.4326658e-19
4.4333964e-19
4.4385134e-19
4.4359158e-19
4.4343331e-19
4.4333818e-19
4.432843e-19
4.4325836e-19
4.4325309e-19
4.4326658e-19
4.4330308e-19
4.4337622e-19
4.4391404e-19
4.4366082e-19
4.4350479e-19
4.4341053e-19
4.4335704e-19
4.4333127e-19
4.4332608e-19
4.4333964e-19
4.4337622e-19
4.4344957e-19
8.0233658e-19
8.0187546e-19
8.0159155e-19
8.0141959e-19
8.0132108e-19
8.0127192e-19
8.0125834e-19
8.0127553e-19
8.0132847e-19
8.0143582e-19
8.0187546e-19
8.014159e-19
8.0113257e-19
8.0096092e-19
8.0086267e-19
8.0081389e-19
8.0080101e-19
8.0081979e-19
8.0087678e-19
8.0099583e-19
8.0159155e-19
8.0113257e-19
8.0084968e-19
8.0067836e-19
8.0058046e-19
8.0053218e-19
8.0052018e-19
8.0054057e-19
8.0060038e-19
8.0072344e-19
8.0141959e-19
8.0096092e-19
8.0067836e-19
8.0050737e-19
8.0040984e-19
8.0036205e-19
8.0035081e-19
8.0037236e-19
8.0043377e-19
8.0055839e-19
8.0132108e-19
8.0086267e-19
8.0058046e-19
8.0040984e-19
8.0031269e-19
8.0026535e-19
8.0025468e-19
8.0027697e-19
8.0033923e-19
8.0046452e-19
8.0127192e-19
8.0081389e-19
8.0053218e-19
8.0036205e-19
8.0026535e-19
8.0021841e-19
8.0020817e-19
8.0023093e-19
8.0029365e-19
8.0041925e-19
8.0125834e-19
8.0080101e-19
8.0052018e-19
8.0035081e-19
8.0025468e-19
8.0020817e-19
8.0019827e-19
8.0022133e-19
8.0028432e-19
8.0041008e-19
8.0127553e-19
8.0081979e-19
8.0054057e-19
8.0037236e-19
8.0027697e-19
8.0023093e-19
8.0022133e-19
8.0024462e-19
8.0030778e-19
8.0043366e-19
8.0132847e-19
8.0087678e-19
8.0060038e-19
8.0043377e-19
8.0033923e-19
8.0029365e-19
8.0028432e-19
8.0030778e-19
8.0037108e-19
8.004971e-19
8.0143582e-19
8.0099583e-19
8.0072344e-19
8.0055839e-19
8.0046452e-19
8.0041925e-19
8.0041008e-19
8.0043366e-19
8.004971e-19
8.0062347e-19
1.4622843e-18
1.4614749e-18
1.4609744e-18
1.4606704e-18
1.4604959e-18
1.4604087e-18
1.4603844e-18
1.4604143e-18
1.4605064e-18
1.4606919e-18
1.4614749e-18
1.4606682e-18
1.4601688e-18
1.4598653e-18
1.4596912e-18
1.4596047e-18
1.4595817e-18
1.4596144e-18
1.4597139e-18
1.4599205e-18
1.4609744e-18
1.4601688e-18
1.4596701e-18
1.4593672e-18
1.4591937e-18
1.4591081e-18
1.4590867e-18
1.4591223e-18
1.4592269e-18
1.4594407e-18
1.4606704e-18
1.4598653e-18
1.4593672e-18
1.4590648e-18
1.4588921e-18
1.4588073e-18
1.4587873e-18
1.458825e-18
1.4589324e-18
1.4591491e-18
1.4604959e-18
1.4596912e-18
1.4591937e-18
1.4588921e-18
1.45872e-18
1.4586361e-18
1.458617e-18
1.4586561e-18
1.4587651e-18
1.4589829e-18
1.4604087e-18
1.4596047e-18
1.4591081e-18
1.4588073e-18
1.4586361e-18
1.4585528e-18
1.4585345e-18
1.4585745e-18
1.4586843e-18
1.4589027e-18
1.4603844e-18
1.4595817e-18
1.4590867e-18
1.4587873e-18
1.458617e-18
1.4585345e-18
1.4585169e-18
1.4585574e-18
1.4586676e-18
1.4588863e-18
1.4604143e-18
1.4596144e-18
1.4591223e-18
1.458825e-18
1.4586561e-18
1.4585745e-18
1.4585574e-18
1.4585983e-18
1.4587088e-18
1.4589277e-18
1.4605064e-18
1.4597139e-18
1.4592269e-18
1.4589324e-18
1.4587651e-18
1.4586843e-18
1.4586676e-18
1.4587088e-18
1.4588196e-18
1.4590388e-18
1.4606919e-18
1.4599205e-18
1.4594407e-18
1.4591491e-18
1.4589829e-18
1.4589027e-18
1.4588863e-18
1.4589277e-18
1.4590388e-18
1.4592585e-18
2.6905561e-18
2.6891225e-18
2.6882323e-18
2.6876899e-18
2.687378e-18
2.6872219e-18
2.6871781e-18
2.6872306e-18
2.6873925e-18
2.6877158e-18
2.6891225e-18
2.6876937e-18
2.6868052e-18
2.6862638e-18
2.6859527e-18
2.6857978e-18
2.6857563e-18
2.685814e-18
2.6859892e-18
2.6863511e-18
2.6882323e-18
2.6868052e-18
2.6859181e-18
2.6853777e-18
2.6850678e-18
2.6849145e-18
2.6848759e-18
2.6849389e-18
2.6851233e-18
2.6854983e-18
2.6876899e-18
2.6862638e-18
2.6853777e-18
2.6848384e-18
2.6845297e-18
2.684378e-18
2.6843419e-18
2.6844087e-18
2.6845983e-18
2.6849785e-18
2.687378e-18
2.6859527e-18
2.6850678e-18
2.6845297e-18
2.6842222e-18
2.684072e-18
2.6840377e-18
2.6841069e-18
2.6842993e-18
2.6846817e-18
2.6872219e-18
2.6857978e-18
2.6849145e-18
2.684378e-18
2.684072e-18
2.6839231e-18
2.6838902e-18
2.6839609e-18
2.6841549e-18
2.6845382e-18
2.6871781e-18
2.6857563e-18
2.6848759e-18
2.6843419e-18
2.6840377e-18
2.6838902e-18
2.6838584e-18
2.6839301e-18
2.684125e-18
2.6845089e-18
2.6872306e-18
2.685814e-18
2.6849389e-18
2.6844087e-18
2.6841069e-18
2.6839609e-18
2.6839301e-18
2.6840026e-18
2.684198e-18
2.6845823e-18
2.6873925e-18
2.6859892e-18
2.6851233e-18
2.6845983e-18
2.6842993e-18
2.6841549e-18
2.684125e-18
2.684198e-18
2.6843938e-18
2.6847785e-18
2.6877158e-18
2.6863511e-18
2.6854983e-18
2.6849785e-18
2.6846817e-18
2.6845382e-18
2.6845089e-18
2.6845823e-18
2.6847785e-18
2.6851643e-18
4.9980171e-18
4.9954547e-18
4.9938568e-18
4.9928806e-18
4.9923181e-18
4.9920362e-18
4.9919565e-18
4.9920496e-18
4.9923366e-18
4.9929057e-18
4.9954547e-18
4.9929008e-18
4.9913061e-18
4.9903316e-18
4.9897706e-18
4.9894908e-18
4.9894155e-18
4.9895181e-18
4.9898296e-18
4.9904694e-18
4.9938568e-18
4.9913061e-18
4.9897138e-18
4.9887412e-18
4.9881823e-18
4.9879055e-18
4.9878354e-18
4.9879477e-18
4.9882761e-18
4.9889401e-18
4.9928806e-18
4.9903316e-18
4.9887412e-18
4.9877705e-18
4.9872138e-18
4.98694e-18
4.9868744e-18
4.9869936e-18
4.9873317e-18
4.9880051e-18
4.9923181e-18
4.9897706e-18
4.9881823e-18
4.9872138e-18
4.9866593e-18
4.9863881e-18
4.986326e-18
4.9864497e-18
4.9867928e-18
4.9874703e-18
4.9920362e-18
4.9894908e-18
4.9879055e-18
4.98694e-18
4.9863881e-18
4.9861194e-18
4.9860597e-18
4.9861862e-18
4.9865322e-18
4.9872115e-18
4.9919565e-18
4.9894155e-18
4.9878354e-18
4.9868744e-18
4.986326e-18
4.9860597e-18
4.9860022e-18
4.9861305e-18
4.986478e-18
4.9871583e-18
4.9920496e-18
4.9895181e-18
4.9879477e-18
4.9869936e-18
4.9864497e-18
4.9861862e-18
4.9861305e-18
4.9862602e-18
4.9866087e-18
4.9872896e-18
4.9923366e-18
4.9898296e-18
4.9882761e-18
4.9873317e-18
4.9867928e-18
4.9865322e-18
4.986478e-18
4.9866087e-18
4.986958e-18
4.9876397e-18
4.9929057e-18
4.9904694e-18
4.9889401e-18
4.9880051e-18
4.9874703e-18
4.9872115e-18
4.9871583e-18
4.9872896e-18
4.9876397e-18
4.9883233e-18
9.3735767e-18
9.3689552e-18
9.3660613e-18
9.3642883e-18
9.363265e-18
9.3627512e-18
9.3626052e-18
9.3627718e-18
9.3632855e-18
9.3642961e-18
9.3689552e-18
9.3643489e-18
9.3614607e-18
9.3596909e-18
9.3586703e-18
9.3581605e-18
9.3580223e-18
9.3582066e-18
9.3587656e-18
9.3599075e-18
9.3660613e-18
9.3614607e-18
9.3585769e-18
9.3568105e-18
9.3557937e-18
9.3552894e-18
9.355161e-18
9.3553632e-18
9.3559536e-18
9.3571404e-18
9.3642883e-18
9.3596909e-18
9.3568105e-18
9.3550477e-18
9.3540348e-18
9.353536e-18
9.353416e-18
9.353631e-18
9.3542392e-18
9.3554434e-18
9.363265e-18
9.3586703e-18
9.3557937e-18
9.3540348e-18
9.3530261e-18
9.3525322e-18
9.3524185e-18
9.3526417e-18
9.3532595e-18
9.3544711e-18
9.3627512e-18
9.3581605e-18
9.3552894e-18
9.353536e-18
9.3525322e-18
9.3520428e-18
9.3519338e-18
9.3521622e-18
9.352785e-18
9.3540001e-18
9.3626052e-18
9.3580223e-18
9.355161e-18
9.353416e-18
9.3524185e-18
9.3519338e-18
9.3518286e-18
9.3520604e-18
9.3526861e-18
9.353903e-18
9.3627718e-18
9.3582066e-18
9.3553632e-18
9.353631e-18
9.3526417e-18
9.3521622e-18
9.3520604e-18
9.3522946e-18
9.3529222e-18
9.3541404e-18
9.3632855e-18
9.3587656e-18
9.3559536e-18
9.3542392e-18
9.3532595e-18
9.352785e-18
9.3526861e-18
9.3529222e-18
9.3535513e-18
9.3547708e-18
9.3642961e-18
9.3599075e-18
9.3571404e-18
9.3554434e-18
9.3544711e-18
9.3540001e-18
9.353903e-18
9.3541404e-18
9.3547708e-18
9.3559936e-18
1.7748733e-17
1.7740322e-17
1.7735034e-17
1.7731785e-17
1.7729906e-17
1.7728962e-17
1.7728692e-17
1.7728993e-17
1.7729921e-17
1.7731732e-17
1.7740322e-17
1.7731938e-17
1.7726661e-17
1.7723417e-17
1.7721544e-17
1.7720607e-17
1.7720351e-17
1.7720685e-17
1.7721698e-17
1.7723755e-17
1.7735034e-17
1.7726661e-17
1.7721391e-17
1.7718154e-17
1.7716287e-17
1.771536e-17
1.7715123e-17
1.7715491e-17
1.7716562e-17
1.7718703e-17
1.7731785e-17
1.7723417e-17
1.7718154e-17
1.7714923e-17
1.7713064e-17
1.7712148e-17
1.7711926e-17
1.7712318e-17
1.7713422e-17
1.7715596e-17
1.7729906e-17
1.7721544e-17
1.7716287e-17
1.7713064e-17
1.7711213e-17
1.7710305e-17
1.7710096e-17
1.7710502e-17
1.7711625e-17
1.7713813e-17
1.7728962e-17
1.7720607e-17
1.771536e-17
1.7712148e-17
1.7710305e-17
1.7709406e-17
1.7709205e-17
1.7709622e-17
1.7710754e-17
1.7712948e-17
1.7728692e-17
1.7720351e-17
1.7715123e-17
1.7711926e-17
1.7710096e-17
1.7709205e-17
1.7709011e-17
1.7709434e-17
1.7710572e-17
1.7712769e-17
1.7728993e-17
1.7720685e-17
1.7715491e-17
1.7712318e-17
1.7710502e-17
1.7709622e-17
1.7709434e-17
1.7709862e-17
1.7711002e-17
1.7713202e-17
1.7729921e-17
1.7721698e-17
1.7716562e-17
1.7713422e-17
1.7711625e-17
1.7710754e-17
1.7710572e-17
1.7711002e-17
1.7712146e-17
1.7714348e-17
1.7731732e-17
1.7723755e-17
1.7718703e-17
1.7715596e-17
1.7713813e-17
1.7712948e-17
1.7712769e-17
1.7713202e-17
1.7714348e-17
1.7716556e-17
3.3929862e-17
3.3914416e-17
3.3904665e-17
3.3898658e-17
3.3895179e-17
3.3893427e-17
3.3892924e-17
3.3893473e-17
3.3895165e-17
3.3898442e-17
3.3914416e-17
3.389902e-17
3.3889288e-17
3.3883291e-17
3.3879821e-17
3.3878084e-17
3.3877608e-17
3.3878219e-17
3.3880072e-17
3.3883813e-17
3.3904665e-17
3.3889288e-17
3.387957e-17
3.3873586e-17
3.3870129e-17
3.3868411e-17
3.3867969e-17
3.3868644e-17
3.3870607e-17
3.3874506e-17
3.3898658e-17
3.3883291e-17
3.3873586e-17
3.3867614e-17
3.386417e-17
3.3862471e-17
3.3862059e-17
3.3862779e-17
3.3864805e-17
3.3868766e-17
3.3895179e-17
3.3879821e-17
3.3870129e-17
3.386417e-17
3.3860742e-17
3.385906e-17
3.385867e-17
3.3859419e-17
3.3861478e-17
3.3865465e-17
3.3893427e-17
3.3878084e-17
3.3868411e-17
3.3862471e-17
3.385906e-17
3.3857394e-17
3.385702e-17
3.3857787e-17
3.3859864e-17
3.3863864e-17
3.3892924e-17
3.3877608e-17
3.3867969e-17
3.3862059e-17
3.385867e-17
3.385702e-17
3.385666e-17
3.3857439e-17
3.3859526e-17
3.3863532e-17
3.3893473e-17
3.3878219e-17
3.3868644e-17
3.3862779e-17
3.3859419e-17
3.3857787e-17
3.3857439e-17
3.3858226e-17
3.386032e-17
3.386433e-17
3.3895165e-17
3.3880072e-17
3.3870607e-17
3.3864805e-17
3.3861478e-17
3.3859864e-17
3.3859526e-17
3.386032e-17
3.3862419e-17
3.3866433e-17
3.3898442e-17
3.3883813e-17
3.3874506e-17
3.3868766e-17
3.3865465e-17
3.3863864e-17
3.3863532e-17
3.386433e-17
3.3866433e-17
3.3870459e-17
6.5485238e-17
6.5456617e-17
6.5438477e-17
6.5427272e-17
6.542077e-17
6.5417493e-17
6.5416547e-17
6.5417559e-17
6.5420674e-17
6.5426657e-17
6.5456617e-17
6.5428087e-17
6.5409982e-17
6.5398797e-17
6.5392313e-17
6.5389062e-17
6.5388169e-17
6.5389299e-17
6.5392718e-17
6.5399586e-17
6.5438477e-17
6.5409982e-17
6.5391904e-17
6.5380741e-17
6.5374282e-17
6.5371068e-17
6.5370239e-17
6.5371489e-17
6.5375119e-17
6.5382289e-17
6.5427272e-17
6.5398797e-17
6.5380741e-17
6.5369601e-17
6.5363168e-17
6.535999e-17
6.5359218e-17
6.5360553e-17
6.5364303e-17
6.5371589e-17
6.542077e-17
6.5392313e-17
6.5374282e-17
6.5363168e-17
6.5356762e-17
6.5353617e-17
6.5352887e-17
6.5354277e-17
6.535809e-17
6.5365427e-17
6.5417493e-17
6.5389062e-17
6.5371068e-17
6.535999e-17
6.5353617e-17
6.5350502e-17
6.5349803e-17
6.5351228e-17
6.5355075e-17
6.5362435e-17
6.5416547e-17
6.5388169e-17
6.5370239e-17
6.5359218e-17
6.5352887e-17
6.5349803e-17
6.5349129e-17
6.5350577e-17
6.5354443e-17
6.5361815e-17
6.5417559e-17
6.5389299e-17
6.5371489e-17
6.5360553e-17
6.5354277e-17
6.5351228e-17
6.5350577e-17
6.5352041e-17
6.535592e-17
6.53633e-17
6.5420674e-17
6.5392718e-17
6.5375119e-17
6.5364303e-17
6.535809e-17
6.5355075e-17
6.5354443e-17
6.535592e-17
6.5359808e-17
6.5367196e-17
6.5426657e-17
6.5399586e-17
6.5382289e-17
6.5371589e-17
6.5365427e-17
6.5362435e-17
6.5361815e-17
6.53633e-17
6.5367196e-17
6.5374603e-17
1.27597e-16
1.2754349e-16
1.2750944e-16
1.2748835e-16
1.274761e-16
1.2746991e-16
1.2746812e-16
1.2747e-16
1.2747579e-16
1.2748682e-16
1.2754349e-16
1.2749015e-16
1.2745617e-16
1.2743512e-16
1.2742289e-16
1.2741676e-16
1.2741507e-16
1.2741718e-16
1.2742355e-16
1.2743627e-16
1.2750944e-16
1.2745617e-16
1.2742223e-16
1.2740123e-16
1.2738905e-16
1.2738299e-16
1.2738142e-16
1.2738376e-16
1.2739053e-16
1.2740384e-16
1.2748835e-16
1.2743512e-16
1.2740123e-16
1.2738026e-16
1.2736814e-16
1.2736214e-16
1.2736068e-16
1.2736318e-16
1.2737019e-16
1.2738372e-16
1.274761e-16
1.2742289e-16
1.2738905e-16
1.2736814e-16
1.2735606e-16
1.2735013e-16
1.2734875e-16
1.2735136e-16
1.2735849e-16
1.2737211e-16
1.2746991e-16
1.2741676e-16
1.2738299e-16
1.2736214e-16
1.2735013e-16
1.2734426e-16
1.2734294e-16
1.2734561e-16
1.273528e-16
1.2736648e-16
1.2746812e-16
1.2741507e-16
1.2738142e-16
1.2736068e-16
1.2734875e-16
1.2734294e-16
1.2734167e-16
1.2734438e-16
1.2735161e-16
1.2736531e-16
1.2747e-16
1.2741718e-16
1.2738376e-16
1.2736318e-16
1.2735136e-16
1.2734561e-16
1.2734438e-16
1.2734713e-16
1.2735439e-16
1.273681e-16
1.2747579e-16
1.2742355e-16
1.2739053e-16
1.2737019e-16
1.2735849e-16
1.273528e-16
1.2735161e-16
1.2735439e-16
1.2736166e-16
1.2737538e-16
1.2748682e-16
1.2743627e-16
1.2740384e-16
1.2738372e-16
1.2737211e-16
1.2736648e-16
1.2736531e-16
1.273681e-16
1.2737538e-16
1.2738914e-16
2.5099054e-16
2.508896e-16
2.5082513e-16
2.507851e-16
2.507618e-16
2.5075002e-16
2.507466e-16
2.5075013e-16
2.5076098e-16
2.5078149e-16
2.508896e-16
2.5078899e-16
2.5072464e-16
2.5068468e-16
2.5066143e-16
2.5064976e-16
2.5064653e-16
2.506505e-16
2.5066249e-16
2.5068629e-16
2.5082513e-16
2.5072464e-16
2.5066039e-16
2.506205e-16
2.5059735e-16
2.5058581e-16
2.5058282e-16
2.5058724e-16
2.5060001e-16
2.5062494e-16
2.507851e-16
2.5068468e-16
2.506205e-16
2.5058071e-16
2.5055765e-16
2.5054624e-16
2.5054346e-16
2.505482e-16
2.5056141e-16
2.5058677e-16
2.507618e-16
2.5066143e-16
2.5059735e-16
2.5055765e-16
2.505347e-16
2.5052341e-16
2.5052078e-16
2.5052573e-16
2.5053917e-16
2.5056472e-16
2.5075002e-16
2.5064976e-16
2.5058581e-16
2.5054624e-16
2.5052341e-16
2.5051224e-16
2.5050973e-16
2.5051479e-16
2.5052837e-16
2.50554e-16
2.507466e-16
2.5064653e-16
2.5058282e-16
2.5054346e-16
2.5052078e-16
2.5050973e-16
2.5050731e-16
2.5051246e-16
2.5052611e-16
2.5055179e-16
2.5075013e-16
2.506505e-16
2.5058724e-16
2.505482e-16
2.5052573e-16
2.5051479e-16
2.5051246e-16
2.5051767e-16
2.5053137e-16
2.5055708e-16
2.5076098e-16
2.5066249e-16
2.5060001e-16
2.5056141e-16
2.5053917e-16
2.5052837e-16
2.5052611e-16
2.5053137e-16
2.5054509e-16
2.5057083e-16
2.5078149e-16
2.5068629e-16
2.5062494e-16
2.5058677e-16
2.5056472e-16
2.50554e-16