/*--------------------------------*- C++ -*----------------------------------*\
| =========                 |                                                 |
| \\      /  F ield         | OpenFOAM: The Open Source CFD Toolbox           |
|  \\    /   O peration     | Version:  dev                                   |
|   \\  /    A nd           | Web:      www.OpenFOAM.org                      |
|    \\/     M anipulation  |                                                 |
\*---------------------------------------------------------------------------*/
FoamFile
{
    version     2.0;
    format      ascii;
    class       volScalarField;
    location    "31";
    object      A;
}
// * * * * * * * * * * * * * * * * * * * * * * * * * * * * * * * * * * * * * //

dimensions      [0 0 0 0 1 0 0];

internalField   nonuniform List<scalar> 
10000
(
3.8891472e-43
3.8889129e-43
3.8887946e-43
3.888736e-43
3.8887091e-43
3.8886981e-43
3.8886947e-43
3.8886957e-43
3.8887014e-43
3.8887177e-43
3.8889129e-43
3.8886786e-43
3.8885604e-43
3.8885018e-43
3.8884749e-43
3.8884639e-43
3.8884607e-43
3.888462e-43
3.8884689e-43
3.8884883e-43
3.8887946e-43
3.8885604e-43
3.8884422e-43
3.8883836e-43
3.8883567e-43
3.8883458e-43
3.8883427e-43
3.8883444e-43
3.888352e-43
3.8883724e-43
3.888736e-43
3.8885018e-43
3.8883836e-43
3.888325e-43
3.8882982e-43
3.8882873e-43
3.8882843e-43
3.8882862e-43
3.8882941e-43
3.888315e-43
3.8887091e-43
3.8884749e-43
3.8883567e-43
3.8882982e-43
3.8882714e-43
3.8882605e-43
3.8882576e-43
3.8882596e-43
3.8882676e-43
3.8882886e-43
3.8886981e-43
3.8884639e-43
3.8883458e-43
3.8882873e-43
3.8882605e-43
3.8882497e-43
3.8882468e-43
3.8882489e-43
3.8882569e-43
3.888278e-43
3.8886947e-43
3.8884607e-43
3.8883427e-43
3.8882843e-43
3.8882576e-43
3.8882468e-43
3.888244e-43
3.888246e-43
3.8882541e-43
3.8882752e-43
3.8886957e-43
3.888462e-43
3.8883444e-43
3.8882862e-43
3.8882596e-43
3.8882489e-43
3.888246e-43
3.8882481e-43
3.8882562e-43
3.8882773e-43
3.8887014e-43
3.8884689e-43
3.888352e-43
3.8882941e-43
3.8882676e-43
3.8882569e-43
3.8882541e-43
3.8882562e-43
3.8882643e-43
3.8882854e-43
3.8887177e-43
3.8884883e-43
3.8883724e-43
3.888315e-43
3.8882886e-43
3.888278e-43
3.8882752e-43
3.8882773e-43
3.8882854e-43
3.8883064e-43
1.6082942e-42
1.6082003e-42
1.6081522e-42
1.6081283e-42
1.6081173e-42
1.6081128e-42
1.6081114e-42
1.6081118e-42
1.6081141e-42
1.608121e-42
1.6082003e-42
1.6081066e-42
1.6080584e-42
1.6080345e-42
1.6080235e-42
1.608019e-42
1.6080177e-42
1.6080182e-42
1.608021e-42
1.6080292e-42
1.6081522e-42
1.6080584e-42
1.6080102e-42
1.6079863e-42
1.6079754e-42
1.6079709e-42
1.6079697e-42
1.6079703e-42
1.6079734e-42
1.607982e-42
1.6081283e-42
1.6080345e-42
1.6079863e-42
1.6079624e-42
1.6079515e-42
1.607947e-42
1.6079458e-42
1.6079466e-42
1.6079498e-42
1.6079586e-42
1.6081173e-42
1.6080235e-42
1.6079754e-42
1.6079515e-42
1.6079405e-42
1.6079361e-42
1.6079349e-42
1.6079357e-42
1.607939e-42
1.6079478e-42
1.6081128e-42
1.608019e-42
1.6079709e-42
1.607947e-42
1.6079361e-42
1.6079317e-42
1.6079305e-42
1.6079313e-42
1.6079346e-42
1.6079435e-42
1.6081114e-42
1.6080177e-42
1.6079697e-42
1.6079458e-42
1.6079349e-42
1.6079305e-42
1.6079293e-42
1.6079302e-42
1.6079335e-42
1.6079423e-42
1.6081118e-42
1.6080182e-42
1.6079703e-42
1.6079466e-42
1.6079357e-42
1.6079313e-42
1.6079302e-42
1.607931e-42
1.6079343e-42
1.6079432e-42
1.6081141e-42
1.608021e-42
1.6079734e-42
1.6079498e-42
1.607939e-42
1.6079346e-42
1.6079335e-42
1.6079343e-42
1.6079376e-42
1.6079465e-42
1.608121e-42
1.6080292e-42
1.607982e-42
1.6079586e-42
1.6079478e-42
1.6079435e-42
1.6079423e-42
1.6079432e-42
1.6079465e-42
1.6079553e-42
4.7177601e-42
4.7174929e-42
4.7173548e-42
4.7172861e-42
4.7172545e-42
4.7172415e-42
4.7172376e-42
4.7172387e-42
4.7172454e-42
4.7172651e-42
4.7174929e-42
4.7172259e-42
4.7170878e-42
4.7170191e-42
4.7169875e-42
4.7169746e-42
4.7169708e-42
4.7169724e-42
4.7169804e-42
4.7170039e-42
4.7173548e-42
4.7170878e-42
4.7169498e-42
4.7168811e-42
4.7168495e-42
4.7168367e-42
4.7168331e-42
4.7168351e-42
4.7168438e-42
4.7168686e-42
4.7172861e-42
4.7170191e-42
4.7168811e-42
4.7168124e-42
4.7167809e-42
4.7167681e-42
4.7167646e-42
4.7167668e-42
4.716776e-42
4.7168013e-42
4.7172545e-42
4.7169875e-42
4.7168495e-42
4.7167809e-42
4.7167494e-42
4.7167367e-42
4.7167332e-42
4.7167356e-42
4.7167449e-42
4.7167703e-42
4.7172415e-42
4.7169746e-42
4.7168367e-42
4.7167681e-42
4.7167367e-42
4.716724e-42
4.7167206e-42
4.716723e-42
4.7167324e-42
4.7167578e-42
4.7172376e-42
4.7169708e-42
4.7168331e-42
4.7167646e-42
4.7167332e-42
4.7167206e-42
4.7167172e-42
4.7167196e-42
4.7167291e-42
4.7167546e-42
4.7172387e-42
4.7169724e-42
4.7168351e-42
4.7167668e-42
4.7167356e-42
4.716723e-42
4.7167196e-42
4.7167221e-42
4.7167315e-42
4.716757e-42
4.7172454e-42
4.7169804e-42
4.7168438e-42
4.716776e-42
4.7167449e-42
4.7167324e-42
4.7167291e-42
4.7167315e-42
4.716741e-42
4.7167665e-42
4.7172651e-42
4.7170039e-42
4.7168686e-42
4.7168013e-42
4.7167703e-42
4.7167578e-42
4.7167546e-42
4.716757e-42
4.7167665e-42
4.716792e-42
1.3563799e-41
1.3563054e-41
1.3562667e-41
1.3562474e-41
1.3562385e-41
1.3562349e-41
1.3562337e-41
1.3562341e-41
1.3562359e-41
1.3562413e-41
1.3563054e-41
1.3562309e-41
1.3561922e-41
1.3561729e-41
1.3561641e-41
1.3561604e-41
1.3561594e-41
1.3561598e-41
1.356162e-41
1.3561685e-41
1.3562667e-41
1.3561922e-41
1.3561536e-41
1.3561343e-41
1.3561254e-41
1.3561218e-41
1.3561208e-41
1.3561213e-41
1.3561238e-41
1.3561306e-41
1.3562474e-41
1.3561729e-41
1.3561343e-41
1.356115e-41
1.3561061e-41
1.3561025e-41
1.3561015e-41
1.3561022e-41
1.3561047e-41
1.3561117e-41
1.3562385e-41
1.3561641e-41
1.3561254e-41
1.3561061e-41
1.3560973e-41
1.3560937e-41
1.3560927e-41
1.3560934e-41
1.356096e-41
1.356103e-41
1.3562349e-41
1.3561604e-41
1.3561218e-41
1.3561025e-41
1.3560937e-41
1.3560901e-41
1.3560892e-41
1.3560898e-41
1.3560925e-41
1.3560995e-41
1.3562337e-41
1.3561594e-41
1.3561208e-41
1.3561015e-41
1.3560927e-41
1.3560892e-41
1.3560882e-41
1.3560889e-41
1.3560915e-41
1.3560986e-41
1.3562341e-41
1.3561598e-41
1.3561213e-41
1.3561022e-41
1.3560934e-41
1.3560898e-41
1.3560889e-41
1.3560896e-41
1.3560922e-41
1.3560993e-41
1.3562359e-41
1.356162e-41
1.3561238e-41
1.3561047e-41
1.356096e-41
1.3560925e-41
1.3560915e-41
1.3560922e-41
1.3560948e-41
1.3561019e-41
1.3562413e-41
1.3561685e-41
1.3561306e-41
1.3561117e-41
1.356103e-41
1.3560995e-41
1.3560986e-41
1.3560993e-41
1.3561019e-41
1.356109e-41
3.9484405e-41
3.9482302e-41
3.9481205e-41
3.9480657e-41
3.9480404e-41
3.94803e-41
3.9480269e-41
3.9480277e-41
3.9480329e-41
3.9480478e-41
3.9482302e-41
3.9480201e-41
3.9479104e-41
3.9478556e-41
3.9478303e-41
3.94782e-41
3.947817e-41
3.9478182e-41
3.9478244e-41
3.9478425e-41
3.9481205e-41
3.9479104e-41
3.9478007e-41
3.9477459e-41
3.9477207e-41
3.9477104e-41
3.9477075e-41
3.9477091e-41
3.947716e-41
3.9477351e-41
3.9480657e-41
3.9478556e-41
3.9477459e-41
3.9476911e-41
3.9476659e-41
3.9476557e-41
3.9476529e-41
3.9476547e-41
3.9476619e-41
3.9476813e-41
3.9480404e-41
3.9478303e-41
3.9477207e-41
3.9476659e-41
3.9476407e-41
3.9476305e-41
3.9476278e-41
3.9476297e-41
3.947637e-41
3.9476566e-41
3.94803e-41
3.94782e-41
3.9477104e-41
3.9476557e-41
3.9476305e-41
3.9476204e-41
3.9476177e-41
3.9476196e-41
3.947627e-41
3.9476466e-41
3.9480269e-41
3.947817e-41
3.9477075e-41
3.9476529e-41
3.9476278e-41
3.9476177e-41
3.947615e-41
3.947617e-41
3.9476244e-41
3.947644e-41
3.9480277e-41
3.9478182e-41
3.9477091e-41
3.9476547e-41
3.9476297e-41
3.9476196e-41
3.947617e-41
3.9476189e-41
3.9476264e-41
3.947646e-41
3.9480329e-41
3.9478244e-41
3.947716e-41
3.9476619e-41
3.947637e-41
3.947627e-41
3.9476244e-41
3.9476264e-41
3.9476338e-41
3.9476534e-41
3.9480478e-41
3.9478425e-41
3.9477351e-41
3.9476813e-41
3.9476566e-41
3.9476466e-41
3.947644e-41
3.947646e-41
3.9476534e-41
3.9476731e-41
1.1684796e-40
1.1684193e-40
1.1683877e-40
1.1683719e-40
1.1683646e-40
1.1683616e-40
1.1683607e-40
1.168361e-40
1.1683624e-40
1.1683666e-40
1.1684193e-40
1.1683591e-40
1.1683275e-40
1.1683117e-40
1.1683044e-40
1.1683014e-40
1.1683005e-40
1.1683009e-40
1.1683026e-40
1.1683077e-40
1.1683877e-40
1.1683275e-40
1.1682959e-40
1.1682801e-40
1.1682728e-40
1.1682698e-40
1.168269e-40
1.1682694e-40
1.1682714e-40
1.1682768e-40
1.1683719e-40
1.1683117e-40
1.1682801e-40
1.1682643e-40
1.168257e-40
1.168254e-40
1.1682532e-40
1.1682537e-40
1.1682558e-40
1.1682613e-40
1.1683646e-40
1.1683044e-40
1.1682728e-40
1.168257e-40
1.1682497e-40
1.1682468e-40
1.168246e-40
1.1682465e-40
1.1682486e-40
1.1682542e-40
1.1683616e-40
1.1683014e-40
1.1682698e-40
1.168254e-40
1.1682468e-40
1.1682438e-40
1.168243e-40
1.1682436e-40
1.1682457e-40
1.1682513e-40
1.1683607e-40
1.1683005e-40
1.168269e-40
1.1682532e-40
1.168246e-40
1.168243e-40
1.1682423e-40
1.1682428e-40
1.168245e-40
1.1682505e-40
1.168361e-40
1.1683009e-40
1.1682694e-40
1.1682537e-40
1.1682465e-40
1.1682436e-40
1.1682428e-40
1.1682434e-40
1.1682455e-40
1.1682511e-40
1.1683624e-40
1.1683026e-40
1.1682714e-40
1.1682558e-40
1.1682486e-40
1.1682457e-40
1.168245e-40
1.1682455e-40
1.1682477e-40
1.1682532e-40
1.1683666e-40
1.1683077e-40
1.1682768e-40
1.1682613e-40
1.1682542e-40
1.1682513e-40
1.1682505e-40
1.1682511e-40
1.1682532e-40
1.1682588e-40
3.5172798e-40
3.517104e-40
3.5170114e-40
3.516965e-40
3.5169435e-40
3.5169347e-40
3.516932e-40
3.5169328e-40
3.516937e-40
3.5169489e-40
3.517104e-40
3.5169282e-40
3.5168357e-40
3.5167893e-40
3.5167678e-40
3.5167591e-40
3.5167565e-40
3.5167575e-40
3.5167627e-40
3.5167773e-40
3.5170114e-40
3.5168357e-40
3.5167432e-40
3.5166968e-40
3.5166753e-40
3.5166666e-40
3.5166642e-40
3.5166655e-40
3.5166713e-40
3.5166868e-40
3.516965e-40
3.5167893e-40
3.5166968e-40
3.5166503e-40
3.516629e-40
3.5166203e-40
3.5166179e-40
3.5166194e-40
3.5166255e-40
3.5166413e-40
3.5169435e-40
3.5167678e-40
3.5166753e-40
3.516629e-40
3.5166076e-40
3.5165989e-40
3.5165966e-40
3.5165982e-40
3.5166044e-40
3.5166203e-40
3.5169347e-40
3.5167591e-40
3.5166666e-40
3.5166203e-40
3.5165989e-40
3.5165903e-40
3.516588e-40
3.5165897e-40
3.5165959e-40
3.5166119e-40
3.516932e-40
3.5167565e-40
3.5166642e-40
3.5166179e-40
3.5165966e-40
3.516588e-40
3.5165858e-40
3.5165874e-40
3.5165937e-40
3.5166097e-40
3.5169328e-40
3.5167575e-40
3.5166655e-40
3.5166194e-40
3.5165982e-40
3.5165897e-40
3.5165874e-40
3.5165891e-40
3.5165953e-40
3.5166113e-40
3.516937e-40
3.5167627e-40
3.5166713e-40
3.5166255e-40
3.5166044e-40
3.5165959e-40
3.5165937e-40
3.5165953e-40
3.5166016e-40
3.5166176e-40
3.5169489e-40
3.5167773e-40
3.5166868e-40
3.5166413e-40
3.5166203e-40
3.5166119e-40
3.5166097e-40
3.5166113e-40
3.5166176e-40
3.5166336e-40
1.0770521e-39
1.0769999e-39
1.0769724e-39
1.0769585e-39
1.0769521e-39
1.0769495e-39
1.0769487e-39
1.0769489e-39
1.0769502e-39
1.0769536e-39
1.0769999e-39
1.0769478e-39
1.0769203e-39
1.0769064e-39
1.0769e-39
1.0768974e-39
1.0768966e-39
1.076897e-39
1.0768985e-39
1.0769028e-39
1.0769724e-39
1.0769203e-39
1.0768927e-39
1.0768789e-39
1.0768725e-39
1.0768699e-39
1.0768692e-39
1.0768696e-39
1.0768713e-39
1.0768758e-39
1.0769585e-39
1.0769064e-39
1.0768789e-39
1.076865e-39
1.0768587e-39
1.0768561e-39
1.0768554e-39
1.0768558e-39
1.0768576e-39
1.0768622e-39
1.0769521e-39
1.0769e-39
1.0768725e-39
1.0768587e-39
1.0768523e-39
1.0768497e-39
1.076849e-39
1.0768495e-39
1.0768513e-39
1.076856e-39
1.0769495e-39
1.0768974e-39
1.0768699e-39
1.0768561e-39
1.0768497e-39
1.0768471e-39
1.0768464e-39
1.0768469e-39
1.0768488e-39
1.0768535e-39
1.0769487e-39
1.0768966e-39
1.0768692e-39
1.0768554e-39
1.076849e-39
1.0768464e-39
1.0768458e-39
1.0768463e-39
1.0768481e-39
1.0768528e-39
1.0769489e-39
1.076897e-39
1.0768696e-39
1.0768558e-39
1.0768495e-39
1.0768469e-39
1.0768463e-39
1.0768468e-39
1.0768486e-39
1.0768533e-39
1.0769502e-39
1.0768985e-39
1.0768713e-39
1.0768576e-39
1.0768513e-39
1.0768488e-39
1.0768481e-39
1.0768486e-39
1.0768505e-39
1.0768552e-39
1.0769536e-39
1.0769028e-39
1.0768758e-39
1.0768622e-39
1.076856e-39
1.0768535e-39
1.0768528e-39
1.0768533e-39
1.0768552e-39
1.0768598e-39
3.3553629e-39
3.3552057e-39
3.3551223e-39
3.3550802e-39
3.3550608e-39
3.3550528e-39
3.3550504e-39
3.355051e-39
3.3550548e-39
3.3550649e-39
3.3552057e-39
3.3550486e-39
3.3549652e-39
3.3549231e-39
3.3549037e-39
3.3548957e-39
3.3548934e-39
3.3548944e-39
3.354899e-39
3.3549117e-39
3.3551223e-39
3.3549652e-39
3.3548818e-39
3.3548397e-39
3.3548203e-39
3.3548124e-39
3.3548102e-39
3.3548114e-39
3.3548166e-39
3.3548301e-39
3.3550802e-39
3.3549231e-39
3.3548397e-39
3.3547977e-39
3.3547783e-39
3.3547705e-39
3.3547683e-39
3.3547697e-39
3.3547751e-39
3.354789e-39
3.3550608e-39
3.3549037e-39
3.3548203e-39
3.3547783e-39
3.354759e-39
3.3547511e-39
3.354749e-39
3.3547505e-39
3.354756e-39
3.35477e-39
3.3550528e-39
3.3548957e-39
3.3548124e-39
3.3547705e-39
3.3547511e-39
3.3547433e-39
3.3547412e-39
3.3547427e-39
3.3547483e-39
3.3547623e-39
3.3550504e-39
3.3548934e-39
3.3548102e-39
3.3547683e-39
3.354749e-39
3.3547412e-39
3.3547392e-39
3.3547407e-39
3.3547463e-39
3.3547603e-39
3.355051e-39
3.3548944e-39
3.3548114e-39
3.3547697e-39
3.3547505e-39
3.3547427e-39
3.3547407e-39
3.3547423e-39
3.3547479e-39
3.3547618e-39
3.3550548e-39
3.354899e-39
3.3548166e-39
3.3547751e-39
3.354756e-39
3.3547483e-39
3.3547463e-39
3.3547479e-39
3.3547534e-39
3.3547674e-39
3.3550649e-39
3.3549117e-39
3.3548301e-39
3.354789e-39
3.35477e-39
3.3547623e-39
3.3547603e-39
3.3547618e-39
3.3547674e-39
3.3547814e-39
1.0635008e-38
1.0634526e-38
1.0634269e-38
1.0634139e-38
1.0634079e-38
1.0634055e-38
1.0634047e-38
1.0634049e-38
1.0634061e-38
1.0634091e-38
1.0634526e-38
1.0634044e-38
1.0633787e-38
1.0633658e-38
1.0633598e-38
1.0633573e-38
1.0633566e-38
1.0633569e-38
1.0633583e-38
1.0633621e-38
1.0634269e-38
1.0633787e-38
1.063353e-38
1.0633401e-38
1.0633341e-38
1.0633316e-38
1.063331e-38
1.0633313e-38
1.0633329e-38
1.063337e-38
1.0634139e-38
1.0633658e-38
1.0633401e-38
1.0633271e-38
1.0633211e-38
1.0633187e-38
1.0633181e-38
1.0633185e-38
1.0633201e-38
1.0633243e-38
1.0634079e-38
1.0633598e-38
1.0633341e-38
1.0633211e-38
1.0633152e-38
1.0633127e-38
1.0633121e-38
1.0633125e-38
1.0633142e-38
1.0633185e-38
1.0634055e-38
1.0633573e-38
1.0633316e-38
1.0633187e-38
1.0633127e-38
1.0633103e-38
1.0633097e-38
1.0633102e-38
1.0633119e-38
1.0633161e-38
1.0634047e-38
1.0633566e-38
1.063331e-38
1.0633181e-38
1.0633121e-38
1.0633097e-38
1.0633091e-38
1.0633095e-38
1.0633112e-38
1.0633155e-38
1.0634049e-38
1.0633569e-38
1.0633313e-38
1.0633185e-38
1.0633125e-38
1.0633102e-38
1.0633095e-38
1.06331e-38
1.0633117e-38
1.063316e-38
1.0634061e-38
1.0633583e-38
1.0633329e-38
1.0633201e-38
1.0633142e-38
1.0633119e-38
1.0633112e-38
1.0633117e-38
1.0633134e-38
1.0633177e-38
1.0634091e-38
1.0633621e-38
1.063337e-38
1.0633243e-38
1.0633185e-38
1.0633161e-38
1.0633155e-38
1.063316e-38
1.0633177e-38
1.0633219e-38
3.429648e-38
3.4294976e-38
3.4294172e-38
3.4293765e-38
3.4293577e-38
3.4293499e-38
3.4293476e-38
3.4293482e-38
3.4293518e-38
3.4293611e-38
3.4294976e-38
3.4293474e-38
3.429267e-38
3.4292263e-38
3.4292074e-38
3.4291997e-38
3.4291975e-38
3.4291984e-38
3.4292028e-38
3.4292146e-38
3.4294172e-38
3.429267e-38
3.4291866e-38
3.4291459e-38
3.4291271e-38
3.4291194e-38
3.4291173e-38
3.4291185e-38
3.4291234e-38
3.4291361e-38
3.4293765e-38
3.4292263e-38
3.4291459e-38
3.4291052e-38
3.4290864e-38
3.4290788e-38
3.4290768e-38
3.4290781e-38
3.4290833e-38
3.4290963e-38
3.4293577e-38
3.4292074e-38
3.4291271e-38
3.4290864e-38
3.4290676e-38
3.42906e-38
3.429058e-38
3.4290595e-38
3.4290648e-38
3.4290779e-38
3.4293499e-38
3.4291997e-38
3.4291194e-38
3.4290788e-38
3.42906e-38
3.4290525e-38
3.4290505e-38
3.429052e-38
3.4290573e-38
3.4290704e-38
3.4293476e-38
3.4291975e-38
3.4291173e-38
3.4290768e-38
3.429058e-38
3.4290505e-38
3.4290485e-38
3.42905e-38
3.4290554e-38
3.4290685e-38
3.4293482e-38
3.4291984e-38
3.4291185e-38
3.4290781e-38
3.4290595e-38
3.429052e-38
3.42905e-38
3.4290515e-38
3.4290569e-38
3.42907e-38
3.4293518e-38
3.4292028e-38
3.4291234e-38
3.4290833e-38
3.4290648e-38
3.4290573e-38
3.4290554e-38
3.4290569e-38
3.4290623e-38
3.4290754e-38
3.4293611e-38
3.4292146e-38
3.4291361e-38
3.4290963e-38
3.4290779e-38
3.4290704e-38
3.4290685e-38
3.42907e-38
3.4290754e-38
3.4290885e-38
1.1253508e-37
1.1253031e-37
1.1252775e-37
1.1252645e-37
1.1252585e-37
1.125256e-37
1.1252553e-37
1.1252555e-37
1.1252566e-37
1.1252595e-37
1.1253031e-37
1.1252554e-37
1.1252298e-37
1.1252169e-37
1.1252108e-37
1.1252084e-37
1.1252077e-37
1.125208e-37
1.1252094e-37
1.1252131e-37
1.1252775e-37
1.1252298e-37
1.1252042e-37
1.1251913e-37
1.1251853e-37
1.1251828e-37
1.1251821e-37
1.1251825e-37
1.1251841e-37
1.1251881e-37
1.1252645e-37
1.1252169e-37
1.1251913e-37
1.1251783e-37
1.1251723e-37
1.1251699e-37
1.1251692e-37
1.1251696e-37
1.1251713e-37
1.1251754e-37
1.1252585e-37
1.1252108e-37
1.1251853e-37
1.1251723e-37
1.1251663e-37
1.1251639e-37
1.1251632e-37
1.1251637e-37
1.1251654e-37
1.1251695e-37
1.125256e-37
1.1252084e-37
1.1251828e-37
1.1251699e-37
1.1251639e-37
1.1251614e-37
1.1251608e-37
1.1251613e-37
1.125163e-37
1.1251671e-37
1.1252553e-37
1.1252077e-37
1.1251821e-37
1.1251692e-37
1.1251632e-37
1.1251608e-37
1.1251602e-37
1.1251607e-37
1.1251624e-37
1.1251665e-37
1.1252555e-37
1.125208e-37
1.1251825e-37
1.1251696e-37
1.1251637e-37
1.1251613e-37
1.1251607e-37
1.1251612e-37
1.1251629e-37
1.125167e-37
1.1252566e-37
1.1252094e-37
1.1251841e-37
1.1251713e-37
1.1251654e-37
1.125163e-37
1.1251624e-37
1.1251629e-37
1.1251646e-37
1.1251687e-37
1.1252595e-37
1.1252131e-37
1.1251881e-37
1.1251754e-37
1.1251695e-37
1.1251671e-37
1.1251665e-37
1.125167e-37
1.1251687e-37
1.1251728e-37
3.7571741e-37
3.7570203e-37
3.7569374e-37
3.7568953e-37
3.7568757e-37
3.7568677e-37
3.7568653e-37
3.7568659e-37
3.7568696e-37
3.7568787e-37
3.7570203e-37
3.7568665e-37
3.7567837e-37
3.7567416e-37
3.756722e-37
3.756714e-37
3.7567117e-37
3.7567127e-37
3.7567172e-37
3.756729e-37
3.7569374e-37
3.7567837e-37
3.7567008e-37
3.7566587e-37
3.7566392e-37
3.7566313e-37
3.7566291e-37
3.7566303e-37
3.7566354e-37
3.7566481e-37
3.7568953e-37
3.7567416e-37
3.7566587e-37
3.7566167e-37
3.7565972e-37
3.7565893e-37
3.7565871e-37
3.7565886e-37
3.7565939e-37
3.756607e-37
3.7568757e-37
3.756722e-37
3.7566392e-37
3.7565972e-37
3.7565777e-37
3.7565698e-37
3.7565677e-37
3.7565693e-37
3.7565747e-37
3.7565879e-37
3.7568677e-37
3.756714e-37
3.7566313e-37
3.7565893e-37
3.7565698e-37
3.7565619e-37
3.7565599e-37
3.7565615e-37
3.756567e-37
3.7565802e-37
3.7568653e-37
3.7567117e-37
3.7566291e-37
3.7565871e-37
3.7565677e-37
3.7565599e-37
3.7565579e-37
3.7565595e-37
3.756565e-37
3.7565782e-37
3.7568659e-37
3.7567127e-37
3.7566303e-37
3.7565886e-37
3.7565693e-37
3.7565615e-37
3.7565595e-37
3.7565611e-37
3.7565666e-37
3.7565798e-37
3.7568696e-37
3.7567172e-37
3.7566354e-37
3.7565939e-37
3.7565747e-37
3.756567e-37
3.756565e-37
3.7565666e-37
3.7565722e-37
3.7565854e-37
3.7568787e-37
3.756729e-37
3.7566481e-37
3.756607e-37
3.7565879e-37
3.7565802e-37
3.7565782e-37
3.7565798e-37
3.7565854e-37
3.7565986e-37
1.2763597e-36
1.2763092e-36
1.2762819e-36
1.276268e-36
1.2762616e-36
1.2762589e-36
1.2762581e-36
1.2762583e-36
1.2762595e-36
1.2762625e-36
1.2763092e-36
1.2762588e-36
1.2762315e-36
1.2762176e-36
1.2762112e-36
1.2762085e-36
1.2762077e-36
1.2762081e-36
1.2762096e-36
1.2762134e-36
1.2762819e-36
1.2762315e-36
1.2762042e-36
1.2761903e-36
1.2761839e-36
1.2761813e-36
1.2761805e-36
1.276181e-36
1.2761826e-36
1.2761868e-36
1.276268e-36
1.2762176e-36
1.2761903e-36
1.2761765e-36
1.27617e-36
1.2761674e-36
1.2761667e-36
1.2761672e-36
1.276169e-36
1.2761732e-36
1.2762616e-36
1.2762112e-36
1.2761839e-36
1.27617e-36
1.2761636e-36
1.276161e-36
1.2761603e-36
1.2761608e-36
1.2761626e-36
1.2761669e-36
1.2762589e-36
1.2762085e-36
1.2761813e-36
1.2761674e-36
1.276161e-36
1.2761584e-36
1.2761577e-36
1.2761582e-36
1.2761601e-36
1.2761644e-36
1.2762581e-36
1.2762077e-36
1.2761805e-36
1.2761667e-36
1.2761603e-36
1.2761577e-36
1.2761571e-36
1.2761576e-36
1.2761594e-36
1.2761637e-36
1.2762583e-36
1.2762081e-36
1.276181e-36
1.2761672e-36
1.2761608e-36
1.2761582e-36
1.2761576e-36
1.2761581e-36
1.27616e-36
1.2761642e-36
1.2762595e-36
1.2762096e-36
1.2761826e-36
1.276169e-36
1.2761626e-36
1.2761601e-36
1.2761594e-36
1.27616e-36
1.2761618e-36
1.2761661e-36
1.2762625e-36
1.2762134e-36
1.2761868e-36
1.2761732e-36
1.2761669e-36
1.2761644e-36
1.2761637e-36
1.2761642e-36
1.2761661e-36
1.2761704e-36
4.4118542e-36
4.4116858e-36
4.4115944e-36
4.4115479e-36
4.4115262e-36
4.4115173e-36
4.4115146e-36
4.4115154e-36
4.4115193e-36
4.4115289e-36
4.4116858e-36
4.4115176e-36
4.4114262e-36
4.4113797e-36
4.411358e-36
4.4113491e-36
4.4113466e-36
4.4113477e-36
4.4113526e-36
4.4113653e-36
4.4115944e-36
4.4114262e-36
4.4113349e-36
4.4112883e-36
4.4112667e-36
4.4112579e-36
4.4112555e-36
4.4112569e-36
4.4112625e-36
4.4112762e-36
4.4115479e-36
4.4113797e-36
4.4112883e-36
4.4112418e-36
4.4112202e-36
4.4112114e-36
4.4112091e-36
4.4112107e-36
4.4112166e-36
4.4112307e-36
4.4115262e-36
4.411358e-36
4.4112667e-36
4.4112202e-36
4.4111986e-36
4.4111899e-36
4.4111876e-36
4.4111893e-36
4.4111954e-36
4.4112096e-36
4.4115173e-36
4.4113491e-36
4.4112579e-36
4.4112114e-36
4.4111899e-36
4.4111812e-36
4.4111789e-36
4.4111807e-36
4.4111868e-36
4.411201e-36
4.4115146e-36
4.4113466e-36
4.4112555e-36
4.4112091e-36
4.4111876e-36
4.4111789e-36
4.4111767e-36
4.4111785e-36
4.4111846e-36
4.4111989e-36
4.4115154e-36
4.4113477e-36
4.4112569e-36
4.4112107e-36
4.4111893e-36
4.4111807e-36
4.4111785e-36
4.4111803e-36
4.4111865e-36
4.4112007e-36
4.4115193e-36
4.4113526e-36
4.4112625e-36
4.4112166e-36
4.4111954e-36
4.4111868e-36
4.4111846e-36
4.4111865e-36
4.4111926e-36
4.4112069e-36
4.4115289e-36
4.4113653e-36
4.4112762e-36
4.4112307e-36
4.4112096e-36
4.411201e-36
4.4111989e-36
4.4112007e-36
4.4112069e-36
4.4112211e-36
1.5516649e-35
1.5516078e-35
1.5515767e-35
1.5515608e-35
1.5515534e-35
1.5515503e-35
1.5515494e-35
1.5515497e-35
1.551551e-35
1.5515542e-35
1.5516078e-35
1.5515507e-35
1.5515196e-35
1.5515037e-35
1.5514963e-35
1.5514933e-35
1.5514924e-35
1.5514928e-35
1.5514945e-35
1.5514987e-35
1.5515767e-35
1.5515196e-35
1.5514885e-35
1.5514726e-35
1.5514652e-35
1.5514622e-35
1.5514614e-35
1.5514619e-35
1.5514638e-35
1.5514684e-35
1.5515608e-35
1.5515037e-35
1.5514726e-35
1.5514567e-35
1.5514494e-35
1.5514464e-35
1.5514456e-35
1.5514462e-35
1.5514482e-35
1.5514529e-35
1.5515534e-35
1.5514963e-35
1.5514652e-35
1.5514494e-35
1.551442e-35
1.551439e-35
1.5514383e-35
1.5514389e-35
1.5514409e-35
1.5514457e-35
1.5515503e-35
1.5514933e-35
1.5514622e-35
1.5514464e-35
1.551439e-35
1.5514361e-35
1.5514353e-35
1.5514359e-35
1.551438e-35
1.5514428e-35
1.5515494e-35
1.5514924e-35
1.5514614e-35
1.5514456e-35
1.5514383e-35
1.5514353e-35
1.5514345e-35
1.5514352e-35
1.5514373e-35
1.5514421e-35
1.5515497e-35
1.5514928e-35
1.5514619e-35
1.5514462e-35
1.5514389e-35
1.5514359e-35
1.5514352e-35
1.5514358e-35
1.5514379e-35
1.5514427e-35
1.551551e-35
1.5514945e-35
1.5514638e-35
1.5514482e-35
1.5514409e-35
1.551438e-35
1.5514373e-35
1.5514379e-35
1.55144e-35
1.5514448e-35
1.5515542e-35
1.5514987e-35
1.5514684e-35
1.5514529e-35
1.5514457e-35
1.5514428e-35
1.5514421e-35
1.5514427e-35
1.5514448e-35
1.5514496e-35
5.5525176e-35
5.5523206e-35
5.5522129e-35
5.5521578e-35
5.5521321e-35
5.5521216e-35
5.5521184e-35
5.5521193e-35
5.5521239e-35
5.5521348e-35
5.5523206e-35
5.5521236e-35
5.552016e-35
5.5519609e-35
5.5519353e-35
5.5519247e-35
5.5519217e-35
5.5519231e-35
5.5519289e-35
5.5519435e-35
5.5522129e-35
5.552016e-35
5.5519083e-35
5.5518533e-35
5.5518276e-35
5.5518172e-35
5.5518144e-35
5.5518161e-35
5.5518227e-35
5.5518386e-35
5.5521578e-35
5.5519609e-35
5.5518533e-35
5.5517982e-35
5.5517726e-35
5.5517623e-35
5.5517596e-35
5.5517615e-35
5.5517686e-35
5.5517848e-35
5.5521321e-35
5.5519353e-35
5.5518276e-35
5.5517726e-35
5.5517471e-35
5.5517367e-35
5.5517341e-35
5.5517362e-35
5.5517434e-35
5.5517598e-35
5.5521216e-35
5.5519247e-35
5.5518172e-35
5.5517623e-35
5.5517367e-35
5.5517264e-35
5.5517238e-35
5.551726e-35
5.5517332e-35
5.5517497e-35
5.5521184e-35
5.5519217e-35
5.5518144e-35
5.5517596e-35
5.5517341e-35
5.5517238e-35
5.5517212e-35
5.5517234e-35
5.5517307e-35
5.5517472e-35
5.5521193e-35
5.5519231e-35
5.5518161e-35
5.5517615e-35
5.5517362e-35
5.551726e-35
5.5517234e-35
5.5517256e-35
5.5517329e-35
5.5517494e-35
5.5521239e-35
5.5519289e-35
5.5518227e-35
5.5517686e-35
5.5517434e-35
5.5517332e-35
5.5517307e-35
5.5517329e-35
5.5517402e-35
5.5517567e-35
5.5521348e-35
5.5519435e-35
5.5518386e-35
5.5517848e-35
5.5517598e-35
5.5517497e-35
5.5517472e-35
5.5517494e-35
5.5517567e-35
5.5517732e-35
2.0215177e-34
2.0214486e-34
2.0214107e-34
2.0213913e-34
2.0213822e-34
2.0213785e-34
2.0213774e-34
2.0213777e-34
2.0213793e-34
2.0213831e-34
2.0214486e-34
2.0213795e-34
2.0213416e-34
2.0213222e-34
2.0213132e-34
2.0213094e-34
2.0213084e-34
2.0213089e-34
2.0213109e-34
2.021316e-34
2.0214107e-34
2.0213416e-34
2.0213037e-34
2.0212843e-34
2.0212753e-34
2.0212716e-34
2.0212706e-34
2.0212712e-34
2.0212736e-34
2.0212791e-34
2.0213913e-34
2.0213222e-34
2.0212843e-34
2.0212649e-34
2.0212559e-34
2.0212522e-34
2.0212513e-34
2.021252e-34
2.0212545e-34
2.0212601e-34
2.0213822e-34
2.0213132e-34
2.0212753e-34
2.0212559e-34
2.0212469e-34
2.0212432e-34
2.0212423e-34
2.021243e-34
2.0212456e-34
2.0212513e-34
2.0213785e-34
2.0213094e-34
2.0212716e-34
2.0212522e-34
2.0212432e-34
2.0212396e-34
2.0212387e-34
2.0212394e-34
2.021242e-34
2.0212478e-34
2.0213774e-34
2.0213084e-34
2.0212706e-34
2.0212513e-34
2.0212423e-34
2.0212387e-34
2.0212378e-34
2.0212385e-34
2.0212411e-34
2.0212469e-34
2.0213777e-34
2.0213089e-34
2.0212712e-34
2.021252e-34
2.021243e-34
2.0212394e-34
2.0212385e-34
2.0212393e-34
2.0212419e-34
2.0212477e-34
2.0213793e-34
2.0213109e-34
2.0212736e-34
2.0212545e-34
2.0212456e-34
2.021242e-34
2.0212411e-34
2.0212419e-34
2.0212445e-34
2.0212503e-34
2.0213831e-34
2.021316e-34
2.0212791e-34
2.0212601e-34
2.0212513e-34
2.0212478e-34
2.0212469e-34
2.0212477e-34
2.0212503e-34
2.021256e-34
7.4874626e-34
7.4872161e-34
7.4870805e-34
7.4870109e-34
7.4869784e-34
7.486965e-34
7.486961e-34
7.4869622e-34
7.486968e-34
7.4869811e-34
7.4872161e-34
7.4869697e-34
7.4868341e-34
7.4867646e-34
7.4867321e-34
7.4867188e-34
7.486715e-34
7.4867167e-34
7.4867241e-34
7.4867421e-34
7.4870805e-34
7.4868341e-34
7.4866985e-34
7.486629e-34
7.4865966e-34
7.4865834e-34
7.4865798e-34
7.4865821e-34
7.4865905e-34
7.4866101e-34
7.4870109e-34
7.4867646e-34
7.486629e-34
7.4865595e-34
7.4865271e-34
7.486514e-34
7.4865106e-34
7.4865131e-34
7.486522e-34
7.4865422e-34
7.4869784e-34
7.4867321e-34
7.4865966e-34
7.4865271e-34
7.4864947e-34
7.4864817e-34
7.4864784e-34
7.4864811e-34
7.4864902e-34
7.4865106e-34
7.486965e-34
7.4867188e-34
7.4865834e-34
7.486514e-34
7.4864817e-34
7.4864686e-34
7.4864654e-34
7.4864682e-34
7.4864774e-34
7.4864978e-34
7.486961e-34
7.486715e-34
7.4865798e-34
7.4865106e-34
7.4864784e-34
7.4864654e-34
7.4864621e-34
7.4864649e-34
7.4864742e-34
7.4864947e-34
7.4869622e-34
7.4867167e-34
7.4865821e-34
7.4865131e-34
7.4864811e-34
7.4864682e-34
7.4864649e-34
7.4864678e-34
7.4864771e-34
7.4864976e-34
7.486968e-34
7.4867241e-34
7.4865905e-34
7.486522e-34
7.4864902e-34
7.4864774e-34
7.4864742e-34
7.4864771e-34
7.4864864e-34
7.4865069e-34
7.4869811e-34
7.4867421e-34
7.4866101e-34
7.4865422e-34
7.4865106e-34
7.4864978e-34
7.4864947e-34
7.4864976e-34
7.4865069e-34
7.4865274e-34
2.8211646e-33
2.8210753e-33
2.8210259e-33
2.8210006e-33
2.8209887e-33
2.8209839e-33
2.8209824e-33
2.8209828e-33
2.8209849e-33
2.8209896e-33
2.8210753e-33
2.8209859e-33
2.8209366e-33
2.8209113e-33
2.8208994e-33
2.8208946e-33
2.8208932e-33
2.8208939e-33
2.8208965e-33
2.820903e-33
2.8210259e-33
2.8209366e-33
2.8208873e-33
2.820862e-33
2.8208501e-33
2.8208453e-33
2.820844e-33
2.8208449e-33
2.8208479e-33
2.820855e-33
2.8210006e-33
2.8209113e-33
2.820862e-33
2.8208366e-33
2.8208248e-33
2.82082e-33
2.8208188e-33
2.8208198e-33
2.820823e-33
2.8208303e-33
2.8209887e-33
2.8208994e-33
2.8208501e-33
2.8208248e-33
2.820813e-33
2.8208083e-33
2.8208071e-33
2.8208081e-33
2.8208114e-33
2.8208188e-33
2.8209839e-33
2.8208946e-33
2.8208453e-33
2.82082e-33
2.8208083e-33
2.8208035e-33
2.8208023e-33
2.8208034e-33
2.8208068e-33
2.8208142e-33
2.8209824e-33
2.8208932e-33
2.820844e-33
2.8208188e-33
2.8208071e-33
2.8208023e-33
2.8208012e-33
2.8208022e-33
2.8208056e-33
2.820813e-33
2.8209828e-33
2.8208939e-33
2.8208449e-33
2.8208198e-33
2.8208081e-33
2.8208034e-33
2.8208022e-33
2.8208033e-33
2.8208067e-33
2.8208141e-33
2.8209849e-33
2.8208965e-33
2.8208479e-33
2.820823e-33
2.8208114e-33
2.8208068e-33
2.8208056e-33
2.8208067e-33
2.8208101e-33
2.8208175e-33
2.8209896e-33
2.820903e-33
2.820855e-33
2.8208303e-33
2.8208188e-33
2.8208142e-33
2.820813e-33
2.8208141e-33
2.8208175e-33
2.8208249e-33
1.081232e-32
1.081199e-32
1.0811808e-32
1.0811714e-32
1.081167e-32
1.0811652e-32
1.0811647e-32
1.0811648e-32
1.0811656e-32
1.0811673e-32
1.081199e-32
1.0811661e-32
1.0811479e-32
1.0811385e-32
1.0811341e-32
1.0811323e-32
1.0811318e-32
1.0811321e-32
1.0811331e-32
1.0811354e-32
1.0811808e-32
1.0811479e-32
1.0811297e-32
1.0811203e-32
1.0811159e-32
1.0811141e-32
1.0811136e-32
1.0811139e-32
1.0811151e-32
1.0811177e-32
1.0811714e-32
1.0811385e-32
1.0811203e-32
1.0811109e-32
1.0811065e-32
1.0811047e-32
1.0811043e-32
1.0811047e-32
1.0811059e-32
1.0811086e-32
1.081167e-32
1.0811341e-32
1.0811159e-32
1.0811065e-32
1.0811021e-32
1.0811004e-32
1.0810999e-32
1.0811003e-32
1.0811016e-32
1.0811043e-32
1.0811652e-32
1.0811323e-32
1.0811141e-32
1.0811047e-32
1.0811004e-32
1.0810986e-32
1.0810982e-32
1.0810986e-32
1.0810998e-32
1.0811026e-32
1.0811647e-32
1.0811318e-32
1.0811136e-32
1.0811043e-32
1.0810999e-32
1.0810982e-32
1.0810978e-32
1.0810982e-32
1.0810994e-32
1.0811021e-32
1.0811648e-32
1.0811321e-32
1.0811139e-32
1.0811047e-32
1.0811003e-32
1.0810986e-32
1.0810982e-32
1.0810985e-32
1.0810998e-32
1.0811025e-32
1.0811656e-32
1.0811331e-32
1.0811151e-32
1.0811059e-32
1.0811016e-32
1.0810998e-32
1.0810994e-32
1.0810998e-32
1.0811011e-32
1.0811038e-32
1.0811673e-32
1.0811354e-32
1.0811177e-32
1.0811086e-32
1.0811043e-32
1.0811026e-32
1.0811021e-32
1.0811025e-32
1.0811038e-32