/*--------------------------------*- C++ -*----------------------------------*\
| =========                 |                                                 |
| \\      /  F ield         | OpenFOAM: The Open Source CFD Toolbox           |
|  \\    /   O peration     | Version:  dev                                   |
|   \\  /    A nd           | Web:      www.OpenFOAM.org                      |
|    \\/     M anipulation  |                                                 |
\*---------------------------------------------------------------------------*/
FoamFile
{
    version     2.0;
    format      ascii;
    class       volScalarField;
    location    "31";
    object      A_0;
}
// * * * * * * * * * * * * * * * * * * * * * * * * * * * * * * * * * * * * * //

dimensions      [0 0 0 0 1 0 0];

internalField   nonuniform List<scalar> 
10000
(
3.8563672e-43
3.8561348e-43
3.8560175e-43
3.8559594e-43
3.8559327e-43
3.8559217e-43
3.8559184e-43
3.8559194e-43
3.8559251e-43
3.8559412e-43
3.8561348e-43
3.8559024e-43
3.8557852e-43
3.8557271e-43
3.8557004e-43
3.8556895e-43
3.8556863e-43
3.8556876e-43
3.8556944e-43
3.8557137e-43
3.8560175e-43
3.8557852e-43
3.855668e-43
3.8556099e-43
3.8555832e-43
3.8555724e-43
3.8555693e-43
3.855571e-43
3.8555785e-43
3.8555988e-43
3.8559594e-43
3.8557271e-43
3.8556099e-43
3.8555518e-43
3.8555251e-43
3.8555144e-43
3.8555114e-43
3.8555133e-43
3.8555211e-43
3.8555418e-43
3.8559327e-43
3.8557004e-43
3.8555832e-43
3.8555251e-43
3.8554985e-43
3.8554878e-43
3.8554849e-43
3.8554869e-43
3.8554948e-43
3.8555156e-43
3.8559217e-43
3.8556895e-43
3.8555724e-43
3.8555144e-43
3.8554878e-43
3.8554771e-43
3.8554742e-43
3.8554762e-43
3.8554842e-43
3.8555051e-43
3.8559184e-43
3.8556863e-43
3.8555693e-43
3.8555114e-43
3.8554849e-43
3.8554742e-43
3.8554714e-43
3.8554734e-43
3.8554814e-43
3.8555023e-43
3.8559194e-43
3.8556876e-43
3.855571e-43
3.8555133e-43
3.8554869e-43
3.8554762e-43
3.8554734e-43
3.8554755e-43
3.8554835e-43
3.8555044e-43
3.8559251e-43
3.8556944e-43
3.8555785e-43
3.8555211e-43
3.8554948e-43
3.8554842e-43
3.8554814e-43
3.8554835e-43
3.8554915e-43
3.8555124e-43
3.8559412e-43
3.8557137e-43
3.8555988e-43
3.8555418e-43
3.8555156e-43
3.8555051e-43
3.8555023e-43
3.8555044e-43
3.8555124e-43
3.8555333e-43
1.5948245e-42
1.5947315e-42
1.5946837e-42
1.59466e-42
1.5946491e-42
1.5946446e-42
1.5946432e-42
1.5946436e-42
1.594646e-42
1.5946528e-42
1.5947315e-42
1.5946384e-42
1.5945907e-42
1.594567e-42
1.5945561e-42
1.5945516e-42
1.5945503e-42
1.5945509e-42
1.5945536e-42
1.5945617e-42
1.5946837e-42
1.5945907e-42
1.5945429e-42
1.5945192e-42
1.5945083e-42
1.5945039e-42
1.5945027e-42
1.5945033e-42
1.5945064e-42
1.5945149e-42
1.59466e-42
1.594567e-42
1.5945192e-42
1.5944955e-42
1.5944846e-42
1.5944802e-42
1.594479e-42
1.5944798e-42
1.594483e-42
1.5944917e-42
1.5946491e-42
1.5945561e-42
1.5945083e-42
1.5944846e-42
1.5944738e-42
1.5944694e-42
1.5944682e-42
1.594469e-42
1.5944722e-42
1.594481e-42
1.5946446e-42
1.5945516e-42
1.5945039e-42
1.5944802e-42
1.5944694e-42
1.594465e-42
1.5944638e-42
1.5944647e-42
1.5944679e-42
1.5944767e-42
1.5946432e-42
1.5945503e-42
1.5945027e-42
1.594479e-42
1.5944682e-42
1.5944638e-42
1.5944627e-42
1.5944635e-42
1.5944668e-42
1.5944755e-42
1.5946436e-42
1.5945509e-42
1.5945033e-42
1.5944798e-42
1.594469e-42
1.5944647e-42
1.5944635e-42
1.5944643e-42
1.5944676e-42
1.5944764e-42
1.594646e-42
1.5945536e-42
1.5945064e-42
1.594483e-42
1.5944722e-42
1.5944679e-42
1.5944668e-42
1.5944676e-42
1.5944709e-42
1.5944797e-42
1.5946528e-42
1.5945617e-42
1.5945149e-42
1.5944917e-42
1.594481e-42
1.5944767e-42
1.5944755e-42
1.5944764e-42
1.5944797e-42
1.5944884e-42
4.6786388e-42
4.6783739e-42
4.6782369e-42
4.6781687e-42
4.6781374e-42
4.6781245e-42
4.6781206e-42
4.6781217e-42
4.6781283e-42
4.6781479e-42
4.6783739e-42
4.678109e-42
4.677972e-42
4.6779039e-42
4.6778725e-42
4.6778598e-42
4.677856e-42
4.6778575e-42
4.6778654e-42
4.6778888e-42
4.6782369e-42
4.677972e-42
4.6778351e-42
4.6777669e-42
4.6777357e-42
4.6777229e-42
4.6777193e-42
4.6777213e-42
4.67773e-42
4.6777546e-42
4.6781687e-42
4.6779039e-42
4.6777669e-42
4.6776988e-42
4.6776676e-42
4.6776549e-42
4.6776514e-42
4.6776536e-42
4.6776627e-42
4.6776878e-42
4.6781374e-42
4.6778725e-42
4.6777357e-42
4.6776676e-42
4.6776363e-42
4.6776237e-42
4.6776203e-42
4.6776226e-42
4.6776319e-42
4.6776571e-42
4.6781245e-42
4.6778598e-42
4.6777229e-42
4.6776549e-42
4.6776237e-42
4.6776111e-42
4.6776077e-42
4.6776101e-42
4.6776194e-42
4.6776447e-42
4.6781206e-42
4.677856e-42
4.6777193e-42
4.6776514e-42
4.6776203e-42
4.6776077e-42
4.6776044e-42
4.6776068e-42
4.6776162e-42
4.6776414e-42
4.6781217e-42
4.6778575e-42
4.6777213e-42
4.6776536e-42
4.6776226e-42
4.6776101e-42
4.6776068e-42
4.6776092e-42
4.6776186e-42
4.6776439e-42
4.6781283e-42
4.6778654e-42
4.67773e-42
4.6776627e-42
4.6776319e-42
4.6776194e-42
4.6776162e-42
4.6776186e-42
4.677628e-42
4.6776532e-42
4.6781479e-42
4.6778888e-42
4.6777546e-42
4.6776878e-42
4.6776571e-42
4.6776447e-42
4.6776414e-42
4.6776439e-42
4.6776532e-42
4.6776785e-42
1.345258e-41
1.3451841e-41
1.3451458e-41
1.3451266e-41
1.3451178e-41
1.3451142e-41
1.3451131e-41
1.3451134e-41
1.3451152e-41
1.3451206e-41
1.3451841e-41
1.3451103e-41
1.3450719e-41
1.3450527e-41
1.3450439e-41
1.3450403e-41
1.3450393e-41
1.3450397e-41
1.3450419e-41
1.3450483e-41
1.3451458e-41
1.3450719e-41
1.3450335e-41
1.3450144e-41
1.3450056e-41
1.345002e-41
1.345001e-41
1.3450015e-41
1.345004e-41
1.3450108e-41
1.3451266e-41
1.3450527e-41
1.3450144e-41
1.3449952e-41
1.3449864e-41
1.3449829e-41
1.3449819e-41
1.3449825e-41
1.3449851e-41
1.344992e-41
1.3451178e-41
1.3450439e-41
1.3450056e-41
1.3449864e-41
1.3449777e-41
1.3449741e-41
1.3449732e-41
1.3449738e-41
1.3449764e-41
1.3449834e-41
1.3451142e-41
1.3450403e-41
1.345002e-41
1.3449829e-41
1.3449741e-41
1.3449706e-41
1.3449696e-41
1.3449703e-41
1.3449729e-41
1.3449799e-41
1.3451131e-41
1.3450393e-41
1.345001e-41
1.3449819e-41
1.3449732e-41
1.3449696e-41
1.3449687e-41
1.3449694e-41
1.344972e-41
1.344979e-41
1.3451134e-41
1.3450397e-41
1.3450015e-41
1.3449825e-41
1.3449738e-41
1.3449703e-41
1.3449694e-41
1.3449701e-41
1.3449727e-41
1.3449797e-41
1.3451152e-41
1.3450419e-41
1.345004e-41
1.3449851e-41
1.3449764e-41
1.3449729e-41
1.344972e-41
1.3449727e-41
1.3449753e-41
1.3449823e-41
1.3451206e-41
1.3450483e-41
1.3450108e-41
1.344992e-41
1.3449834e-41
1.3449799e-41
1.344979e-41
1.3449797e-41
1.3449823e-41
1.3449893e-41
3.9164427e-41
3.9162341e-41
3.9161252e-41
3.9160708e-41
3.9160458e-41
3.9160355e-41
3.9160323e-41
3.9160332e-41
3.9160383e-41
3.9160531e-41
3.9162341e-41
3.9160256e-41
3.9159168e-41
3.9158624e-41
3.9158373e-41
3.9158271e-41
3.9158241e-41
3.9158253e-41
3.9158315e-41
3.9158494e-41
3.9161252e-41
3.9159168e-41
3.915808e-41
3.9157536e-41
3.9157286e-41
3.9157184e-41
3.9157155e-41
3.9157171e-41
3.9157239e-41
3.9157428e-41
3.9160708e-41
3.9158624e-41
3.9157536e-41
3.9156992e-41
3.9156742e-41
3.9156641e-41
3.9156613e-41
3.9156631e-41
3.9156702e-41
3.9156895e-41
3.9160458e-41
3.9158373e-41
3.9157286e-41
3.9156742e-41
3.9156492e-41
3.9156391e-41
3.9156364e-41
3.9156383e-41
3.9156456e-41
3.915665e-41
3.9160355e-41
3.9158271e-41
3.9157184e-41
3.9156641e-41
3.9156391e-41
3.915629e-41
3.9156264e-41
3.9156283e-41
3.9156356e-41
3.9156551e-41
3.9160323e-41
3.9158241e-41
3.9157155e-41
3.9156613e-41
3.9156364e-41
3.9156264e-41
3.9156237e-41
3.9156257e-41
3.915633e-41
3.9156525e-41
3.9160332e-41
3.9158253e-41
3.9157171e-41
3.9156631e-41
3.9156383e-41
3.9156283e-41
3.9156257e-41
3.9156276e-41
3.915635e-41
3.9156545e-41
3.9160383e-41
3.9158315e-41
3.9157239e-41
3.9156702e-41
3.9156456e-41
3.9156356e-41
3.915633e-41
3.915635e-41
3.9156424e-41
3.9156618e-41
3.9160531e-41
3.9158494e-41
3.9157428e-41
3.9156895e-41
3.915665e-41
3.9156551e-41
3.9156525e-41
3.9156545e-41
3.9156618e-41
3.9156813e-41
1.159124e-40
1.1590642e-40
1.1590329e-40
1.1590172e-40
1.1590099e-40
1.1590069e-40
1.159006e-40
1.1590063e-40
1.1590077e-40
1.1590119e-40
1.1590642e-40
1.1590044e-40
1.1589731e-40
1.1589574e-40
1.1589501e-40
1.1589472e-40
1.1589463e-40
1.1589466e-40
1.1589484e-40
1.1589535e-40
1.1590329e-40
1.1589731e-40
1.1589417e-40
1.158926e-40
1.1589188e-40
1.1589158e-40
1.158915e-40
1.1589155e-40
1.1589174e-40
1.1589228e-40
1.1590172e-40
1.1589574e-40
1.158926e-40
1.1589103e-40
1.1589031e-40
1.1589002e-40
1.1588994e-40
1.1588999e-40
1.1589019e-40
1.1589074e-40
1.1590099e-40
1.1589501e-40
1.1589188e-40
1.1589031e-40
1.1588959e-40
1.158893e-40
1.1588922e-40
1.1588927e-40
1.1588948e-40
1.1589003e-40
1.1590069e-40
1.1589472e-40
1.1589158e-40
1.1589002e-40
1.158893e-40
1.15889e-40
1.1588893e-40
1.1588898e-40
1.1588919e-40
1.1588975e-40
1.159006e-40
1.1589463e-40
1.158915e-40
1.1588994e-40
1.1588922e-40
1.1588893e-40
1.1588885e-40
1.1588891e-40
1.1588912e-40
1.1588967e-40
1.1590063e-40
1.1589466e-40
1.1589155e-40
1.1588999e-40
1.1588927e-40
1.1588898e-40
1.1588891e-40
1.1588896e-40
1.1588918e-40
1.1588973e-40
1.1590077e-40
1.1589484e-40
1.1589174e-40
1.1589019e-40
1.1588948e-40
1.1588919e-40
1.1588912e-40
1.1588918e-40
1.1588939e-40
1.1588994e-40
1.1590119e-40
1.1589535e-40
1.1589228e-40
1.1589074e-40
1.1589003e-40
1.1588975e-40
1.1588967e-40
1.1588973e-40
1.1588994e-40
1.1589049e-40
3.4894646e-40
3.4892901e-40
3.4891983e-40
3.4891522e-40
3.4891309e-40
3.4891222e-40
3.4891195e-40
3.4891202e-40
3.4891245e-40
3.4891363e-40
3.4892901e-40
3.4891157e-40
3.4890239e-40
3.4889778e-40
3.4889566e-40
3.4889479e-40
3.4889453e-40
3.4889464e-40
3.4889515e-40
3.488966e-40
3.4891983e-40
3.4890239e-40
3.4889321e-40
3.488886e-40
3.4888648e-40
3.4888561e-40
3.4888537e-40
3.4888551e-40
3.4888608e-40
3.4888761e-40
3.4891522e-40
3.4889778e-40
3.488886e-40
3.48884e-40
3.4888188e-40
3.4888102e-40
3.4888078e-40
3.4888093e-40
3.4888153e-40
3.488831e-40
3.4891309e-40
3.4889566e-40
3.4888648e-40
3.4888188e-40
3.4887975e-40
3.488789e-40
3.4887867e-40
3.4887883e-40
3.4887944e-40
3.4888102e-40
3.4891222e-40
3.4889479e-40
3.4888561e-40
3.4888102e-40
3.488789e-40
3.4887804e-40
3.4887782e-40
3.4887798e-40
3.4887859e-40
3.4888018e-40
3.4891195e-40
3.4889453e-40
3.4888537e-40
3.4888078e-40
3.4887867e-40
3.4887782e-40
3.4887759e-40
3.4887776e-40
3.4887837e-40
3.4887996e-40
3.4891202e-40
3.4889464e-40
3.4888551e-40
3.4888093e-40
3.4887883e-40
3.4887798e-40
3.4887776e-40
3.4887792e-40
3.4887854e-40
3.4888013e-40
3.4891245e-40
3.4889515e-40
3.4888608e-40
3.4888153e-40
3.4887944e-40
3.4887859e-40
3.4887837e-40
3.4887854e-40
3.4887916e-40
3.4888075e-40
3.4891363e-40
3.488966e-40
3.4888761e-40
3.488831e-40
3.4888102e-40
3.4888018e-40
3.4887996e-40
3.4888013e-40
3.4888075e-40
3.4888234e-40
1.0686419e-39
1.0685902e-39
1.0685628e-39
1.0685491e-39
1.0685427e-39
1.0685401e-39
1.0685393e-39
1.0685396e-39
1.0685408e-39
1.0685442e-39
1.0685902e-39
1.0685385e-39
1.0685111e-39
1.0684974e-39
1.068491e-39
1.0684884e-39
1.0684877e-39
1.068488e-39
1.0684895e-39
1.0684937e-39
1.0685628e-39
1.0685111e-39
1.0684838e-39
1.0684701e-39
1.0684637e-39
1.0684611e-39
1.0684604e-39
1.0684608e-39
1.0684625e-39
1.068467e-39
1.0685491e-39
1.0684974e-39
1.0684701e-39
1.0684563e-39
1.06845e-39
1.0684474e-39
1.0684467e-39
1.0684472e-39
1.0684489e-39
1.0684535e-39
1.0685427e-39
1.068491e-39
1.0684637e-39
1.06845e-39
1.0684436e-39
1.0684411e-39
1.0684404e-39
1.0684409e-39
1.0684427e-39
1.0684473e-39
1.0685401e-39
1.0684884e-39
1.0684611e-39
1.0684474e-39
1.0684411e-39
1.0684385e-39
1.0684378e-39
1.0684383e-39
1.0684402e-39
1.0684448e-39
1.0685393e-39
1.0684877e-39
1.0684604e-39
1.0684467e-39
1.0684404e-39
1.0684378e-39
1.0684372e-39
1.0684377e-39
1.0684395e-39
1.0684442e-39
1.0685396e-39
1.068488e-39
1.0684608e-39
1.0684472e-39
1.0684409e-39
1.0684383e-39
1.0684377e-39
1.0684382e-39
1.06844e-39
1.0684447e-39
1.0685408e-39
1.0684895e-39
1.0684625e-39
1.0684489e-39
1.0684427e-39
1.0684402e-39
1.0684395e-39
1.06844e-39
1.0684418e-39
1.0684465e-39
1.0685442e-39
1.0684937e-39
1.068467e-39
1.0684535e-39
1.0684473e-39
1.0684448e-39
1.0684442e-39
1.0684447e-39
1.0684465e-39
1.0684512e-39
3.329501e-39
3.3293449e-39
3.3292621e-39
3.3292204e-39
3.3292011e-39
3.3291932e-39
3.3291908e-39
3.3291914e-39
3.3291951e-39
3.3292052e-39
3.3293449e-39
3.329189e-39
3.3291062e-39
3.3290645e-39
3.3290452e-39
3.3290373e-39
3.329035e-39
3.3290359e-39
3.3290405e-39
3.3290531e-39
3.3292621e-39
3.3291062e-39
3.3290234e-39
3.3289817e-39
3.3289624e-39
3.3289546e-39
3.3289524e-39
3.3289536e-39
3.3289587e-39
3.3289721e-39
3.3292204e-39
3.3290645e-39
3.3289817e-39
3.32894e-39
3.3289208e-39
3.328913e-39
3.3289108e-39
3.3289122e-39
3.3289176e-39
3.3289313e-39
3.3292011e-39
3.3290452e-39
3.3289624e-39
3.3289208e-39
3.3289015e-39
3.3288937e-39
3.3288917e-39
3.3288931e-39
3.3288986e-39
3.3289124e-39
3.3291932e-39
3.3290373e-39
3.3289546e-39
3.328913e-39
3.3288937e-39
3.328886e-39
3.3288839e-39
3.3288854e-39
3.328891e-39
3.3289048e-39
3.3291908e-39
3.329035e-39
3.3289524e-39
3.3289108e-39
3.3288917e-39
3.3288839e-39
3.3288819e-39
3.3288834e-39
3.328889e-39
3.3289029e-39
3.3291914e-39
3.3290359e-39
3.3289536e-39
3.3289122e-39
3.3288931e-39
3.3288854e-39
3.3288834e-39
3.328885e-39
3.3288905e-39
3.3289044e-39
3.3291951e-39
3.3290405e-39
3.3289587e-39
3.3289176e-39
3.3288986e-39
3.328891e-39
3.328889e-39
3.3288905e-39
3.3288961e-39
3.3289099e-39
3.3292052e-39
3.3290531e-39
3.3289721e-39
3.3289313e-39
3.3289124e-39
3.3289048e-39
3.3289029e-39
3.3289044e-39
3.3289099e-39
3.3289238e-39
1.0554122e-38
1.0553643e-38
1.0553388e-38
1.055326e-38
1.05532e-38
1.0553176e-38
1.0553168e-38
1.055317e-38
1.0553182e-38
1.0553212e-38
1.0553643e-38
1.0553165e-38
1.055291e-38
1.0552781e-38
1.0552722e-38
1.0552697e-38
1.055269e-38
1.0552693e-38
1.0552707e-38
1.0552745e-38
1.0553388e-38
1.055291e-38
1.0552655e-38
1.0552527e-38
1.0552467e-38
1.0552443e-38
1.0552436e-38
1.055244e-38
1.0552456e-38
1.0552496e-38
1.055326e-38
1.0552781e-38
1.0552527e-38
1.0552398e-38
1.0552339e-38
1.0552314e-38
1.0552308e-38
1.0552312e-38
1.0552329e-38
1.055237e-38
1.05532e-38
1.0552722e-38
1.0552467e-38
1.0552339e-38
1.0552279e-38
1.0552255e-38
1.0552249e-38
1.0552253e-38
1.055227e-38
1.0552312e-38
1.0553176e-38
1.0552697e-38
1.0552443e-38
1.0552314e-38
1.0552255e-38
1.0552231e-38
1.0552225e-38
1.0552229e-38
1.0552246e-38
1.0552289e-38
1.0553168e-38
1.055269e-38
1.0552436e-38
1.0552308e-38
1.0552249e-38
1.0552225e-38
1.0552219e-38
1.0552223e-38
1.055224e-38
1.0552282e-38
1.055317e-38
1.0552693e-38
1.055244e-38
1.0552312e-38
1.0552253e-38
1.0552229e-38
1.0552223e-38
1.0552228e-38
1.0552245e-38
1.0552287e-38
1.0553182e-38
1.0552707e-38
1.0552456e-38
1.0552329e-38
1.055227e-38
1.0552246e-38
1.055224e-38
1.0552245e-38
1.0552262e-38
1.0552304e-38
1.0553212e-38
1.0552745e-38
1.0552496e-38
1.055237e-38
1.0552312e-38
1.0552289e-38
1.0552282e-38
1.0552287e-38
1.0552304e-38
1.0552346e-38
3.4039171e-38
3.4037678e-38
3.403688e-38
3.4036476e-38
3.4036289e-38
3.4036212e-38
3.4036188e-38
3.4036195e-38
3.403623e-38
3.4036322e-38
3.4037678e-38
3.4036186e-38
3.4035388e-38
3.4034984e-38
3.4034797e-38
3.4034721e-38
3.4034698e-38
3.4034708e-38
3.4034751e-38
3.4034869e-38
3.403688e-38
3.4035388e-38
3.403459e-38
3.4034186e-38
3.4034e-38
3.4033923e-38
3.4033902e-38
3.4033914e-38
3.4033963e-38
3.4034089e-38
3.4036476e-38
3.4034984e-38
3.4034186e-38
3.4033783e-38
3.4033596e-38
3.4033521e-38
3.40335e-38
3.4033514e-38
3.4033565e-38
3.4033694e-38
3.4036289e-38
3.4034797e-38
3.4034e-38
3.4033596e-38
3.403341e-38
3.4033334e-38
3.4033314e-38
3.4033329e-38
3.4033381e-38
3.4033511e-38
3.4036212e-38
3.4034721e-38
3.4033923e-38
3.4033521e-38
3.4033334e-38
3.4033259e-38
3.4033239e-38
3.4033254e-38
3.4033307e-38
3.4033437e-38
3.4036188e-38
3.4034698e-38
3.4033902e-38
3.40335e-38
3.4033314e-38
3.4033239e-38
3.403322e-38
3.4033235e-38
3.4033288e-38
3.4033418e-38
3.4036195e-38
3.4034708e-38
3.4033914e-38
3.4033514e-38
3.4033329e-38
3.4033254e-38
3.4033235e-38
3.403325e-38
3.4033303e-38
3.4033433e-38
3.403623e-38
3.4034751e-38
3.4033963e-38
3.4033565e-38
3.4033381e-38
3.4033307e-38
3.4033288e-38
3.4033303e-38
3.4033357e-38
3.4033487e-38
3.4036322e-38
3.4034869e-38
3.4034089e-38
3.4033694e-38
3.4033511e-38
3.4033437e-38
3.4033418e-38
3.4033433e-38
3.4033487e-38
3.4033617e-38
1.1170252e-37
1.1169779e-37
1.1169524e-37
1.1169396e-37
1.1169336e-37
1.1169311e-37
1.1169304e-37
1.1169306e-37
1.1169317e-37
1.1169346e-37
1.1169779e-37
1.1169305e-37
1.1169051e-37
1.1168922e-37
1.1168863e-37
1.1168838e-37
1.1168831e-37
1.1168834e-37
1.1168848e-37
1.1168885e-37
1.1169524e-37
1.1169051e-37
1.1168797e-37
1.1168668e-37
1.1168609e-37
1.1168584e-37
1.1168578e-37
1.1168582e-37
1.1168597e-37
1.1168637e-37
1.1169396e-37
1.1168922e-37
1.1168668e-37
1.116854e-37
1.116848e-37
1.1168456e-37
1.1168449e-37
1.1168454e-37
1.116847e-37
1.1168511e-37
1.1169336e-37
1.1168863e-37
1.1168609e-37
1.116848e-37
1.116842e-37
1.1168396e-37
1.116839e-37
1.1168395e-37
1.1168411e-37
1.1168452e-37
1.1169311e-37
1.1168838e-37
1.1168584e-37
1.1168456e-37
1.1168396e-37
1.1168372e-37
1.1168366e-37
1.1168371e-37
1.1168388e-37
1.1168429e-37
1.1169304e-37
1.1168831e-37
1.1168578e-37
1.1168449e-37
1.116839e-37
1.1168366e-37
1.116836e-37
1.1168365e-37
1.1168382e-37
1.1168423e-37
1.1169306e-37
1.1168834e-37
1.1168582e-37
1.1168454e-37
1.1168395e-37
1.1168371e-37
1.1168365e-37
1.116837e-37
1.1168387e-37
1.1168427e-37
1.1169317e-37
1.1168848e-37
1.1168597e-37
1.116847e-37
1.1168411e-37
1.1168388e-37
1.1168382e-37
1.1168387e-37
1.1168404e-37
1.1168445e-37
1.1169346e-37
1.1168885e-37
1.1168637e-37
1.1168511e-37
1.1168452e-37
1.1168429e-37
1.1168423e-37
1.1168427e-37
1.1168445e-37
1.1168485e-37
3.7297739e-37
3.7296212e-37
3.7295389e-37
3.7294971e-37
3.7294777e-37
3.7294697e-37
3.7294673e-37
3.7294679e-37
3.7294715e-37
3.7294806e-37
3.7296212e-37
3.7294685e-37
3.7293862e-37
3.7293444e-37
3.729325e-37
3.7293171e-37
3.7293148e-37
3.7293158e-37
3.7293203e-37
3.729332e-37
3.7295389e-37
3.7293862e-37
3.7293039e-37
3.7292622e-37
3.7292428e-37
3.7292349e-37
3.7292327e-37
3.729234e-37
3.729239e-37
3.7292516e-37
3.7294971e-37
3.7293444e-37
3.7292622e-37
3.7292204e-37
3.7292011e-37
3.7291932e-37
3.7291911e-37
3.7291925e-37
3.7291979e-37
3.7292108e-37
3.7294777e-37
3.729325e-37
3.7292428e-37
3.7292011e-37
3.7291817e-37
3.7291739e-37
3.7291719e-37
3.7291734e-37
3.7291788e-37
3.7291918e-37
3.7294697e-37
3.7293171e-37
3.7292349e-37
3.7291932e-37
3.7291739e-37
3.7291661e-37
3.7291641e-37
3.7291656e-37
3.7291711e-37
3.7291842e-37
3.7294673e-37
3.7293148e-37
3.7292327e-37
3.7291911e-37
3.7291719e-37
3.7291641e-37
3.7291621e-37
3.7291636e-37
3.7291692e-37
3.7291822e-37
3.7294679e-37
3.7293158e-37
3.729234e-37
3.7291925e-37
3.7291734e-37
3.7291656e-37
3.7291636e-37
3.7291652e-37
3.7291708e-37
3.7291838e-37
3.7294715e-37
3.7293203e-37
3.729239e-37
3.7291979e-37
3.7291788e-37
3.7291711e-37
3.7291692e-37
3.7291708e-37
3.7291763e-37
3.7291894e-37
3.7294806e-37
3.729332e-37
3.7292516e-37
3.7292108e-37
3.7291918e-37
3.7291842e-37
3.7291822e-37
3.7291838e-37
3.7291894e-37
3.7292025e-37
1.2671875e-36
1.2671374e-36
1.2671103e-36
1.2670965e-36
1.2670901e-36
1.2670874e-36
1.2670866e-36
1.2670869e-36
1.267088e-36
1.267091e-36
1.2671374e-36
1.2670873e-36
1.2670602e-36
1.2670464e-36
1.26704e-36
1.2670374e-36
1.2670366e-36
1.2670369e-36
1.2670384e-36
1.2670422e-36
1.2671103e-36
1.2670602e-36
1.2670331e-36
1.2670193e-36
1.2670129e-36
1.2670103e-36
1.2670096e-36
1.26701e-36
1.2670117e-36
1.2670158e-36
1.2670965e-36
1.2670464e-36
1.2670193e-36
1.2670055e-36
1.2669992e-36
1.2669966e-36
1.2669959e-36
1.2669963e-36
1.2669981e-36
1.2670023e-36
1.2670901e-36
1.26704e-36
1.2670129e-36
1.2669992e-36
1.2669928e-36
1.2669902e-36
1.2669895e-36
1.26699e-36
1.2669918e-36
1.2669961e-36
1.2670874e-36
1.2670374e-36
1.2670103e-36
1.2669966e-36
1.2669902e-36
1.2669876e-36
1.2669869e-36
1.2669875e-36
1.2669893e-36
1.2669935e-36
1.2670866e-36
1.2670366e-36
1.2670096e-36
1.2669959e-36
1.2669895e-36
1.2669869e-36
1.2669863e-36
1.2669868e-36
1.2669886e-36
1.2669929e-36
1.2670869e-36
1.2670369e-36
1.26701e-36
1.2669963e-36
1.26699e-36
1.2669875e-36
1.2669868e-36
1.2669873e-36
1.2669892e-36
1.2669934e-36
1.267088e-36
1.2670384e-36
1.2670117e-36
1.2669981e-36
1.2669918e-36
1.2669893e-36
1.2669886e-36
1.2669892e-36
1.266991e-36
1.2669952e-36
1.267091e-36
1.2670422e-36
1.2670158e-36
1.2670023e-36
1.2669961e-36
1.2669935e-36
1.2669929e-36
1.2669934e-36
1.2669952e-36
1.2669995e-36
4.3806247e-36
4.3804575e-36
4.3803668e-36
4.3803205e-36
4.380299e-36
4.3802902e-36
4.3802875e-36
4.3802882e-36
4.3802921e-36
4.3803017e-36
4.3804575e-36
4.3802904e-36
4.3801997e-36
4.3801534e-36
4.3801319e-36
4.3801231e-36
4.3801206e-36
4.3801217e-36
4.3801266e-36
4.3801392e-36
4.3803668e-36
4.3801997e-36
4.3801089e-36
4.3800627e-36
4.3800412e-36
4.3800325e-36
4.3800301e-36
4.3800315e-36
4.3800371e-36
4.3800507e-36
4.3803205e-36
4.3801534e-36
4.3800627e-36
4.3800165e-36
4.3799951e-36
4.3799864e-36
4.3799841e-36
4.3799857e-36
4.3799916e-36
4.3800055e-36
4.380299e-36
4.3801319e-36
4.3800412e-36
4.3799951e-36
4.3799736e-36
4.379965e-36
4.3799627e-36
4.3799644e-36
4.3799704e-36
4.3799845e-36
4.3802902e-36
4.3801231e-36
4.3800325e-36
4.3799864e-36
4.379965e-36
4.3799563e-36
4.3799541e-36
4.3799559e-36
4.3799619e-36
4.379976e-36
4.3802875e-36
4.3801206e-36
4.3800301e-36
4.3799841e-36
4.3799627e-36
4.3799541e-36
4.3799519e-36
4.3799537e-36
4.3799598e-36
4.3799739e-36
4.3802882e-36
4.3801217e-36
4.3800315e-36
4.3799857e-36
4.3799644e-36
4.3799559e-36
4.3799537e-36
4.3799555e-36
4.3799616e-36
4.3799757e-36
4.3802921e-36
4.3801266e-36
4.3800371e-36
4.3799916e-36
4.3799704e-36
4.3799619e-36
4.3799598e-36
4.3799616e-36
4.3799677e-36
4.3799818e-36
4.3803017e-36
4.3801392e-36
4.3800507e-36
4.3800055e-36
4.3799845e-36
4.379976e-36
4.3799739e-36
4.3799757e-36
4.3799818e-36
4.379996e-36
1.5408502e-35
1.5407934e-35
1.5407625e-35
1.5407468e-35
1.5407394e-35
1.5407364e-35
1.5407355e-35
1.5407357e-35
1.5407371e-35
1.5407402e-35
1.5407934e-35
1.5407367e-35
1.5407058e-35
1.5406901e-35
1.5406827e-35
1.5406797e-35
1.5406789e-35
1.5406792e-35
1.5406809e-35
1.5406851e-35
1.5407625e-35
1.5407058e-35
1.5406749e-35
1.5406592e-35
1.5406518e-35
1.5406489e-35
1.540648e-35
1.5406485e-35
1.5406504e-35
1.540655e-35
1.5407468e-35
1.5406901e-35
1.5406592e-35
1.5406434e-35
1.5406361e-35
1.5406331e-35
1.5406323e-35
1.5406329e-35
1.5406349e-35
1.5406396e-35
1.5407394e-35
1.5406827e-35
1.5406518e-35
1.5406361e-35
1.5406288e-35
1.5406258e-35
1.5406251e-35
1.5406257e-35
1.5406277e-35
1.5406325e-35
1.5407364e-35
1.5406797e-35
1.5406489e-35
1.5406331e-35
1.5406258e-35
1.5406229e-35
1.5406221e-35
1.5406227e-35
1.5406248e-35
1.5406296e-35
1.5407355e-35
1.5406789e-35
1.540648e-35
1.5406323e-35
1.5406251e-35
1.5406221e-35
1.5406214e-35
1.540622e-35
1.5406241e-35
1.5406288e-35
1.5407357e-35
1.5406792e-35
1.5406485e-35
1.5406329e-35
1.5406257e-35
1.5406227e-35
1.540622e-35
1.5406226e-35
1.5406247e-35
1.5406295e-35
1.5407371e-35
1.5406809e-35
1.5406504e-35
1.5406349e-35
1.5406277e-35
1.5406248e-35
1.5406241e-35
1.5406247e-35
1.5406268e-35
1.5406316e-35
1.5407402e-35
1.5406851e-35
1.540655e-35
1.5406396e-35
1.5406325e-35
1.5406296e-35
1.5406288e-35
1.5406295e-35
1.5406316e-35
1.5406363e-35
5.514428e-35
5.5142323e-35
5.5141253e-35
5.5140706e-35
5.5140451e-35
5.5140346e-35
5.5140314e-35
5.5140323e-35
5.5140369e-35
5.5140477e-35
5.5142323e-35
5.5140366e-35
5.5139296e-35
5.513875e-35
5.5138495e-35
5.513839e-35
5.513836e-35
5.5138374e-35
5.5138432e-35
5.5138577e-35
5.5141253e-35
5.5139296e-35
5.5138227e-35
5.513768e-35
5.5137426e-35
5.5137322e-35
5.5137294e-35
5.5137311e-35
5.5137377e-35
5.5137534e-35
5.5140706e-35
5.513875e-35
5.513768e-35
5.5137134e-35
5.5136879e-35
5.5136776e-35
5.5136749e-35
5.5136769e-35
5.5136839e-35
5.5137e-35
5.5140451e-35
5.5138495e-35
5.5137426e-35
5.5136879e-35
5.5136626e-35
5.5136523e-35
5.5136497e-35
5.5136517e-35
5.5136589e-35
5.5136752e-35
5.5140346e-35
5.513839e-35
5.5137322e-35
5.5136776e-35
5.5136523e-35
5.5136421e-35
5.5136395e-35
5.5136416e-35
5.5136488e-35
5.5136652e-35
5.5140314e-35
5.513836e-35
5.5137294e-35
5.5136749e-35
5.5136497e-35
5.5136395e-35
5.5136369e-35
5.513639e-35
5.5136463e-35
5.5136627e-35
5.5140323e-35
5.5138374e-35
5.5137311e-35
5.5136769e-35
5.5136517e-35
5.5136416e-35
5.513639e-35
5.5136412e-35
5.5136485e-35
5.5136649e-35
5.5140369e-35
5.5138432e-35
5.5137377e-35
5.5136839e-35
5.5136589e-35
5.5136488e-35
5.5136463e-35
5.5136485e-35
5.5136557e-35
5.5136721e-35
5.5140477e-35
5.5138577e-35
5.5137534e-35
5.5137e-35
5.5136752e-35
5.5136652e-35
5.5136627e-35
5.5136649e-35
5.5136721e-35
5.5136885e-35
2.0078746e-34
2.007806e-34
2.0077683e-34
2.007749e-34
2.00774e-34
2.0077363e-34
2.0077352e-34
2.0077355e-34
2.0077371e-34
2.0077408e-34
2.007806e-34
2.0077373e-34
2.0076997e-34
2.0076804e-34
2.0076714e-34
2.0076677e-34
2.0076667e-34
2.0076671e-34
2.0076692e-34
2.0076742e-34
2.0077683e-34
2.0076997e-34
2.007662e-34
2.0076428e-34
2.0076338e-34
2.0076301e-34
2.0076291e-34
2.0076297e-34
2.0076321e-34
2.0076375e-34
2.007749e-34
2.0076804e-34
2.0076428e-34
2.0076235e-34
2.0076145e-34
2.0076109e-34
2.0076099e-34
2.0076106e-34
2.0076131e-34
2.0076187e-34
2.00774e-34
2.0076714e-34
2.0076338e-34
2.0076145e-34
2.0076055e-34
2.0076019e-34
2.007601e-34
2.0076017e-34
2.0076043e-34
2.00761e-34
2.0077363e-34
2.0076677e-34
2.0076301e-34
2.0076109e-34
2.0076019e-34
2.0075983e-34
2.0075974e-34
2.0075982e-34
2.0076007e-34
2.0076064e-34
2.0077352e-34
2.0076667e-34
2.0076291e-34
2.0076099e-34
2.007601e-34
2.0075974e-34
2.0075965e-34
2.0075973e-34
2.0075998e-34
2.0076056e-34
2.0077355e-34
2.0076671e-34
2.0076297e-34
2.0076106e-34
2.0076017e-34
2.0075982e-34
2.0075973e-34
2.0075981e-34
2.0076006e-34
2.0076063e-34
2.0077371e-34
2.0076692e-34
2.0076321e-34
2.0076131e-34
2.0076043e-34
2.0076007e-34
2.0075998e-34
2.0076006e-34
2.0076032e-34
2.0076089e-34
2.0077408e-34
2.0076742e-34
2.0076375e-34
2.0076187e-34
2.00761e-34
2.0076064e-34
2.0076056e-34
2.0076063e-34
2.0076089e-34
2.0076146e-34
7.437769e-34
7.437524e-34
7.4373893e-34
7.4373201e-34
7.4372879e-34
7.4372746e-34
7.4372706e-34
7.4372718e-34
7.4372775e-34
7.4372905e-34
7.437524e-34
7.4372792e-34
7.4371445e-34
7.4370754e-34
7.4370431e-34
7.4370299e-34
7.4370261e-34
7.4370279e-34
7.4370352e-34
7.4370531e-34
7.4373893e-34
7.4371445e-34
7.4370098e-34
7.4369407e-34
7.4369085e-34
7.4368954e-34
7.4368918e-34
7.436894e-34
7.4369024e-34
7.4369219e-34
7.4373201e-34
7.4370754e-34
7.4369407e-34
7.4368716e-34
7.4368394e-34
7.4368264e-34
7.436823e-34
7.4368256e-34
7.4368344e-34
7.4368545e-34
7.4372879e-34
7.4370431e-34
7.4369085e-34
7.4368394e-34
7.4368073e-34
7.4367943e-34
7.436791e-34
7.4367937e-34
7.4368028e-34
7.4368231e-34
7.4372746e-34
7.4370299e-34
7.4368954e-34
7.4368264e-34
7.4367943e-34
7.4367814e-34
7.4367781e-34
7.4367809e-34
7.4367901e-34
7.4368104e-34
7.4372706e-34
7.4370261e-34
7.4368918e-34
7.436823e-34
7.436791e-34
7.4367781e-34
7.4367749e-34
7.4367777e-34
7.4367869e-34
7.4368073e-34
7.4372718e-34
7.4370279e-34
7.436894e-34
7.4368256e-34
7.4367937e-34
7.4367809e-34
7.4367777e-34
7.4367805e-34
7.4367898e-34
7.4368101e-34
7.4372775e-34
7.4370352e-34
7.4369024e-34
7.4368344e-34
7.4368028e-34
7.4367901e-34
7.4367869e-34
7.4367898e-34
7.436799e-34
7.4368194e-34
7.4372905e-34
7.4370531e-34
7.4369219e-34
7.4368545e-34
7.4368231e-34
7.4368104e-34
7.4368073e-34
7.4368101e-34
7.4368194e-34
7.4368397e-34
2.8027598e-33
2.802671e-33
2.802622e-33
2.8025968e-33
2.802585e-33
2.8025802e-33
2.8025787e-33
2.8025792e-33
2.8025813e-33
2.8025859e-33
2.802671e-33
2.8025822e-33
2.8025332e-33
2.802508e-33
2.8024963e-33
2.8024915e-33
2.8024901e-33
2.8024907e-33
2.8024934e-33
2.8024999e-33
2.802622e-33
2.8025332e-33
2.8024842e-33
2.8024591e-33
2.8024473e-33
2.8024425e-33
2.8024412e-33
2.8024421e-33
2.8024451e-33
2.8024522e-33
2.8025968e-33
2.802508e-33
2.8024591e-33
2.8024339e-33
2.8024221e-33
2.8024174e-33
2.8024162e-33
2.8024171e-33
2.8024204e-33
2.8024276e-33
2.802585e-33
2.8024963e-33
2.8024473e-33
2.8024221e-33
2.8024104e-33
2.8024057e-33
2.8024045e-33
2.8024055e-33
2.8024088e-33
2.8024162e-33
2.8025802e-33
2.8024915e-33
2.8024425e-33
2.8024174e-33
2.8024057e-33
2.802401e-33
2.8023998e-33
2.8024008e-33
2.8024042e-33
2.8024115e-33
2.8025787e-33
2.8024901e-33
2.8024412e-33
2.8024162e-33
2.8024045e-33
2.8023998e-33
2.8023986e-33
2.8023997e-33
2.802403e-33
2.8024104e-33
2.8025792e-33
2.8024907e-33
2.8024421e-33
2.8024171e-33
2.8024055e-33
2.8024008e-33
2.8023997e-33
2.8024007e-33
2.8024041e-33
2.8024115e-33
2.8025813e-33
2.8024934e-33
2.8024451e-33
2.8024204e-33
2.8024088e-33
2.8024042e-33
2.802403e-33
2.8024041e-33
2.8024075e-33
2.8024149e-33
2.8025859e-33
2.8024999e-33
2.8024522e-33
2.8024276e-33
2.8024162e-33
2.8024115e-33
2.8024104e-33
2.8024115e-33
2.8024149e-33
2.8024222e-33
1.0743016e-32
1.0742689e-32
1.0742507e-32
1.0742414e-32
1.074237e-32
1.0742352e-32
1.0742347e-32
1.0742349e-32
1.0742356e-32
1.0742373e-32
1.0742689e-32
1.0742361e-32
1.074218e-32
1.0742087e-32
1.0742043e-32
1.0742025e-32
1.074202e-32
1.0742023e-32
1.0742033e-32
1.0742056e-32
1.0742507e-32
1.074218e-32
1.0741999e-32
1.0741906e-32
1.0741862e-32
1.0741844e-32
1.074184e-32
1.0741843e-32
1.0741854e-32
1.074188e-32
1.0742414e-32
1.0742087e-32
1.0741906e-32
1.0741812e-32
1.0741769e-32
1.0741751e-32
1.0741747e-32
1.074175e-32
1.0741763e-32
1.0741789e-32
1.074237e-32
1.0742043e-32
1.0741862e-32
1.0741769e-32
1.0741726e-32
1.0741708e-32
1.0741704e-32
1.0741707e-32
1.074172e-32
1.0741747e-32
1.0742352e-32
1.0742025e-32
1.0741844e-32
1.0741751e-32
1.0741708e-32
1.0741691e-32
1.0741686e-32
1.074169e-32
1.0741703e-32
1.074173e-32
1.0742347e-32
1.074202e-32
1.074184e-32
1.0741747e-32
1.0741704e-32
1.0741686e-32
1.0741682e-32
1.0741686e-32
1.0741698e-32
1.0741726e-32
1.0742349e-32
1.0742023e-32
1.0741843e-32
1.074175e-32
1.0741707e-32
1.074169e-32
1.0741686e-32
1.074169e-32
1.0741702e-32
1.074173e-32
1.0742356e-32
1.0742033e-32
1.0741854e-32
1.0741763e-32
1.074172e-32
1.0741703e-32
1.0741698e-32
1.0741702e-32
1.0741715e-32
1.0741742e-32
1.0742373e-32
1.0742056e-32
1.074188e-32
1.0741789e-32
1.0741747e-32
1.074173e-32
1.0741726e-32
1.074173e-32
1.0741742e-32
1.0741769e-32