/*--------------------------------*- C++ -*----------------------------------*\
| =========                 |                                                 |
| \\      /  F ield         | OpenFOAM: The Open Source CFD Toolbox           |
|  \\    /   O peration     | Version:  dev                                   |
|   \\  /    A nd           | Web:      www.OpenFOAM.org                      |
|    \\/     M anipulation  |                                                 |
\*---------------------------------------------------------------------------*/
FoamFile
{
    version     2.0;
    format      ascii;
    class       volScalarField;
    location    "54.995";
    object      A;
}
// * * * * * * * * * * * * * * * * * * * * * * * * * * * * * * * * * * * * * //

dimensions      [0 0 0 0 1 0 0];

internalField   nonuniform List<scalar> 
10000
(
4.5446302e-31
4.5360127e-31
4.5322219e-31
4.5306631e-31
4.5300964e-31
4.5299284e-31
4.5299359e-31
4.530108e-31
4.5306143e-31
4.53183e-31
4.5360127e-31
4.5274387e-31
4.5236621e-31
4.5221084e-31
4.5215438e-31
4.5213777e-31
4.52139e-31
4.5215771e-31
4.5221298e-31
4.5234888e-31
4.5322219e-31
4.5236621e-31
4.5198926e-31
4.518342e-31
4.5177788e-31
4.5176145e-31
4.5176315e-31
4.5178309e-31
4.5184116e-31
4.5198163e-31
4.5306631e-31
4.5221084e-31
4.518342e-31
4.5167929e-31
4.5162306e-31
4.5160674e-31
4.5160871e-31
4.516293e-31
4.5168859e-31
4.5183052e-31
4.5300964e-31
4.5215438e-31
4.5177788e-31
4.5162306e-31
4.5156688e-31
4.5155062e-31
4.5155271e-31
4.5157358e-31
4.5163331e-31
4.5177568e-31
4.5299284e-31
4.5213777e-31
4.5176145e-31
4.5160674e-31
4.5155062e-31
4.515344e-31
4.5153655e-31
4.515575e-31
4.5161738e-31
4.5175989e-31
4.5299359e-31
4.52139e-31
4.5176315e-31
4.5160871e-31
4.5155271e-31
4.5153655e-31
4.5153872e-31
4.5155971e-31
4.5161964e-31
4.5176219e-31
4.530108e-31
4.5215771e-31
4.5178309e-31
4.516293e-31
4.5157358e-31
4.515575e-31
4.5155971e-31
4.5158073e-31
4.5164069e-31
4.5178328e-31
4.5306143e-31
4.5221298e-31
4.5184116e-31
4.5168859e-31
4.5163331e-31
4.5161738e-31
4.5161964e-31
4.5164069e-31
4.5170071e-31
4.5184342e-31
4.53183e-31
4.5234888e-31
4.5198163e-31
4.5183052e-31
4.5177568e-31
4.5175989e-31
4.5176219e-31
4.5178328e-31
4.5184342e-31
4.5198655e-31
1.6139725e-30
1.6110251e-30
1.6096963e-30
1.6091487e-30
1.6089495e-30
1.6088904e-30
1.608893e-30
1.6089531e-30
1.6091305e-30
1.6095736e-30
1.6110251e-30
1.6080922e-30
1.6067682e-30
1.6062225e-30
1.606024e-30
1.6059656e-30
1.6059698e-30
1.6060353e-30
1.6062291e-30
1.6067233e-30
1.6096963e-30
1.6067682e-30
1.6054468e-30
1.6049021e-30
1.6047042e-30
1.6046464e-30
1.6046522e-30
1.6047221e-30
1.6049258e-30
1.6054361e-30
1.6091487e-30
1.6062225e-30
1.6049021e-30
1.6043579e-30
1.6041603e-30
1.6041029e-30
1.6041097e-30
1.6041819e-30
1.60439e-30
1.6049054e-30
1.6089495e-30
1.606024e-30
1.6047042e-30
1.6041603e-30
1.6039628e-30
1.6039056e-30
1.6039129e-30
1.603986e-30
1.6041957e-30
1.6047127e-30
1.6088904e-30
1.6059656e-30
1.6046464e-30
1.6041029e-30
1.6039056e-30
1.6038486e-30
1.603856e-30
1.6039295e-30
1.6041396e-30
1.6046572e-30
1.608893e-30
1.6059698e-30
1.6046522e-30
1.6041097e-30
1.6039129e-30
1.603856e-30
1.6038636e-30
1.6039372e-30
1.6041475e-30
1.6046652e-30
1.6089531e-30
1.6060353e-30
1.6047221e-30
1.6041819e-30
1.603986e-30
1.6039295e-30
1.6039372e-30
1.6040109e-30
1.6042213e-30
1.6047391e-30
1.6091305e-30
1.6062291e-30
1.6049258e-30
1.60439e-30
1.6041957e-30
1.6041396e-30
1.6041475e-30
1.6042213e-30
1.6044319e-30
1.6049502e-30
1.6095736e-30
1.6067233e-30
1.6054361e-30
1.6049054e-30
1.6047127e-30
1.6046572e-30
1.6046652e-30
1.6047391e-30
1.6049502e-30
1.60547e-30
3.6921236e-30
3.6855961e-30
3.6826214e-30
3.6813929e-30
3.6809454e-30
3.6808125e-30
3.6808179e-30
3.6809518e-30
3.6813468e-30
3.6823631e-30
3.6855961e-30
3.6791004e-30
3.6761365e-30
3.6749118e-30
3.674466e-30
3.6743346e-30
3.6743438e-30
3.6744898e-30
3.6749223e-30
3.6760552e-30
3.6826214e-30
3.6761365e-30
3.6731781e-30
3.6719558e-30
3.6715111e-30
3.6713812e-30
3.6713941e-30
3.6715501e-30
3.6720051e-30
3.6731748e-30
3.6813929e-30
3.6749118e-30
3.6719558e-30
3.6707347e-30
3.6702907e-30
3.6701616e-30
3.6701768e-30
3.670338e-30
3.6708028e-30
3.6719842e-30
3.6809454e-30
3.674466e-30
3.6715111e-30
3.6702907e-30
3.669847e-30
3.6697185e-30
3.6697346e-30
3.669898e-30
3.6703664e-30
3.6715515e-30
3.6808125e-30
3.6743346e-30
3.6713812e-30
3.6701616e-30
3.6697185e-30
3.6695902e-30
3.6696068e-30
3.6697709e-30
3.6702405e-30
3.6714266e-30
3.6808179e-30
3.6743438e-30
3.6713941e-30
3.6701768e-30
3.6697346e-30
3.6696068e-30
3.6696236e-30
3.669788e-30
3.670258e-30
3.6714445e-30
3.6809518e-30
3.6744898e-30
3.6715501e-30
3.670338e-30
3.669898e-30
3.6697709e-30
3.669788e-30
3.6699526e-30
3.6704228e-30
3.6716096e-30
3.6813468e-30
3.6749223e-30
3.6720051e-30
3.6708028e-30
3.6703664e-30
3.6702405e-30
3.670258e-30
3.6704228e-30
3.6708936e-30
3.6720813e-30
3.6823631e-30
3.6760552e-30
3.6731748e-30
3.6719842e-30
3.6715515e-30
3.6714266e-30
3.6714445e-30
3.6716096e-30
3.6720813e-30
3.6732727e-30
7.9380496e-30
7.9244595e-30
7.9182292e-30
7.9156503e-30
7.9147098e-30
7.91443e-30
7.9144404e-30
7.9147186e-30
7.9155374e-30
7.9176553e-30
7.9244595e-30
7.9109346e-30
7.9047266e-30
7.9021556e-30
7.9012184e-30
7.9009418e-30
7.9009605e-30
7.9012646e-30
7.9021635e-30
7.9045311e-30
7.9182292e-30
7.9047266e-30
7.8985299e-30
7.8959639e-30
7.8950292e-30
7.8947556e-30
7.8947822e-30
7.8951076e-30
7.8960547e-30
7.898501e-30
7.9156503e-30
7.9021556e-30
7.8959639e-30
7.8934004e-30
7.892467e-30
7.8921954e-30
7.8922267e-30
7.8925632e-30
7.8935313e-30
7.8960027e-30
7.9147098e-30
7.9012184e-30
7.8950292e-30
7.892467e-30
7.8915345e-30
7.891264e-30
7.8912974e-30
7.8916384e-30
7.8926142e-30
7.8950934e-30
7.91443e-30
7.9009418e-30
7.8947556e-30
7.8921954e-30
7.891264e-30
7.890994e-30
7.8910284e-30
7.891371e-30
7.8923493e-30
7.8948307e-30
7.9144404e-30
7.9009605e-30
7.8947822e-30
7.8922267e-30
7.8912974e-30
7.8910284e-30
7.8910632e-30
7.8914065e-30
7.8923856e-30
7.8948677e-30
7.9147186e-30
7.9012646e-30
7.8951076e-30
7.8925632e-30
7.8916384e-30
7.891371e-30
7.8914065e-30
7.8917502e-30
7.8927298e-30
7.8952126e-30
7.9155374e-30
7.9021635e-30
7.8960547e-30
7.8935313e-30
7.8926142e-30
7.8923493e-30
7.8923856e-30
7.8927298e-30
7.8937104e-30
7.8961952e-30
7.9176553e-30
7.9045311e-30
7.898501e-30
7.8960027e-30
7.8950934e-30
7.8948307e-30
7.8948677e-30
7.8952126e-30
7.8961952e-30
7.8986877e-30
1.7007664e-29
1.6979476e-29
1.6966498e-29
1.6961115e-29
1.6959149e-29
1.6958563e-29
1.6958583e-29
1.6959157e-29
1.6960841e-29
1.6965177e-29
1.6979476e-29
1.6951421e-29
1.6938489e-29
1.6933122e-29
1.6931163e-29
1.6930584e-29
1.6930621e-29
1.6931251e-29
1.6933105e-29
1.6937973e-29
1.6966498e-29
1.6938489e-29
1.6925581e-29
1.6920224e-29
1.691827e-29
1.6917698e-29
1.6917752e-29
1.6918426e-29
1.6920383e-29
1.6925419e-29
1.6961115e-29
1.6933122e-29
1.6920224e-29
1.6914872e-29
1.6912922e-29
1.6912353e-29
1.6912417e-29
1.6913115e-29
1.6915117e-29
1.6920206e-29
1.6959149e-29
1.6931163e-29
1.691827e-29
1.6912922e-29
1.6910972e-29
1.6910406e-29
1.6910475e-29
1.6911183e-29
1.69132e-29
1.6918306e-29
1.6958563e-29
1.6930584e-29
1.6917698e-29
1.6912353e-29
1.6910406e-29
1.6909841e-29
1.6909912e-29
1.6910623e-29
1.6912646e-29
1.6917757e-29
1.6958583e-29
1.6930621e-29
1.6917752e-29
1.6912417e-29
1.6910475e-29
1.6909912e-29
1.6909984e-29
1.6910696e-29
1.6912721e-29
1.6917833e-29
1.6959157e-29
1.6931251e-29
1.6918426e-29
1.6913115e-29
1.6911183e-29
1.6910623e-29
1.6910696e-29
1.691141e-29
1.6913435e-29
1.6918549e-29
1.6960841e-29
1.6933105e-29
1.6920383e-29
1.6915117e-29
1.69132e-29
1.6912646e-29
1.6912721e-29
1.6913435e-29
1.6915463e-29
1.6920581e-29
1.6965177e-29
1.6937973e-29
1.6925419e-29
1.6920206e-29
1.6918306e-29
1.6917757e-29
1.6917833e-29
1.6918549e-29
1.6920581e-29
1.6925714e-29
3.6775304e-29
3.6716321e-29
3.6689067e-29
3.6677738e-29
3.6673596e-29
3.667236e-29
3.6672397e-29
3.6673592e-29
3.6677078e-29
3.6685991e-29
3.6716321e-29
3.6657614e-29
3.6630455e-29
3.661916e-29
3.6615032e-29
3.661381e-29
3.6613885e-29
3.6615198e-29
3.661905e-29
3.6629108e-29
3.6689067e-29
3.6630455e-29
3.6603344e-29
3.6592071e-29
3.6587953e-29
3.6586745e-29
3.6586857e-29
3.6588266e-29
3.6592338e-29
3.6602757e-29
3.6677738e-29
3.661916e-29
3.6592071e-29
3.6580808e-29
3.6576697e-29
3.6575497e-29
3.657563e-29
3.657709e-29
3.6581258e-29
3.6591792e-29
3.6673596e-29
3.6615032e-29
3.6587953e-29
3.6576697e-29
3.6572589e-29
3.6571394e-29
3.6571537e-29
3.6573018e-29
3.6577221e-29
3.658779e-29
3.667236e-29
3.661381e-29
3.6586745e-29
3.6575497e-29
3.6571394e-29
3.6570203e-29
3.6570349e-29
3.6571838e-29
3.6576052e-29
3.6586631e-29
3.6672397e-29
3.6613885e-29
3.6586857e-29
3.657563e-29
3.6571537e-29
3.6570349e-29
3.6570498e-29
3.6571989e-29
3.6576208e-29
3.658679e-29
3.6673592e-29
3.6615198e-29
3.6588266e-29
3.657709e-29
3.6573018e-29
3.6571838e-29
3.6571989e-29
3.6573482e-29
3.6577703e-29
3.6588288e-29
3.6677078e-29
3.661905e-29
3.6592338e-29
3.6581258e-29
3.6577221e-29
3.6576052e-29
3.6576208e-29
3.6577703e-29
3.6581927e-29
3.6592521e-29
3.6685991e-29
3.6629108e-29
3.6602757e-29
3.6591792e-29
3.658779e-29
3.6586631e-29
3.658679e-29
3.6588288e-29
3.6592521e-29
3.6603147e-29
8.0481444e-29
8.035658e-29
8.0298688e-29
8.0274574e-29
8.0265746e-29
8.0263108e-29
8.0263179e-29
8.0265692e-29
8.0272992e-29
8.0291503e-29
8.035658e-29
8.0232295e-29
8.0174601e-29
8.0150558e-29
8.0141759e-29
8.0139152e-29
8.0139305e-29
8.0142075e-29
8.0150171e-29
8.0171174e-29
8.0298688e-29
8.0174601e-29
8.0117009e-29
8.0093011e-29
8.0084235e-29
8.0081657e-29
8.0081889e-29
8.0084869e-29
8.0093442e-29
8.0115228e-29
8.0274574e-29
8.0150558e-29
8.0093011e-29
8.0069036e-29
8.0060273e-29
8.0057714e-29
8.0057992e-29
8.0061082e-29
8.0069863e-29
8.0091898e-29
8.0265746e-29
8.0141759e-29
8.0084235e-29
8.0060273e-29
8.0051518e-29
8.0048969e-29
8.0049268e-29
8.0052403e-29
8.0061261e-29
8.0083373e-29
8.0263108e-29
8.0139152e-29
8.0081657e-29
8.0057714e-29
8.0048969e-29
8.0046427e-29
8.0046735e-29
8.0049886e-29
8.0058768e-29
8.0080903e-29
8.0263179e-29
8.0139305e-29
8.0081889e-29
8.0057992e-29
8.0049268e-29
8.0046735e-29
8.0047048e-29
8.0050205e-29
8.0059095e-29
8.0081237e-29
8.0265692e-29
8.0142075e-29
8.0084869e-29
8.0061082e-29
8.0052403e-29
8.0049886e-29
8.0050205e-29
8.0053365e-29
8.006226e-29
8.0084408e-29
8.0272992e-29
8.0150171e-29
8.0093442e-29
8.0069863e-29
8.0061261e-29
8.0058768e-29
8.0059095e-29
8.006226e-29
8.0071164e-29
8.0093328e-29
8.0291503e-29
8.0171174e-29
8.0115228e-29
8.0091898e-29
8.0083373e-29
8.0080903e-29
8.0081237e-29
8.0084408e-29
8.0093328e-29
8.011556e-29
1.7838654e-28
1.7811894e-28
1.7799445e-28
1.779425e-28
1.7792345e-28
1.7791775e-28
1.7791789e-28
1.7792324e-28
1.7793872e-28
1.7797763e-28
1.7811894e-28
1.7785257e-28
1.777285e-28
1.776767e-28
1.7765772e-28
1.7765208e-28
1.776524e-28
1.7765832e-28
1.7767554e-28
1.7771994e-28
1.7799445e-28
1.777285e-28
1.7760465e-28
1.7755294e-28
1.7753401e-28
1.7752844e-28
1.7752893e-28
1.7753531e-28
1.7755359e-28
1.775997e-28
1.779425e-28
1.776767e-28
1.7755294e-28
1.7750128e-28
1.7748238e-28
1.7747685e-28
1.7747744e-28
1.7748406e-28
1.7750279e-28
1.7754946e-28
1.7792345e-28
1.7765772e-28
1.7753401e-28
1.7748238e-28
1.7746349e-28
1.7745799e-28
1.7745862e-28
1.7746534e-28
1.7748424e-28
1.7753108e-28
1.7791775e-28
1.7765208e-28
1.7752844e-28
1.7747685e-28
1.7745799e-28
1.7745249e-28
1.7745315e-28
1.7745991e-28
1.7747886e-28
1.7752575e-28
1.7791789e-28
1.776524e-28
1.7752893e-28
1.7747744e-28
1.7745862e-28
1.7745315e-28
1.7745382e-28
1.7746058e-28
1.7747956e-28
1.7752646e-28
1.7792324e-28
1.7765832e-28
1.7753531e-28
1.7748406e-28
1.7746534e-28
1.7745991e-28
1.7746058e-28
1.7746736e-28
1.7748634e-28
1.7753326e-28
1.7793872e-28
1.7767554e-28
1.7755359e-28
1.7750279e-28
1.7748424e-28
1.7747886e-28
1.7747956e-28
1.7748634e-28
1.7750534e-28
1.7755229e-28
1.7797763e-28
1.7771994e-28
1.775997e-28
1.7754946e-28
1.7753108e-28
1.7752575e-28
1.7752646e-28
1.7753326e-28
1.7755229e-28
1.7759938e-28
4.0053797e-28
3.9995726e-28
3.9968623e-28
3.9957289e-28
3.9953129e-28
3.9951882e-28
3.9951908e-28
3.9953064e-28
3.9956386e-28
3.9964667e-28
3.9995726e-28
3.993792e-28
3.9910906e-28
3.9899605e-28
3.9895458e-28
3.9894226e-28
3.9894292e-28
3.9895573e-28
3.9899285e-28
3.990879e-28
3.9968623e-28
3.9910906e-28
3.988394e-28
3.9872659e-28
3.9868523e-28
3.9867305e-28
3.986741e-28
3.9868793e-28
3.9872739e-28
3.9882628e-28
3.9957289e-28
3.9899605e-28
3.9872659e-28
3.9861388e-28
3.9857259e-28
3.985605e-28
3.9856177e-28
3.9857614e-28
3.9861662e-28
3.9871673e-28
3.9953129e-28
3.9895458e-28
3.9868523e-28
3.9857259e-28
3.9853133e-28
3.9851929e-28
3.9852067e-28
3.9853526e-28
3.985761e-28
3.9867659e-28
3.9951882e-28
3.9894226e-28
3.9867305e-28
3.985605e-28
3.9851929e-28
3.9850729e-28
3.985087e-28
3.9852337e-28
3.9856434e-28
3.9866494e-28
3.9951908e-28
3.9894292e-28
3.986741e-28
3.9856177e-28
3.9852067e-28
3.985087e-28
3.9851014e-28
3.9852484e-28
3.9856585e-28
3.9866648e-28
3.9953064e-28
3.9895573e-28
3.9868793e-28
3.9857614e-28
3.9853526e-28
3.9852337e-28
3.9852484e-28
3.9853956e-28
3.9858059e-28
3.9868124e-28
3.9956386e-28
3.9899285e-28
3.9872739e-28
3.9861662e-28
3.985761e-28
3.9856434e-28
3.9856585e-28
3.9858059e-28
3.9862165e-28
3.9872238e-28
3.9964667e-28
3.990879e-28
3.9882628e-28
3.9871673e-28
3.9867659e-28
3.9866494e-28
3.9866648e-28
3.9868124e-28
3.9872238e-28
3.9882341e-28
9.1113272e-28
9.0985662e-28
9.0925909e-28
9.0900874e-28
9.0891673e-28
9.0888912e-28
9.0888962e-28
9.0891486e-28
9.0898711e-28
9.091656e-28
9.0985662e-28
9.0858626e-28
9.0799068e-28
9.0774102e-28
9.0764932e-28
9.0762204e-28
9.0762343e-28
9.0765151e-28
9.0773256e-28
9.0793868e-28
9.0925909e-28
9.0799068e-28
9.0739612e-28
9.0714692e-28
9.0705545e-28
9.0702849e-28
9.0703075e-28
9.0706113e-28
9.0714744e-28
9.0736223e-28
9.0900874e-28
9.0774102e-28
9.0714692e-28
9.0689795e-28
9.0680661e-28
9.0677986e-28
9.0678263e-28
9.0681422e-28
9.0690281e-28
9.0712036e-28
9.0891673e-28
9.0764932e-28
9.0705545e-28
9.0680661e-28
9.0671537e-28
9.0668872e-28
9.0669172e-28
9.0672381e-28
9.0681324e-28
9.0703164e-28
9.0888912e-28
9.0762204e-28
9.0702849e-28
9.0677986e-28
9.0668872e-28
9.0666214e-28
9.0666524e-28
9.0669751e-28
9.0678721e-28
9.0700585e-28
9.0888962e-28
9.0762343e-28
9.0703075e-28
9.0678263e-28
9.0669172e-28
9.0666524e-28
9.0666839e-28
9.0670072e-28
9.0679051e-28
9.0700923e-28
9.0891486e-28
9.0765151e-28
9.0706113e-28
9.0681422e-28
9.0672381e-28
9.0669751e-28
9.0670072e-28
9.067331e-28
9.0682294e-28
9.0704172e-28
9.0898711e-28
9.0773256e-28
9.0714744e-28
9.0690281e-28
9.0681324e-28
9.0678721e-28
9.0679051e-28
9.0682294e-28
9.0691286e-28
9.071318e-28
9.091656e-28
9.0793868e-28
9.0736223e-28
9.0712036e-28
9.0703164e-28
9.0700585e-28
9.0700923e-28
9.0704172e-28
9.071318e-28
9.0735137e-28
2.0999281e-27
2.0970883e-27
2.0957543e-27
2.0951943e-27
2.0949882e-27
2.0949263e-27
2.0949273e-27
2.0949832e-27
2.0951423e-27
2.095532e-27
2.0970883e-27
2.094261e-27
2.0929313e-27
2.0923729e-27
2.0921675e-27
2.0921063e-27
2.0921093e-27
2.0921717e-27
2.0923509e-27
2.0928038e-27
2.0957543e-27
2.0929313e-27
2.0916039e-27
2.0910464e-27
2.0908415e-27
2.0907811e-27
2.0907861e-27
2.0908537e-27
2.0910449e-27
2.0915176e-27
2.0951943e-27
2.0923729e-27
2.0910464e-27
2.0904895e-27
2.0902849e-27
2.090225e-27
2.0902311e-27
2.0903014e-27
2.0904979e-27
2.0909769e-27
2.0949882e-27
2.0921675e-27
2.0908415e-27
2.0902849e-27
2.0900806e-27
2.0900208e-27
2.0900275e-27
2.090099e-27
2.0902974e-27
2.0907783e-27
2.0949263e-27
2.0921063e-27
2.0907811e-27
2.090225e-27
2.0900208e-27
2.0899613e-27
2.0899681e-27
2.0900401e-27
2.090239e-27
2.0907205e-27
2.0949273e-27
2.0921093e-27
2.0907861e-27
2.0902311e-27
2.0900275e-27
2.0899681e-27
2.0899751e-27
2.0900472e-27
2.0902464e-27
2.090728e-27
2.0949832e-27
2.0921717e-27
2.0908537e-27
2.0903014e-27
2.090099e-27
2.0900401e-27
2.0900472e-27
2.0901193e-27
2.0903186e-27
2.0908004e-27
2.0951423e-27
2.0923509e-27
2.0910449e-27
2.0904979e-27
2.0902974e-27
2.090239e-27
2.0902464e-27
2.0903186e-27
2.0905181e-27
2.0910002e-27
2.095532e-27
2.0928038e-27
2.0915176e-27
2.0909769e-27
2.0907783e-27
2.0907205e-27
2.090728e-27
2.0908004e-27
2.0910002e-27
2.0914837e-27
4.9038256e-27
4.8974251e-27
4.8944091e-27
4.8931406e-27
4.8926734e-27
4.8925328e-27
4.8925346e-27
4.8926599e-27
4.893015e-27
4.8938768e-27
4.8974251e-27
4.8910529e-27
4.8880464e-27
4.8867814e-27
4.8863156e-27
4.8861767e-27
4.8861833e-27
4.8863235e-27
4.8867251e-27
4.8877331e-27
4.8944091e-27
4.8880464e-27
4.885045e-27
4.8837822e-27
4.8833176e-27
4.8831804e-27
4.8831915e-27
4.8833439e-27
4.8837733e-27
4.8848271e-27
4.8931406e-27
4.8867814e-27
4.8837822e-27
4.8825206e-27
4.8820567e-27
4.8819206e-27
4.8819343e-27
4.8820931e-27
4.8825345e-27
4.8836029e-27
4.8926734e-27
4.8863156e-27
4.8833176e-27
4.8820567e-27
4.8815932e-27
4.8814577e-27
4.8814726e-27
4.8816341e-27
4.8820799e-27
4.8831527e-27
4.8925328e-27
4.8861767e-27
4.8831804e-27
4.8819206e-27
4.8814577e-27
4.8813225e-27
4.8813379e-27
4.8815003e-27
4.8819475e-27
4.8830217e-27
4.8925346e-27
4.8861833e-27
4.8831915e-27
4.8819343e-27
4.8814726e-27
4.8813379e-27
4.8813537e-27
4.8815164e-27
4.8819641e-27
4.8830387e-27
4.8926599e-27
4.8863235e-27
4.8833439e-27
4.8820931e-27
4.8816341e-27
4.8815003e-27
4.8815164e-27
4.8816793e-27
4.8821273e-27
4.8832021e-27
4.893015e-27
4.8867251e-27
4.8837733e-27
4.8825345e-27
4.8820799e-27
4.8819475e-27
4.8819641e-27
4.8821273e-27
4.8825756e-27
4.8836512e-27
4.8938768e-27
4.8877331e-27
4.8848271e-27
4.8836029e-27
4.8831527e-27
4.8830217e-27
4.8830387e-27
4.8832021e-27
4.8836512e-27
4.8847299e-27
1.1603581e-26
1.1588972e-26
1.1582066e-26
1.1579157e-26
1.1578083e-26
1.157776e-26
1.1577764e-26
1.1578048e-26
1.1578851e-26
1.1580781e-26
1.1588972e-26
1.1574426e-26
1.1567542e-26
1.156464e-26
1.156357e-26
1.1563251e-26
1.1563265e-26
1.1563585e-26
1.1564497e-26
1.156677e-26
1.1582066e-26
1.1567542e-26
1.1560669e-26
1.1557773e-26
1.1556705e-26
1.155639e-26
1.1556415e-26
1.1556763e-26
1.155774e-26
1.1560121e-26
1.1579157e-26
1.156464e-26
1.1557773e-26
1.1554878e-26
1.1553813e-26
1.15535e-26
1.1553531e-26
1.1553894e-26
1.1554899e-26
1.1557314e-26
1.1578083e-26
1.156357e-26
1.1556705e-26
1.1553813e-26
1.1552749e-26
1.1552437e-26
1.1552471e-26
1.155284e-26
1.1553856e-26
1.1556281e-26
1.157776e-26
1.1563251e-26
1.155639e-26
1.15535e-26
1.1552437e-26
1.1552126e-26
1.1552162e-26
1.1552533e-26
1.1553552e-26
1.155598e-26
1.1577764e-26
1.1563265e-26
1.1556415e-26
1.1553531e-26
1.1552471e-26
1.1552162e-26
1.1552198e-26
1.155257e-26
1.1553589e-26
1.1556019e-26
1.1578048e-26
1.1563585e-26
1.1556763e-26
1.1553894e-26
1.155284e-26
1.1552533e-26
1.155257e-26
1.1552943e-26
1.1553963e-26
1.1556393e-26
1.1578851e-26
1.1564497e-26
1.155774e-26
1.1554899e-26
1.1553856e-26
1.1553552e-26
1.1553589e-26
1.1553963e-26
1.1554984e-26
1.1557415e-26
1.1580781e-26
1.156677e-26
1.1560121e-26
1.1557314e-26
1.1556281e-26
1.155598e-26
1.1556019e-26
1.1556393e-26
1.1557415e-26
1.1559854e-26
2.7822102e-26
2.7788328e-26
2.7772315e-26
2.7765556e-26
2.776306e-26
2.7762308e-26
2.7762314e-26
2.776297e-26
2.7764808e-26
2.7769188e-26
2.7788328e-26
2.77547e-26
2.7738737e-26
2.7731995e-26
2.7729507e-26
2.7728764e-26
2.7728797e-26
2.7729535e-26
2.7731632e-26
2.7736827e-26
2.7772315e-26
2.7738737e-26
2.77228e-26
2.771607e-26
2.7713588e-26
2.7712854e-26
2.7712912e-26
2.7713718e-26
2.7715968e-26
2.7721418e-26
2.7765556e-26
2.7731995e-26
2.771607e-26
2.7709346e-26
2.7706868e-26
2.770614e-26
2.7706213e-26
2.7707054e-26
2.7709371e-26
2.7714902e-26
2.776306e-26
2.7729507e-26
2.7713588e-26
2.7706868e-26
2.7704393e-26
2.7703668e-26
2.7703747e-26
2.7704603e-26
2.7706945e-26
2.77125e-26
2.7762308e-26
2.7728764e-26
2.7712854e-26
2.770614e-26
2.7703668e-26
2.7702945e-26
2.7703027e-26
2.7703887e-26
2.7706238e-26
2.7711801e-26
2.7762314e-26
2.7728797e-26
2.7712912e-26
2.7706213e-26
2.7703747e-26
2.7703027e-26
2.770311e-26
2.7703973e-26
2.7706325e-26
2.7711891e-26
2.776297e-26
2.7729535e-26
2.7713718e-26
2.7707054e-26
2.7704603e-26
2.7703887e-26
2.7703973e-26
2.7704837e-26
2.7707191e-26
2.7712757e-26
2.7764808e-26
2.7731632e-26
2.7715968e-26
2.7709371e-26
2.7706945e-26
2.7706238e-26
2.7706325e-26
2.7707191e-26
2.7709547e-26
2.7715117e-26
2.7769188e-26
2.7736827e-26
2.7721418e-26
2.7714902e-26
2.77125e-26
2.7711801e-26
2.7711891e-26
2.7712757e-26
2.7715117e-26
2.7720703e-26
6.7598744e-26
6.7519668e-26
6.7482064e-26
6.7466164e-26
6.7460285e-26
6.7458511e-26
6.7458522e-26
6.7460051e-26
6.7464317e-26
6.7474387e-26
6.7519668e-26
6.7440931e-26
6.7403441e-26
6.7387581e-26
6.7381721e-26
6.7379969e-26
6.7380043e-26
6.7381771e-26
6.7386657e-26
6.7398687e-26
6.7482064e-26
6.7403441e-26
6.7366012e-26
6.735018e-26
6.7344334e-26
6.7342604e-26
6.7342739e-26
6.7344629e-26
6.7349885e-26
6.7362526e-26
6.7466164e-26
6.7387581e-26
6.735018e-26
6.7334361e-26
6.7328525e-26
6.7326809e-26
6.7326979e-26
6.7328953e-26
6.733437e-26
6.7347207e-26
6.7460285e-26
6.7381721e-26
6.7344334e-26
6.7328525e-26
6.7322695e-26
6.7320986e-26
6.7321172e-26
6.7323181e-26
6.7328657e-26
6.7341553e-26
6.7458511e-26
6.7379969e-26
6.7342604e-26
6.7326809e-26
6.7320986e-26
6.7319282e-26
6.7319475e-26
6.7321496e-26
6.7326991e-26
6.7339905e-26
6.7458522e-26
6.7380043e-26
6.7342739e-26
6.7326979e-26
6.7321172e-26
6.7319475e-26
6.7319671e-26
6.7321697e-26
6.7327198e-26
6.7340117e-26
6.7460051e-26
6.7381771e-26
6.7344629e-26
6.7328953e-26
6.7323181e-26
6.7321496e-26
6.7321697e-26
6.7323726e-26
6.732923e-26
6.7342153e-26
6.7464317e-26
6.7386657e-26
6.7349885e-26
6.733437e-26
6.7328657e-26
6.7326991e-26
6.7327198e-26
6.732923e-26
6.7334739e-26
6.734767e-26
6.7474387e-26
6.7398687e-26
6.7362526e-26
6.7347207e-26
6.7341553e-26
6.7339905e-26
6.7340117e-26
6.7342153e-26
6.734767e-26
6.7360636e-26
1.6643451e-25
1.66247e-25
1.6615756e-25
1.6611968e-25
1.6610566e-25
1.6610143e-25
1.6610144e-25
1.6610506e-25
1.6611509e-25
1.6613854e-25
1.66247e-25
1.6606028e-25
1.6597112e-25
1.6593333e-25
1.6591935e-25
1.6591517e-25
1.6591534e-25
1.6591944e-25
1.6593098e-25
1.659592e-25
1.6615756e-25
1.6597112e-25
1.6588209e-25
1.6584437e-25
1.6583043e-25
1.658263e-25
1.6582662e-25
1.6583111e-25
1.6584355e-25
1.6587326e-25
1.6611968e-25
1.6593333e-25
1.6584437e-25
1.6580668e-25
1.6579276e-25
1.6578867e-25
1.6578907e-25
1.6579377e-25
1.658066e-25
1.6583679e-25
1.6610566e-25
1.6591935e-25
1.6583043e-25
1.6579276e-25
1.6577886e-25
1.6577478e-25
1.6577522e-25
1.6578e-25
1.6579298e-25
1.6582331e-25
1.6610143e-25
1.6591517e-25
1.658263e-25
1.6578867e-25
1.6577478e-25
1.6577071e-25
1.6577117e-25
1.6577598e-25
1.65789e-25
1.6581938e-25
1.6610144e-25
1.6591534e-25
1.6582662e-25
1.6578907e-25
1.6577522e-25
1.6577117e-25
1.6577164e-25
1.6577646e-25
1.657895e-25
1.6581989e-25
1.6610506e-25
1.6591944e-25
1.6583111e-25
1.6579377e-25
1.6578e-25
1.6577598e-25
1.6577646e-25
1.6578129e-25
1.6579433e-25
1.6582473e-25
1.6611509e-25
1.6593098e-25
1.6584355e-25
1.658066e-25
1.6579298e-25
1.65789e-25
1.657895e-25
1.6579433e-25
1.6580739e-25
1.6583781e-25
1.6613854e-25
1.659592e-25
1.6587326e-25
1.6583679e-25
1.6582331e-25
1.6581938e-25
1.6581989e-25
1.6582473e-25
1.6583781e-25
1.658683e-25
4.1524505e-25
4.1479473e-25
4.1457933e-25
4.1448793e-25
4.1445407e-25
4.1444383e-25
4.1444386e-25
4.1445251e-25
4.1447639e-25
4.1453173e-25
4.1479473e-25
4.1434629e-25
4.1413153e-25
4.1404036e-25
4.140066e-25
4.1399649e-25
4.139969e-25
4.1400674e-25
4.1403435e-25
4.1410146e-25
4.1457933e-25
4.1413153e-25
4.1391711e-25
4.138261e-25
4.1379242e-25
4.1378244e-25
4.1378321e-25
4.1379402e-25
4.1382385e-25
4.1389463e-25
4.1448793e-25
4.1404036e-25
4.138261e-25
4.1373516e-25
4.1370154e-25
4.1369164e-25
4.1369262e-25
4.1370394e-25
4.1373473e-25
4.1380668e-25
4.1445407e-25
4.140066e-25
4.1379242e-25
4.1370154e-25
4.1366795e-25
4.136581e-25
4.1365917e-25
4.136707e-25
4.1370184e-25
4.1377415e-25
4.1444383e-25
4.1399649e-25
4.1378244e-25
4.1369164e-25
4.136581e-25
4.1364828e-25
4.1364939e-25
4.1366099e-25
4.1369224e-25
4.1376466e-25
4.1444386e-25
4.139969e-25
4.1378321e-25
4.1369262e-25
4.1365917e-25
4.1364939e-25
4.1365052e-25
4.1366215e-25
4.1369344e-25
4.1376589e-25
4.1445251e-25
4.1400674e-25
4.1379402e-25
4.1370394e-25
4.136707e-25
4.1366099e-25
4.1366215e-25
4.136738e-25
4.1370511e-25
4.1377757e-25
4.1447639e-25
4.1403435e-25
4.1382385e-25
4.1373473e-25
4.1370184e-25
4.1369224e-25
4.1369344e-25
4.1370511e-25
4.1373644e-25
4.1380896e-25
4.1453173e-25
4.1410146e-25
4.1389463e-25
4.1380668e-25
4.1377415e-25
4.1376466e-25
4.1376589e-25
4.1377757e-25
4.1380896e-25
4.1388166e-25
1.049825e-24
1.0487297e-24
1.0482044e-24
1.0479811e-24
1.0478983e-24
1.0478732e-24
1.0478732e-24
1.0478942e-24
1.0479518e-24
1.0480841e-24
1.0487297e-24
1.047639e-24
1.0471152e-24
1.0468924e-24
1.0468099e-24
1.0467851e-24
1.0467861e-24
1.0468101e-24
1.046877e-24
1.0470387e-24
1.0482044e-24
1.0471152e-24
1.0465922e-24
1.0463698e-24
1.0462874e-24
1.046263e-24
1.0462649e-24
1.0462913e-24
1.0463637e-24
1.0465346e-24
1.0479811e-24
1.0468924e-24
1.0463698e-24
1.0461476e-24
1.0460654e-24
1.0460412e-24
1.0460436e-24
1.0460712e-24
1.0461461e-24
1.0463199e-24
1.0478983e-24
1.0468099e-24
1.0462874e-24
1.0460654e-24
1.0459832e-24
1.0459591e-24
1.0459618e-24
1.0459899e-24
1.0460657e-24
1.0462404e-24
1.0478732e-24
1.0467851e-24
1.046263e-24
1.0460412e-24
1.0459591e-24
1.0459351e-24
1.0459378e-24
1.0459662e-24
1.0460422e-24
1.0462171e-24
1.0478732e-24
1.0467861e-24
1.0462649e-24
1.0460436e-24
1.0459618e-24
1.0459378e-24
1.0459406e-24
1.045969e-24
1.0460452e-24
1.0462202e-24
1.0478942e-24
1.0468101e-24
1.0462913e-24
1.0460712e-24
1.0459899e-24
1.0459662e-24
1.045969e-24
1.0459975e-24
1.0460737e-24
1.0462487e-24
1.0479518e-24
1.046877e-24
1.0463637e-24
1.0461461e-24
1.0460657e-24
1.0460422e-24
1.0460452e-24
1.0460737e-24
1.0461499e-24
1.0463251e-24
1.0480841e-24
1.0470387e-24
1.0465346e-24
1.0463199e-24
1.0462404e-24
1.0462171e-24
1.0462202e-24
1.0462487e-24
1.0463251e-24
1.0465007e-24
2.6894915e-24
2.6867938e-24
2.6854962e-24
2.6849438e-24
2.6847387e-24
2.6846765e-24
2.6846765e-24
2.6847281e-24
2.684869e-24
2.6851894e-24
2.6867938e-24
2.6841073e-24
2.6828134e-24
2.6822623e-24
2.6820578e-24
2.6819965e-24
2.6819988e-24
2.6820579e-24
2.6822224e-24
2.6826171e-24
2.6854962e-24
2.6828134e-24
2.6815216e-24
2.6809714e-24
2.6807674e-24
2.6807069e-24
2.6807115e-24
2.6807767e-24
2.6809551e-24
2.6813731e-24
2.6849438e-24
2.6822623e-24
2.6809714e-24
2.6804217e-24
2.680218e-24
2.680158e-24
2.680164e-24
2.6802324e-24
2.6804168e-24
2.6808422e-24
2.6847387e-24
2.6820578e-24
2.6807674e-24
2.680218e-24
2.6800146e-24
2.6799548e-24
2.6799614e-24
2.6800311e-24
2.6802178e-24
2.6806454e-24
2.6846765e-24
2.6819965e-24
2.6807069e-24
2.680158e-24
2.6799548e-24
2.6798953e-24
2.6799021e-24
2.6799723e-24
2.6801597e-24
2.680588e-24
2.6846765e-24
2.6819988e-24
2.6807115e-24
2.680164e-24
2.6799614e-24
2.6799021e-24
2.6799091e-24
2.6799794e-24
2.6801671e-24
2.6805955e-24
2.6847281e-24
2.6820579e-24
2.6807767e-24
2.6802324e-24
2.6800311e-24
2.6799723e-24
2.6799794e-24
2.6800499e-24
2.6802376e-24
2.6806662e-24
2.684869e-24
2.6822224e-24
2.6809551e-24
2.6804168e-24
2.6802178e-24
2.6801597e-24
2.6801671e-24
2.6802376e-24
2.6804255e-24
2.6808544e-24
2.6851894e-24
2.6826171e-24
2.6813731e-24
2.6808422e-24
2.6806454e-24
2.680588e-24
2.6805955e-24
2.6806662e-24
2.6808544e-24
2.6812843e-24
6.9814853e-24
6.974757e-24
6.9715118e-24
6.970128e-24
6.9696137e-24
6.9694577e-24
6.9694575e-24
6.969586e-24
6.9699351e-24
6.970721e-24
6.974757e-24
6.9680562e-24
6.9648202e-24
6.9634396e-24
6.9629268e-24
6.9627729e-24
6.9627788e-24
6.9629265e-24
6.9633358e-24
6.9643123e-24
6.9715118e-24
6.9648202e-24
6.9615892e-24
6.9602109e-24
6.9596994e-24
6.9595476e-24
6.9595592e-24
6.9597226e-24
6.9601676e-24
6.9612035e-24
6.970128e-24
6.9634396e-24
6.9602109e-24
6.9588338e-24
6.9583231e-24
6.9581726e-24
6.9581877e-24
6.9583592e-24
6.9588197e-24
6.9598746e-24
6.9696137e-24
6.9629268e-24
6.9596994e-24
6.9583231e-24
6.957813e-24
6.9576632e-24
6.9576798e-24
6.9578546e-24
6.9583208e-24
6.9593815e-24
6.9694577e-24
6.9627729e-24
6.9595476e-24
6.9581726e-24
6.9576632e-24
6.9575139e-24
6.9575311e-24
6.9577071e-24
6.9581752e-24
6.9592375e-24
6.9694575e-24
6.9627788e-24
6.9595592e-24
6.9581877e-24
6.9576798e-24
6.9575311e-24
6.9575487e-24
6.9577252e-24
6.9581938e-24
6.9592567e-24
6.969586e-24
6.9629265e-24
6.9597226e-24
6.9583592e-24
6.9578546e-24
6.9577071e-24
6.9577252e-24
6.9579019e-24
6.9583708e-24
6.959434e-24
6.9699351e-24
6.9633358e-24
6.9601676e-24
6.9588197e-24
6.9583208e-24
6.9581752e-24
6.9581938e-24
6.9583708e-24
6.9588401e-24
6.9599039e-24
6.970721e-24
6.9643123e-24
6.9612035e-24
6.9598746e-24
6.9593815e-24
6.9592375e-24
6.9592567e-24
6.959434e-24
6.9599039e-24
6.9609703e-24
1.8362307e-23
1.8345315e-23
1.8337098e-23
1.8333588e-23
1.8332282e-23
1.8331886e-23
1.8331885e-23
1.8332209e-23
1.8333085e-23
1.8335038e-23
1.8345315e-23
1.8328392e-23
1.8320197e-23
1.8316696e-23
1.8315394e-23
1.8315003e-23
1.8315018e-23
1.8315392e-23
1.8316424e-23
1.8318871e-23
1.8337098e-23
1.8320197e-23
1.8312015e-23
1.830852e-23
1.8307221e-23
1.8306835e-23
1.8306865e-23
1.830728e-23
1.8308404e-23
1.8311006e-23
1.8333588e-23
1.8316696e-23
1.830852e-23
1.8305027e-23
1.830373e-23
1.8303348e-23
1.8303387e-23
1.8303822e-23
1.8304987e-23
1.8307638e-23
1.8332282e-23
1.8315394e-23
1.8307221e-23
1.830373e-23
1.8302435e-23
1.8302055e-23
1.8302097e-23
1.8302542e-23
1.8303721e-23
1.8306387e-23
1.8331886e-23
1.8315003e-23
1.8306835e-23
1.8303348e-23
1.8302055e-23
1.8301676e-23
1.830172e-23
1.8302167e-23
1.8303352e-23
1.8306022e-23
1.8331885e-23
1.8315018e-23
1.8306865e-23
1.8303387e-23
1.8302097e-23
1.830172e-23
1.8301765e-23
1.8302214e-23
1.83034e-23
1.8306071e-23
1.8332209e-23
1.8315392e-23
1.830728e-23
1.8303822e-23
1.8302542e-23
1.8302167e-23
1.8302214e-23
1.8302663e-23
1.8303849e-23
1.8306522e-23
1.8333085e-23
1.8316424e-23
1.8308404e-23
1.8304987e-23
1.8303721e-23
1.8303352e-23
1.83034e-23
1.8303849e-23
1.8305037e-23
1.8307711e-23
1.8335038e-23
1.8318871e-23
1.8311006e-23
1.8307638e-23
1.8306387e-23
1.8306022e-23
1.8306071e-23
1.8306522e-23
1.8307711e-23