/*--------------------------------*- C++ -*----------------------------------*\
| =========                 |                                                 |
| \\      /  F ield         | OpenFOAM: The Open Source CFD Toolbox           |
|  \\    /   O peration     | Version:  dev                                   |
|   \\  /    A nd           | Web:      www.OpenFOAM.org                      |
|    \\/     M anipulation  |                                                 |
\*---------------------------------------------------------------------------*/
FoamFile
{
    version     2.0;
    format      ascii;
    class       volScalarField;
    location    "54.995";
    object      A_0;
}
// * * * * * * * * * * * * * * * * * * * * * * * * * * * * * * * * * * * * * //

dimensions      [0 0 0 0 1 0 0];

internalField   nonuniform List<scalar> 
10000
(
4.3655318e-31
4.3572447e-31
4.3536023e-31
4.3521064e-31
4.3515633e-31
4.3514025e-31
4.3514098e-31
4.3515749e-31
4.3520611e-31
4.3532291e-31
4.3572447e-31
4.3489993e-31
4.3453706e-31
4.3438796e-31
4.3433385e-31
4.3431796e-31
4.3431915e-31
4.343371e-31
4.3439017e-31
4.3452077e-31
4.3536023e-31
4.3453706e-31
4.3417488e-31
4.3402607e-31
4.339721e-31
4.3395638e-31
4.3395802e-31
4.3397716e-31
4.3403291e-31
4.3416789e-31
4.3521064e-31
4.3438796e-31
4.3402607e-31
4.3387741e-31
4.3382352e-31
4.3380791e-31
4.3380981e-31
4.3382957e-31
4.3388649e-31
4.3402287e-31
4.3515633e-31
4.3433385e-31
4.339721e-31
4.3382352e-31
4.3376969e-31
4.3375413e-31
4.3375615e-31
4.3377616e-31
4.3383352e-31
4.3397033e-31
4.3514025e-31
4.3431796e-31
4.3395638e-31
4.3380791e-31
4.3375413e-31
4.3373861e-31
4.3374068e-31
4.3376078e-31
4.3381828e-31
4.3395521e-31
4.3514098e-31
4.3431915e-31
4.3395802e-31
4.3380981e-31
4.3375615e-31
4.3374068e-31
4.3374277e-31
4.3376291e-31
4.3382045e-31
4.3395743e-31
4.3515749e-31
4.343371e-31
4.3397716e-31
4.3382957e-31
4.3377616e-31
4.3376078e-31
4.3376291e-31
4.3378308e-31
4.3384065e-31
4.3397766e-31
4.3520611e-31
4.3439017e-31
4.3403291e-31
4.3388649e-31
4.3383352e-31
4.3381828e-31
4.3382045e-31
4.3384065e-31
4.3389828e-31
4.3403541e-31
4.3532291e-31
4.3452077e-31
4.3416789e-31
4.3402287e-31
4.3397033e-31
4.3395521e-31
4.3395743e-31
4.3397766e-31
4.3403541e-31
4.3417294e-31
1.5506528e-30
1.5478178e-30
1.5465408e-30
1.5460153e-30
1.5458243e-30
1.5457678e-30
1.5457702e-30
1.545828e-30
1.5459983e-30
1.5464241e-30
1.5478178e-30
1.5449968e-30
1.5437245e-30
1.5432007e-30
1.5430104e-30
1.5429545e-30
1.5429586e-30
1.5430215e-30
1.5432076e-30
1.5436825e-30
1.5465408e-30
1.5437245e-30
1.5424546e-30
1.5419318e-30
1.541742e-30
1.5416867e-30
1.5416924e-30
1.5417595e-30
1.5419551e-30
1.5424456e-30
1.5460153e-30
1.5432007e-30
1.5419318e-30
1.5414095e-30
1.54122e-30
1.5411651e-30
1.5411717e-30
1.541241e-30
1.5414408e-30
1.5419362e-30
1.5458243e-30
1.5430104e-30
1.541742e-30
1.54122e-30
1.5410307e-30
1.540976e-30
1.540983e-30
1.5410532e-30
1.5412545e-30
1.5417514e-30
1.5457678e-30
1.5429545e-30
1.5416867e-30
1.5411651e-30
1.540976e-30
1.5409214e-30
1.5409286e-30
1.5409991e-30
1.5412009e-30
1.5416983e-30
1.5457702e-30
1.5429586e-30
1.5416924e-30
1.5411717e-30
1.540983e-30
1.5409286e-30
1.5409359e-30
1.5410065e-30
1.5412085e-30
1.541706e-30
1.545828e-30
1.5430215e-30
1.5417595e-30
1.541241e-30
1.5410532e-30
1.5409991e-30
1.5410065e-30
1.5410772e-30
1.5412793e-30
1.5417769e-30
1.5459983e-30
1.5432076e-30
1.5419551e-30
1.5414408e-30
1.5412545e-30
1.5412009e-30
1.5412085e-30
1.5412793e-30
1.5414816e-30
1.5419796e-30
1.5464241e-30
1.5436825e-30
1.5424456e-30
1.5419362e-30
1.5417514e-30
1.5416983e-30
1.541706e-30
1.5417769e-30
1.5419796e-30
1.5424792e-30
3.5484122e-30
3.5421318e-30
3.5392722e-30
3.5380926e-30
3.5376636e-30
3.5375364e-30
3.5375416e-30
3.5376702e-30
3.5380496e-30
3.5390266e-30
3.5421318e-30
3.5358819e-30
3.5330327e-30
3.5318569e-30
3.5314294e-30
3.5313036e-30
3.5313126e-30
3.5314527e-30
3.5318682e-30
3.5329573e-30
3.5392722e-30
3.5330327e-30
3.5301888e-30
3.5290152e-30
3.5285889e-30
3.5284645e-30
3.528477e-30
3.5286267e-30
3.5290639e-30
3.5301884e-30
3.5380926e-30
3.5318569e-30
3.5290152e-30
3.5278428e-30
3.5274171e-30
3.5272935e-30
3.5273082e-30
3.5274629e-30
3.5279095e-30
3.5290453e-30
3.5376636e-30
3.5314294e-30
3.5285889e-30
3.5274171e-30
3.5269918e-30
3.5268687e-30
3.5268843e-30
3.5270411e-30
3.5274911e-30
3.5286303e-30
3.5375364e-30
3.5313036e-30
3.5284645e-30
3.5272935e-30
3.5268687e-30
3.5267459e-30
3.5267619e-30
3.5269194e-30
3.5273705e-30
3.5285108e-30
3.5375416e-30
3.5313126e-30
3.528477e-30
3.5273082e-30
3.5268843e-30
3.5267619e-30
3.5267781e-30
3.5269359e-30
3.5273874e-30
3.528528e-30
3.5376702e-30
3.5314527e-30
3.5286267e-30
3.5274629e-30
3.5270411e-30
3.5269194e-30
3.5269359e-30
3.5270939e-30
3.5275456e-30
3.5286865e-30
3.5380496e-30
3.5318682e-30
3.5290639e-30
3.5279095e-30
3.5274911e-30
3.5273705e-30
3.5273874e-30
3.5275456e-30
3.5279978e-30
3.5291396e-30
3.5390266e-30
3.5329573e-30
3.5301884e-30
3.5290453e-30
3.5286303e-30
3.5285108e-30
3.528528e-30
3.5286865e-30
3.5291396e-30
3.5302851e-30
7.6320867e-30
7.6190057e-30
7.6130141e-30
7.6105371e-30
7.609635e-30
7.6093671e-30
7.6093772e-30
7.6096443e-30
7.6104312e-30
7.6124678e-30
7.6190057e-30
7.6059876e-30
7.6000174e-30
7.597548e-30
7.5966491e-30
7.5963842e-30
7.5964023e-30
7.5966944e-30
7.5975583e-30
7.5998353e-30
7.6130141e-30
7.6000174e-30
7.5940583e-30
7.5915936e-30
7.590697e-30
7.5904351e-30
7.5904608e-30
7.5907733e-30
7.5916835e-30
7.5940362e-30
7.6105371e-30
7.597548e-30
7.5915936e-30
7.5891313e-30
7.5882361e-30
7.587976e-30
7.5880062e-30
7.5883293e-30
7.5892597e-30
7.5916365e-30
7.609635e-30
7.5966491e-30
7.590697e-30
7.5882361e-30
7.5873417e-30
7.5870825e-30
7.5871148e-30
7.5874423e-30
7.5883801e-30
7.5907643e-30
7.6093671e-30
7.5963842e-30
7.5904351e-30
7.587976e-30
7.5870825e-30
7.586824e-30
7.5868572e-30
7.5871862e-30
7.5881264e-30
7.5905128e-30
7.6093772e-30
7.5964023e-30
7.5904608e-30
7.5880062e-30
7.5871148e-30
7.5868572e-30
7.5868908e-30
7.5872205e-30
7.5881614e-30
7.5905485e-30
7.6096443e-30
7.5966944e-30
7.5907733e-30
7.5883293e-30
7.5874423e-30
7.5871862e-30
7.5872205e-30
7.5875505e-30
7.5884919e-30
7.5908797e-30
7.6104312e-30
7.5975583e-30
7.5916835e-30
7.5892597e-30
7.5883801e-30
7.5881264e-30
7.5881614e-30
7.5884919e-30
7.5894343e-30
7.5918239e-30
7.6124678e-30
7.5998353e-30
7.5940362e-30
7.5916365e-30
7.5907643e-30
7.5905128e-30
7.5905485e-30
7.5908797e-30
7.5918239e-30
7.5942211e-30
1.6359138e-29
1.6331994e-29
1.6319508e-29
1.6314336e-29
1.6312449e-29
1.6311888e-29
1.6311907e-29
1.6312459e-29
1.6314077e-29
1.6318249e-29
1.6331994e-29
1.6304979e-29
1.6292537e-29
1.628738e-29
1.62855e-29
1.6284946e-29
1.6284982e-29
1.6285586e-29
1.6287369e-29
1.6292053e-29
1.6319508e-29
1.6292537e-29
1.6280118e-29
1.6274971e-29
1.6273096e-29
1.6272548e-29
1.62726e-29
1.6273248e-29
1.6275129e-29
1.6279975e-29
1.6314336e-29
1.628738e-29
1.6274971e-29
1.6269829e-29
1.6267957e-29
1.6267412e-29
1.6267474e-29
1.6268145e-29
1.6270069e-29
1.6274965e-29
1.6312449e-29
1.62855e-29
1.6273096e-29
1.6267957e-29
1.6266086e-29
1.6265544e-29
1.626561e-29
1.626629e-29
1.626823e-29
1.6273142e-29
1.6311888e-29
1.6284946e-29
1.6272548e-29
1.6267412e-29
1.6265544e-29
1.6265003e-29
1.6265071e-29
1.6265754e-29
1.6267699e-29
1.6272616e-29
1.6311907e-29
1.6284982e-29
1.62726e-29
1.6267474e-29
1.626561e-29
1.6265071e-29
1.626514e-29
1.6265825e-29
1.6267771e-29
1.627269e-29
1.6312459e-29
1.6285586e-29
1.6273248e-29
1.6268145e-29
1.626629e-29
1.6265754e-29
1.6265825e-29
1.626651e-29
1.6268457e-29
1.6273377e-29
1.6314077e-29
1.6287369e-29
1.6275129e-29
1.6270069e-29
1.626823e-29
1.6267699e-29
1.6267771e-29
1.6268457e-29
1.6270407e-29
1.6275331e-29
1.6318249e-29
1.6292053e-29
1.6279975e-29
1.6274965e-29
1.6273142e-29
1.6272616e-29
1.627269e-29
1.6273377e-29
1.6275331e-29
1.628027e-29
3.5388735e-29
3.5331911e-29
3.5305679e-29
3.5294788e-29
3.5290812e-29
3.5289627e-29
3.5289664e-29
3.5290812e-29
3.5294165e-29
3.5302743e-29
3.5331911e-29
3.5275354e-29
3.5249214e-29
3.5238355e-29
3.5234392e-29
3.5233221e-29
3.5233294e-29
3.5234556e-29
3.5238262e-29
3.5247943e-29
3.5305679e-29
3.5249214e-29
3.522312e-29
3.5212282e-29
3.5208329e-29
3.5207172e-29
3.5207279e-29
3.5208634e-29
3.5212551e-29
3.522258e-29
3.5294788e-29
3.5238355e-29
3.5212282e-29
3.5201454e-29
3.5197508e-29
3.5196358e-29
3.5196487e-29
3.519789e-29
3.5201899e-29
3.5212038e-29
3.5290812e-29
3.5234392e-29
3.5208329e-29
3.5197508e-29
3.5193565e-29
3.519242e-29
3.5192557e-29
3.5193981e-29
3.5198023e-29
3.5208196e-29
3.5289627e-29
3.5233221e-29
3.5207172e-29
3.5196358e-29
3.519242e-29
3.5191277e-29
3.5191419e-29
3.5192849e-29
3.5196903e-29
3.5207086e-29
3.5289664e-29
3.5233294e-29
3.5207279e-29
3.5196487e-29
3.5192557e-29
3.5191419e-29
3.5191563e-29
3.5192996e-29
3.5197053e-29
3.5207239e-29
3.5290812e-29
3.5234556e-29
3.5208634e-29
3.519789e-29
3.5193981e-29
3.5192849e-29
3.5192996e-29
3.5194431e-29
3.519849e-29
3.5208679e-29
3.5294165e-29
3.5238262e-29
3.5212551e-29
3.5201899e-29
3.5198023e-29
3.5196903e-29
3.5197053e-29
3.519849e-29
3.5202553e-29
3.521275e-29
3.5302743e-29
3.5247943e-29
3.522258e-29
3.5212038e-29
3.5208196e-29
3.5207086e-29
3.5207239e-29
3.5208679e-29
3.521275e-29
3.5222978e-29
7.7482123e-29
7.7361777e-29
7.730603e-29
7.7282839e-29
7.727436e-29
7.727183e-29
7.7271901e-29
7.7274317e-29
7.728134e-29
7.7299164e-29
7.7361777e-29
7.724199e-29
7.7186434e-29
7.716331e-29
7.715486e-29
7.715236e-29
7.7152509e-29
7.7155172e-29
7.7162963e-29
7.7183188e-29
7.730603e-29
7.7186434e-29
7.7130976e-29
7.7107896e-29
7.7099467e-29
7.7096996e-29
7.709722e-29
7.7100085e-29
7.7108335e-29
7.7129315e-29
7.7282839e-29
7.716331e-29
7.7107896e-29
7.7084837e-29
7.7076421e-29
7.7073968e-29
7.7074237e-29
7.7077207e-29
7.7085657e-29
7.7106877e-29
7.727436e-29
7.715486e-29
7.7099467e-29
7.7076421e-29
7.7068013e-29
7.7065569e-29
7.7065858e-29
7.7068872e-29
7.7077395e-29
7.709869e-29
7.727183e-29
7.715236e-29
7.7096996e-29
7.7073968e-29
7.7065569e-29
7.7063131e-29
7.7063429e-29
7.7066458e-29
7.7075005e-29
7.7096321e-29
7.7271901e-29
7.7152509e-29
7.709722e-29
7.7074237e-29
7.7065858e-29
7.7063429e-29
7.7063731e-29
7.7066766e-29
7.7075321e-29
7.7096643e-29
7.7274317e-29
7.7155172e-29
7.7100085e-29
7.7077207e-29
7.7068872e-29
7.7066458e-29
7.7066766e-29
7.7069806e-29
7.7078365e-29
7.7099693e-29
7.728134e-29
7.7162963e-29
7.7108335e-29
7.7085657e-29
7.7077395e-29
7.7075005e-29
7.7075321e-29
7.7078365e-29
7.7086932e-29
7.7108276e-29
7.7299164e-29
7.7183188e-29
7.7129315e-29
7.7106877e-29
7.709869e-29
7.7096321e-29
7.7096643e-29
7.7099693e-29
7.7108276e-29
7.7129685e-29
1.7181773e-28
1.7155969e-28
1.7143976e-28
1.7138977e-28
1.7137147e-28
1.71366e-28
1.7136614e-28
1.7137129e-28
1.7138618e-28
1.7142367e-28
1.7155969e-28
1.7130284e-28
1.7118332e-28
1.7113347e-28
1.7111523e-28
1.7110983e-28
1.7111014e-28
1.7111583e-28
1.7113241e-28
1.7117519e-28
1.7143976e-28
1.7118332e-28
1.71064e-28
1.7101425e-28
1.7099606e-28
1.7099071e-28
1.7099119e-28
1.7099732e-28
1.7101492e-28
1.7105935e-28
1.7138977e-28
1.7113347e-28
1.7101425e-28
1.7096454e-28
1.7094637e-28
1.7094107e-28
1.7094164e-28
1.7094801e-28
1.7096605e-28
1.7101101e-28
1.7137147e-28
1.7111523e-28
1.7099606e-28
1.7094637e-28
1.7092823e-28
1.7092295e-28
1.7092356e-28
1.7093003e-28
1.7094822e-28
1.7099334e-28
1.71366e-28
1.7110983e-28
1.7099071e-28
1.7094107e-28
1.7092295e-28
1.7091768e-28
1.7091831e-28
1.7092481e-28
1.7094306e-28
1.7098823e-28
1.7136614e-28
1.7111014e-28
1.7099119e-28
1.7094164e-28
1.7092356e-28
1.7091831e-28
1.7091896e-28
1.7092547e-28
1.7094373e-28
1.7098892e-28
1.7137129e-28
1.7111583e-28
1.7099732e-28
1.7094801e-28
1.7093003e-28
1.7092481e-28
1.7092547e-28
1.7093199e-28
1.7095026e-28
1.7099546e-28
1.7138618e-28
1.7113241e-28
1.7101492e-28
1.7096605e-28
1.7094822e-28
1.7094306e-28
1.7094373e-28
1.7095026e-28
1.7096855e-28
1.7101378e-28
1.7142367e-28
1.7117519e-28
1.7105935e-28
1.7101101e-28
1.7099334e-28
1.7098823e-28
1.7098892e-28
1.7099546e-28
1.7101378e-28
1.7105915e-28
3.8596918e-28
3.8540897e-28
3.8514774e-28
3.8503863e-28
3.8499864e-28
3.8498667e-28
3.8498694e-28
3.8499805e-28
3.8503005e-28
3.8510985e-28
3.8540897e-28
3.848513e-28
3.8459094e-28
3.8448214e-28
3.8444228e-28
3.8443046e-28
3.844311e-28
3.8444343e-28
3.8447919e-28
3.845708e-28
3.8514774e-28
3.8459094e-28
3.8433103e-28
3.8422243e-28
3.8418267e-28
3.8417099e-28
3.84172e-28
3.8418531e-28
3.8422332e-28
3.8431863e-28
3.8503863e-28
3.8448214e-28
3.8422243e-28
3.8411393e-28
3.8407424e-28
3.8406264e-28
3.8406387e-28
3.840777e-28
3.8411668e-28
3.8421318e-28
3.8499864e-28
3.8444228e-28
3.8418267e-28
3.8407424e-28
3.8403458e-28
3.8402303e-28
3.8402435e-28
3.8403839e-28
3.8407774e-28
3.8417459e-28
3.8498667e-28
3.8443046e-28
3.8417099e-28
3.8406264e-28
3.8402303e-28
3.840115e-28
3.8401287e-28
3.8402699e-28
3.8406645e-28
3.8416341e-28
3.8498694e-28
3.844311e-28
3.84172e-28
3.8406387e-28
3.8402435e-28
3.8401287e-28
3.8401426e-28
3.8402841e-28
3.840679e-28
3.841649e-28
3.8499805e-28
3.8444343e-28
3.8418531e-28
3.840777e-28
3.8403839e-28
3.8402699e-28
3.8402841e-28
3.8404257e-28
3.8408209e-28
3.8417911e-28
3.8503005e-28
3.8447919e-28
3.8422332e-28
3.8411668e-28
3.8407774e-28
3.8406645e-28
3.840679e-28
3.8408209e-28
3.8412164e-28
3.8421873e-28
3.8510985e-28
3.845708e-28
3.8431863e-28
3.8421318e-28
3.8417459e-28
3.8416341e-28
3.841649e-28
3.8417911e-28
3.8421873e-28
3.8431611e-28
8.7840842e-28
8.7717676e-28
8.7660057e-28
8.7635946e-28
8.7627097e-28
8.7624446e-28
8.7624496e-28
8.7626927e-28
8.7633887e-28
8.7651098e-28
8.7717676e-28
8.7595065e-28
8.7537634e-28
8.751359e-28
8.750477e-28
8.7502151e-28
8.7502287e-28
8.7504991e-28
8.75128e-28
8.7532678e-28
8.7660057e-28
8.7537634e-28
8.7480302e-28
8.7456301e-28
8.7447504e-28
8.7444916e-28
8.7445135e-28
8.7448061e-28
8.7456378e-28
8.747709e-28
8.7635946e-28
8.751359e-28
8.7456301e-28
8.7432323e-28
8.7423539e-28
8.742097e-28
8.7421238e-28
8.742428e-28
8.7432817e-28
8.7453796e-28
8.7627097e-28
8.750477e-28
8.7447504e-28
8.7423539e-28
8.7414763e-28
8.7412205e-28
8.7412495e-28
8.7415585e-28
8.7424202e-28
8.7445263e-28
8.7624446e-28
8.7502151e-28
8.7444916e-28
8.742097e-28
8.7412205e-28
8.7409653e-28
8.7409952e-28
8.7413059e-28
8.7421703e-28
8.7442787e-28
8.7624496e-28
8.7502287e-28
8.7445135e-28
8.7421238e-28
8.7412495e-28
8.7409952e-28
8.7410257e-28
8.741337e-28
8.7422022e-28
8.7443114e-28
8.7626927e-28
8.7504991e-28
8.7448061e-28
8.742428e-28
8.7415585e-28
8.7413059e-28
8.741337e-28
8.7416487e-28
8.7425144e-28
8.7446242e-28
8.7633887e-28
8.75128e-28
8.7456378e-28
8.7432817e-28
8.7424202e-28
8.7421703e-28
8.7422022e-28
8.7425144e-28
8.7433809e-28
8.7454922e-28
8.7651098e-28
8.7532678e-28
8.747709e-28
8.7453796e-28
8.7445263e-28
8.7442787e-28
8.7443114e-28
8.7446242e-28
8.7454922e-28
8.7476096e-28
2.0254804e-27
2.0227381e-27
2.0214511e-27
2.0209115e-27
2.0207132e-27
2.0206538e-27
2.0206547e-27
2.0207086e-27
2.020862e-27
2.0212379e-27
2.0227381e-27
2.020008e-27
2.0187252e-27
2.0181871e-27
2.0179894e-27
2.0179307e-27
2.0179336e-27
2.0179937e-27
2.0181665e-27
2.0186034e-27
2.0214511e-27
2.0187252e-27
2.0174445e-27
2.0169074e-27
2.0167102e-27
2.0166522e-27
2.016657e-27
2.0167222e-27
2.0169065e-27
2.0173625e-27
2.0209115e-27
2.0181871e-27
2.0169074e-27
2.0163707e-27
2.0161739e-27
2.0161163e-27
2.0161222e-27
2.01619e-27
2.0163794e-27
2.0168415e-27
2.0207132e-27
2.0179894e-27
2.0167102e-27
2.0161739e-27
2.0159773e-27
2.0159199e-27
2.0159263e-27
2.0159952e-27
2.0161865e-27
2.0166504e-27
2.0206538e-27
2.0179307e-27
2.0166522e-27
2.0161163e-27
2.0159199e-27
2.0158627e-27
2.0158693e-27
2.0159386e-27
2.0161304e-27
2.0165949e-27
2.0206547e-27
2.0179336e-27
2.016657e-27
2.0161222e-27
2.0159263e-27
2.0158693e-27
2.0158761e-27
2.0159455e-27
2.0161375e-27
2.0166022e-27
2.0207086e-27
2.0179937e-27
2.0167222e-27
2.01619e-27
2.0159952e-27
2.0159386e-27
2.0159455e-27
2.016015e-27
2.0162071e-27
2.0166719e-27
2.020862e-27
2.0181665e-27
2.0169065e-27
2.0163794e-27
2.0161865e-27
2.0161304e-27
2.0161375e-27
2.0162071e-27
2.0163994e-27
2.0168646e-27
2.0212379e-27
2.0186034e-27
2.0173625e-27
2.0168415e-27
2.0166504e-27
2.0165949e-27
2.0166022e-27
2.0166719e-27
2.0168646e-27
2.017331e-27
4.7322776e-27
4.7260941e-27
4.7231829e-27
4.7219601e-27
4.7215103e-27
4.7213752e-27
4.721377e-27
4.7214978e-27
4.7218403e-27
4.7226719e-27
4.7260941e-27
4.7199378e-27
4.7170359e-27
4.7158164e-27
4.715368e-27
4.7152345e-27
4.7152409e-27
4.7153761e-27
4.7157635e-27
4.7167365e-27
4.7231829e-27
4.7170359e-27
4.7141389e-27
4.7129215e-27
4.7124743e-27
4.7123424e-27
4.7123532e-27
4.7125001e-27
4.7129142e-27
4.7139314e-27
4.7219601e-27
4.7158164e-27
4.7129215e-27
4.7117053e-27
4.7112587e-27
4.7111279e-27
4.7111412e-27
4.7112943e-27
4.71172e-27
4.7127513e-27
4.7215103e-27
4.715368e-27
4.7124743e-27
4.7112587e-27
4.7108126e-27
4.7106823e-27
4.7106968e-27
4.7108524e-27
4.7112823e-27
4.712318e-27
4.7213752e-27
4.7152345e-27
4.7123424e-27
4.7111279e-27
4.7106823e-27
4.7105523e-27
4.7105673e-27
4.7107238e-27
4.7111552e-27
4.712192e-27
4.721377e-27
4.7152409e-27
4.7123532e-27
4.7111412e-27
4.7106968e-27
4.7105673e-27
4.7105826e-27
4.7107394e-27
4.7111712e-27
4.7122085e-27
4.7214978e-27
4.7153761e-27
4.7125001e-27
4.7112943e-27
4.7108524e-27
4.7107238e-27
4.7107394e-27
4.7108964e-27
4.7113284e-27
4.712366e-27
4.7218403e-27
4.7157635e-27
4.7129142e-27
4.71172e-27
4.7112823e-27
4.7111552e-27
4.7111712e-27
4.7113284e-27
4.7117609e-27
4.7127991e-27
4.7226719e-27
4.7167365e-27
4.7139314e-27
4.7127513e-27
4.712318e-27
4.712192e-27
4.7122085e-27
4.712366e-27
4.7127991e-27
4.7138403e-27
1.1203189e-26
1.1189068e-26
1.1182399e-26
1.1179593e-26
1.1178559e-26
1.1178249e-26
1.1178252e-26
1.1178527e-26
1.1179301e-26
1.1181165e-26
1.1189068e-26
1.1175008e-26
1.116836e-26
1.1165562e-26
1.1164531e-26
1.1164224e-26
1.1164238e-26
1.1164547e-26
1.1165427e-26
1.1167622e-26
1.1182399e-26
1.116836e-26
1.1161724e-26
1.115893e-26
1.1157902e-26
1.1157599e-26
1.1157623e-26
1.1157959e-26
1.1158901e-26
1.11612e-26
1.1179593e-26
1.1165562e-26
1.115893e-26
1.1156138e-26
1.1155112e-26
1.1154811e-26
1.1154842e-26
1.1155192e-26
1.1156161e-26
1.1158494e-26
1.1178559e-26
1.1164531e-26
1.1157902e-26
1.1155112e-26
1.1154087e-26
1.1153787e-26
1.1153821e-26
1.1154177e-26
1.1155156e-26
1.1157498e-26
1.1178249e-26
1.1164224e-26
1.1157599e-26
1.1154811e-26
1.1153787e-26
1.1153489e-26
1.1153523e-26
1.1153881e-26
1.1154864e-26
1.1157209e-26
1.1178252e-26
1.1164238e-26
1.1157623e-26
1.1154842e-26
1.1153821e-26
1.1153523e-26
1.1153558e-26
1.1153917e-26
1.1154901e-26
1.1157247e-26
1.1178527e-26
1.1164547e-26
1.1157959e-26
1.1155192e-26
1.1154177e-26
1.1153881e-26
1.1153917e-26
1.1154276e-26
1.115526e-26
1.1157607e-26
1.1179301e-26
1.1165427e-26
1.1158901e-26
1.1156161e-26
1.1155156e-26
1.1154864e-26
1.1154901e-26
1.115526e-26
1.1156246e-26
1.1158594e-26
1.1181165e-26
1.1167622e-26
1.11612e-26
1.1158494e-26
1.1157498e-26
1.1157209e-26
1.1157247e-26
1.1157607e-26
1.1158594e-26
1.1160949e-26
2.6875517e-26
2.6842855e-26
2.6827384e-26
2.6820862e-26
2.6818457e-26
2.6817733e-26
2.681774e-26
2.6818372e-26
2.6820147e-26
2.6824378e-26
2.6842855e-26
2.6810335e-26
2.6794912e-26
2.6788406e-26
2.6786009e-26
2.6785294e-26
2.6785326e-26
2.6786038e-26
2.6788062e-26
2.6793082e-26
2.6827384e-26
2.6794912e-26
2.6779514e-26
2.677302e-26
2.6770628e-26
2.6769922e-26
2.6769978e-26
2.6770756e-26
2.6772929e-26
2.6778194e-26
2.6820862e-26
2.6788406e-26
2.677302e-26
2.6766531e-26
2.6764144e-26
2.6763443e-26
2.6763513e-26
2.6764325e-26
2.6766563e-26
2.6771907e-26
2.6818457e-26
2.6786009e-26
2.6770628e-26
2.6764144e-26
2.6761758e-26
2.6761061e-26
2.6761137e-26
2.6761963e-26
2.6764224e-26
2.6769592e-26
2.6817733e-26
2.6785294e-26
2.6769922e-26
2.6763443e-26
2.6761061e-26
2.6760365e-26
2.6760445e-26
2.6761275e-26
2.6763544e-26
2.6768919e-26
2.681774e-26
2.6785326e-26
2.6769978e-26
2.6763513e-26
2.6761137e-26
2.6760445e-26
2.6760526e-26
2.6761358e-26
2.6763629e-26
2.6769006e-26
2.6818372e-26
2.6786038e-26
2.6770756e-26
2.6764325e-26
2.6761963e-26
2.6761275e-26
2.6761358e-26
2.6762191e-26
2.6764464e-26
2.6769842e-26
2.6820147e-26
2.6788062e-26
2.6772929e-26
2.6766563e-26
2.6764224e-26
2.6763544e-26
2.6763629e-26
2.6764464e-26
2.6766738e-26
2.6772121e-26
2.6824378e-26
2.6793082e-26
2.6778194e-26
2.6771907e-26
2.6769592e-26
2.6768919e-26
2.6769006e-26
2.6769842e-26
2.6772121e-26
2.6777518e-26
6.5331948e-26
6.5255437e-26
6.5219087e-26
6.5203736e-26
6.5198069e-26
6.5196361e-26
6.5196373e-26
6.5197848e-26
6.5201968e-26
6.5211701e-26
6.5255437e-26
6.5179254e-26
6.5143015e-26
6.5127703e-26
6.5122053e-26
6.5120366e-26
6.5120439e-26
6.5122107e-26
6.5126827e-26
6.5138456e-26
6.5219087e-26
6.5143015e-26
6.5106834e-26
6.5091548e-26
6.5085913e-26
6.5084247e-26
6.5084378e-26
6.5086202e-26
6.509128e-26
6.5103501e-26
6.5203736e-26
6.5127703e-26
6.5091548e-26
6.5076276e-26
6.5070649e-26
6.5068997e-26
6.5069162e-26
6.5071068e-26
6.5076301e-26
6.508871e-26
6.5198069e-26
6.5122053e-26
6.5085913e-26
6.5070649e-26
6.5065028e-26
6.5063383e-26
6.5063564e-26
6.5065503e-26
6.5070793e-26
6.508326e-26
6.5196361e-26
6.5120366e-26
6.5084247e-26
6.5068997e-26
6.5063383e-26
6.5061743e-26
6.506193e-26
6.5063882e-26
6.5069189e-26
6.5081673e-26
6.5196373e-26
6.5120439e-26
6.5084378e-26
6.5069162e-26
6.5063564e-26
6.506193e-26
6.5062121e-26
6.5064077e-26
6.506939e-26
6.5081879e-26
6.5197848e-26
6.5122107e-26
6.5086202e-26
6.5071068e-26
6.5065503e-26
6.5063882e-26
6.5064077e-26
6.5066035e-26
6.5071351e-26
6.5083844e-26
6.5201968e-26
6.5126827e-26
6.509128e-26
6.5076301e-26
6.5070793e-26
6.5069189e-26
6.506939e-26
6.5071351e-26
6.5076672e-26
6.5089173e-26
6.5211701e-26
6.5138456e-26
6.5103501e-26
6.508871e-26
6.508326e-26
6.5081673e-26
6.5081879e-26
6.5083844e-26
6.5089173e-26
6.5101707e-26
1.6093602e-25
1.607545e-25
1.6066801e-25
1.6063141e-25
1.6061789e-25
1.6061381e-25
1.6061383e-25
1.6061732e-25
1.6062701e-25
1.6064969e-25
1.607545e-25
1.6057375e-25
1.6048751e-25
1.6045101e-25
1.6043753e-25
1.604335e-25
1.6043367e-25
1.6043763e-25
1.6044878e-25
1.6047608e-25
1.6066801e-25
1.6048751e-25
1.6040141e-25
1.6036498e-25
1.6035153e-25
1.6034755e-25
1.6034786e-25
1.603522e-25
1.6036422e-25
1.6039296e-25
1.6063141e-25
1.6045101e-25
1.6036498e-25
1.6032857e-25
1.6031514e-25
1.603112e-25
1.6031159e-25
1.6031613e-25
1.6032853e-25
1.6035773e-25
1.6061789e-25
1.6043753e-25
1.6035153e-25
1.6031514e-25
1.6030173e-25
1.602978e-25
1.6029823e-25
1.6030285e-25
1.6031539e-25
1.6034473e-25
1.6061381e-25
1.604335e-25
1.6034755e-25
1.603112e-25
1.602978e-25
1.6029389e-25
1.6029433e-25
1.6029898e-25
1.6031156e-25
1.6034094e-25
1.6061383e-25
1.6043367e-25
1.6034786e-25
1.6031159e-25
1.6029823e-25
1.6029433e-25
1.6029479e-25
1.6029945e-25
1.6031204e-25
1.6034144e-25
1.6061732e-25
1.6043763e-25
1.603522e-25
1.6031613e-25
1.6030285e-25
1.6029898e-25
1.6029945e-25
1.6030411e-25
1.6031671e-25
1.6034611e-25
1.6062701e-25
1.6044878e-25
1.6036422e-25
1.6032853e-25
1.6031539e-25
1.6031156e-25
1.6031204e-25
1.6031671e-25
1.6032933e-25
1.6035875e-25
1.6064969e-25
1.6047608e-25
1.6039296e-25
1.6035773e-25
1.6034473e-25
1.6034094e-25
1.6034144e-25
1.6034611e-25
1.6035875e-25
1.6038825e-25
4.0173536e-25
4.0129919e-25
4.0109076e-25
4.0100243e-25
4.0096975e-25
4.0095988e-25
4.0095992e-25
4.0096828e-25
4.0099137e-25
4.0104491e-25
4.0129919e-25
4.0086486e-25
4.0065704e-25
4.0056894e-25
4.0053635e-25
4.0052661e-25
4.0052701e-25
4.0053652e-25
4.0056322e-25
4.0062816e-25
4.0109076e-25
4.0065704e-25
4.0044956e-25
4.003616e-25
4.003291e-25
4.0031948e-25
4.0032023e-25
4.0033068e-25
4.0035952e-25
4.0042802e-25
4.0100243e-25
4.0056894e-25
4.003616e-25
4.0027371e-25
4.0024127e-25
4.0023173e-25
4.0023268e-25
4.0024362e-25
4.0027339e-25
4.0034302e-25
4.0096975e-25
4.0053635e-25
4.003291e-25
4.0024127e-25
4.0020885e-25
4.0019936e-25
4.002004e-25
4.0021154e-25
4.0024165e-25
4.0031163e-25
4.0095988e-25
4.0052661e-25
4.0031948e-25
4.0023173e-25
4.0019936e-25
4.0018989e-25
4.0019097e-25
4.0020218e-25
4.002324e-25
4.0030248e-25
4.0095992e-25
4.0052701e-25
4.0032023e-25
4.0023268e-25
4.002004e-25
4.0019097e-25
4.0019208e-25
4.0020331e-25
4.0023357e-25
4.0030368e-25
4.0096828e-25
4.0053652e-25
4.0033068e-25
4.0024362e-25
4.0021154e-25
4.0020218e-25
4.0020331e-25
4.0021456e-25
4.0024484e-25
4.0031496e-25
4.0099137e-25
4.0056322e-25
4.0035952e-25
4.0027339e-25
4.0024165e-25
4.002324e-25
4.0023357e-25
4.0024484e-25
4.0027513e-25
4.0034531e-25
4.0104491e-25
4.0062816e-25
4.0042802e-25
4.0034302e-25
4.0031163e-25
4.0030248e-25
4.0030368e-25
4.0031496e-25
4.0034531e-25
4.0041566e-25
1.0162042e-24
1.0151429e-24
1.0146342e-24
1.0144183e-24
1.0143383e-24
1.0143142e-24
1.0143142e-24
1.0143345e-24
1.0143903e-24
1.0145183e-24
1.0151429e-24
1.0140859e-24
1.0135787e-24
1.0133633e-24
1.0132836e-24
1.0132598e-24
1.0132607e-24
1.0132839e-24
1.0133486e-24
1.0135052e-24
1.0146342e-24
1.0135787e-24
1.0130724e-24
1.0128573e-24
1.0127778e-24
1.0127543e-24
1.0127561e-24
1.0127816e-24
1.0128517e-24
1.0130171e-24
1.0144183e-24
1.0133633e-24
1.0128573e-24
1.0126425e-24
1.0125631e-24
1.0125398e-24
1.0125421e-24
1.0125688e-24
1.0126412e-24
1.0128095e-24
1.0143383e-24
1.0132836e-24
1.0127778e-24
1.0125631e-24
1.0124838e-24
1.0124605e-24
1.0124631e-24
1.0124903e-24
1.0125636e-24
1.0127327e-24
1.0143142e-24
1.0132598e-24
1.0127543e-24
1.0125398e-24
1.0124605e-24
1.0124374e-24
1.01244e-24
1.0124674e-24
1.012541e-24
1.0127104e-24
1.0143142e-24
1.0132607e-24
1.0127561e-24
1.0125421e-24
1.0124631e-24
1.01244e-24
1.0124427e-24
1.0124702e-24
1.0125438e-24
1.0127133e-24
1.0143345e-24
1.0132839e-24
1.0127816e-24
1.0125688e-24
1.0124903e-24
1.0124674e-24
1.0124702e-24
1.0124977e-24
1.0125714e-24
1.0127409e-24
1.0143903e-24
1.0133486e-24
1.0128517e-24
1.0126412e-24
1.0125636e-24
1.012541e-24
1.0125438e-24
1.0125714e-24
1.0126451e-24
1.0128148e-24
1.0145183e-24
1.0135052e-24
1.0130171e-24
1.0128095e-24
1.0127327e-24
1.0127104e-24
1.0127133e-24
1.0127409e-24
1.0128148e-24
1.0129848e-24
2.604747e-24
2.6021314e-24
2.6008745e-24
2.60034e-24
2.6001419e-24
2.6000819e-24
2.600082e-24
2.6001319e-24
2.6002682e-24
2.6005785e-24
2.6021314e-24
2.5995266e-24
2.5982733e-24
2.5977401e-24
2.5975425e-24
2.5974834e-24
2.5974857e-24
2.5975429e-24
2.597702e-24
2.5980844e-24
2.6008745e-24
2.5982733e-24
2.5970219e-24
2.5964896e-24
2.5962925e-24
2.5962342e-24
2.5962387e-24
2.5963017e-24
2.5964745e-24
2.5968793e-24
2.60034e-24
2.5977401e-24
2.5964896e-24
2.5959578e-24
2.595761e-24
2.5957031e-24
2.5957089e-24
2.5957751e-24
2.5959537e-24
2.5963657e-24
2.6001419e-24
2.5975425e-24
2.5962925e-24
2.595761e-24
2.5955645e-24
2.5955069e-24
2.5955133e-24
2.5955807e-24
2.5957614e-24
2.5961756e-24
2.6000819e-24
2.5974834e-24
2.5962342e-24
2.5957031e-24
2.5955069e-24
2.5954494e-24
2.5954561e-24
2.5955239e-24
2.5957053e-24
2.5961202e-24
2.600082e-24
2.5974857e-24
2.5962387e-24
2.5957089e-24
2.5955133e-24
2.5954561e-24
2.5954628e-24
2.5955309e-24
2.5957125e-24
2.5961275e-24
2.6001319e-24
2.5975429e-24
2.5963017e-24
2.5957751e-24
2.5955807e-24
2.5955239e-24
2.5955309e-24
2.595599e-24
2.5957807e-24
2.5961959e-24
2.6002682e-24
2.597702e-24
2.5964745e-24
2.5959537e-24
2.5957614e-24
2.5957053e-24
2.5957125e-24
2.5957807e-24
2.5959626e-24
2.596378e-24
2.6005785e-24
2.5980844e-24
2.5968793e-24
2.5963657e-24
2.5961756e-24
2.5961202e-24
2.5961275e-24
2.5961959e-24
2.596378e-24
2.5967945e-24
6.7651473e-24
6.7586201e-24
6.7554749e-24
6.7541354e-24
6.7536382e-24
6.7534877e-24
6.7534876e-24
6.7536119e-24
6.7539499e-24
6.7547116e-24
6.7586201e-24
6.7521196e-24
6.7489832e-24
6.7476469e-24
6.7471512e-24
6.7470027e-24
6.7470085e-24
6.7471514e-24
6.7475478e-24
6.7484943e-24
6.7554749e-24
6.7489832e-24
6.7458518e-24
6.7445176e-24
6.7440232e-24
6.7438767e-24
6.7438881e-24
6.7440461e-24
6.7444772e-24
6.7454813e-24
6.7541354e-24
6.7476469e-24
6.7445176e-24
6.7431846e-24
6.742691e-24
6.7425458e-24
6.7425604e-24
6.7427264e-24
6.7431724e-24
6.7441949e-24
6.7536382e-24
6.7471512e-24
6.7440232e-24
6.742691e-24
6.7421979e-24
6.7420533e-24
6.7420695e-24
6.7422387e-24
6.7426902e-24
6.7437183e-24
6.7534877e-24
6.7470027e-24
6.7438767e-24
6.7425458e-24
6.7420533e-24
6.7419092e-24
6.741926e-24
6.7420963e-24
6.7425496e-24
6.7435793e-24
6.7534876e-24
6.7470085e-24
6.7438881e-24
6.7425604e-24
6.7420695e-24
6.741926e-24
6.7419431e-24
6.7421139e-24
6.7425677e-24
6.7435979e-24
6.7536119e-24
6.7471514e-24
6.7440461e-24
6.7427264e-24
6.7422387e-24
6.7420963e-24
6.7421139e-24
6.7422849e-24
6.742739e-24
6.7437695e-24
6.7539499e-24
6.7475478e-24
6.7444772e-24
6.7431724e-24
6.7426902e-24
6.7425496e-24
6.7425677e-24
6.742739e-24
6.7431935e-24
6.7442246e-24
6.7547116e-24
6.7484943e-24
6.7454813e-24
6.7441949e-24
6.7437183e-24
6.7435793e-24
6.7435979e-24
6.7437695e-24
6.7442246e-24
6.7452582e-24
1.7803011e-23
1.7786518e-23
1.7778549e-23
1.777515e-23
1.7773888e-23
1.7773505e-23
1.7773504e-23
1.7773818e-23
1.7774667e-23
1.7776561e-23
1.7786518e-23
1.7770092e-23
1.7762145e-23
1.7758754e-23
1.7757495e-23
1.7757118e-23
1.7757132e-23
1.7757494e-23
1.7758494e-23
1.7760868e-23
1.7778549e-23
1.7762145e-23
1.7754211e-23
1.7750825e-23
1.774957e-23
1.7749197e-23
1.7749226e-23
1.7749628e-23
1.7750718e-23
1.7753241e-23
1.777515e-23
1.7758754e-23
1.7750825e-23
1.7747443e-23
1.7746189e-23
1.774582e-23
1.7745857e-23
1.7746279e-23
1.7747408e-23
1.7749979e-23
1.7773888e-23
1.7757495e-23
1.774957e-23
1.7746189e-23
1.7744936e-23
1.7744569e-23
1.7744611e-23
1.7745041e-23
1.7746184e-23
1.7748769e-23
1.7773505e-23
1.7757118e-23
1.7749197e-23
1.774582e-23
1.7744569e-23
1.7744203e-23
1.7744246e-23
1.7744679e-23
1.7745827e-23
1.7748416e-23
1.7773504e-23
1.7757132e-23
1.7749226e-23
1.7745857e-23
1.7744611e-23
1.7744246e-23
1.774429e-23
1.7744724e-23
1.7745873e-23
1.7748464e-23
1.7773818e-23
1.7757494e-23
1.7749628e-23
1.7746279e-23
1.7745041e-23
1.7744679e-23
1.7744724e-23
1.7745159e-23
1.7746309e-23
1.77489e-23
1.7774667e-23
1.7758494e-23
1.7750718e-23
1.7747408e-23
1.7746184e-23
1.7745827e-23
1.7745873e-23
1.7746309e-23
1.7747459e-23
1.7750053e-23
1.7776561e-23
1.7760868e-23
1.7753241e-23
1.7749979e-23
1.7748769e-23
1.7748416e-23
1.7748464e-23