/*--------------------------------*- C++ -*----------------------------------*\
| =========                 |                                                 |
| \\      /  F ield         | OpenFOAM: The Open Source CFD Toolbox           |
|  \\    /   O peration     | Version:  dev                                   |
|   \\  /    A nd           | Web:      www.OpenFOAM.org                      |
|    \\/     M anipulation  |                                                 |
\*---------------------------------------------------------------------------*/
FoamFile
{
    version     2.0;
    format      ascii;
    class       volScalarField;
    location    "37.995";
    object      A;
}
// * * * * * * * * * * * * * * * * * * * * * * * * * * * * * * * * * * * * * //

dimensions      [0 0 0 0 1 0 0];

internalField   nonuniform List<scalar> 
10000
(
1.2764714e-38
1.2741114e-38
1.2737476e-38
1.2736957e-38
1.273685e-38
1.2736814e-38
1.2736806e-38
1.2736851e-38
1.2737255e-38
1.273964e-38
1.2741114e-38
1.2717671e-38
1.2714056e-38
1.2713539e-38
1.2713433e-38
1.2713397e-38
1.271339e-38
1.2713443e-38
1.271391e-38
1.271672e-38
1.2737476e-38
1.2714056e-38
1.2710444e-38
1.2709929e-38
1.2709822e-38
1.2709787e-38
1.270978e-38
1.2709835e-38
1.2710317e-38
1.2713188e-38
1.2736957e-38
1.2713539e-38
1.2709929e-38
1.2709413e-38
1.2709307e-38
1.2709271e-38
1.2709265e-38
1.2709321e-38
1.2709806e-38
1.2712684e-38
1.273685e-38
1.2713433e-38
1.2709822e-38
1.2709307e-38
1.27092e-38
1.2709165e-38
1.2709159e-38
1.2709216e-38
1.2709701e-38
1.2712579e-38
1.2736814e-38
1.2713397e-38
1.2709787e-38
1.2709271e-38
1.2709165e-38
1.270913e-38
1.2709124e-38
1.2709181e-38
1.2709666e-38
1.2712545e-38
1.2736806e-38
1.271339e-38
1.270978e-38
1.2709265e-38
1.2709159e-38
1.2709124e-38
1.2709118e-38
1.2709175e-38
1.270966e-38
1.2712539e-38
1.2736851e-38
1.2713443e-38
1.2709835e-38
1.2709321e-38
1.2709216e-38
1.2709181e-38
1.2709175e-38
1.2709232e-38
1.2709717e-38
1.2712597e-38
1.2737255e-38
1.271391e-38
1.2710317e-38
1.2709806e-38
1.2709701e-38
1.2709666e-38
1.270966e-38
1.2709717e-38
1.2710203e-38
1.2713084e-38
1.273964e-38
1.271672e-38
1.2713188e-38
1.2712684e-38
1.2712579e-38
1.2712545e-38
1.2712539e-38
1.2712597e-38
1.2713084e-38
1.2715976e-38
4.9554561e-38
4.9467519e-38
4.9453675e-38
4.945169e-38
4.9451279e-38
4.9451141e-38
4.9451109e-38
4.9451282e-38
4.9452831e-38
4.9462581e-38
4.9467519e-38
4.9381051e-38
4.936729e-38
4.9365316e-38
4.9364907e-38
4.9364769e-38
4.9364741e-38
4.9364942e-38
4.9366736e-38
4.9378148e-38
4.9453675e-38
4.936729e-38
4.9353545e-38
4.9351573e-38
4.9351165e-38
4.9351028e-38
4.9351002e-38
4.9351214e-38
4.9353063e-38
4.9364712e-38
4.945169e-38
4.9365316e-38
4.9351573e-38
4.9349601e-38
4.9349193e-38
4.9349057e-38
4.9349033e-38
4.9349248e-38
4.9351106e-38
4.9362782e-38
4.9451279e-38
4.9364907e-38
4.9351165e-38
4.9349193e-38
4.9348786e-38
4.934865e-38
4.9348627e-38
4.9348843e-38
4.9350704e-38
4.9362383e-38
4.9451141e-38
4.9364769e-38
4.9351028e-38
4.9349057e-38
4.934865e-38
4.9348515e-38
4.9348492e-38
4.9348709e-38
4.935057e-38
4.9362251e-38
4.9451109e-38
4.9364741e-38
4.9351002e-38
4.9349033e-38
4.9348627e-38
4.9348492e-38
4.934847e-38
4.9348687e-38
4.9350549e-38
4.9362229e-38
4.9451282e-38
4.9364942e-38
4.9351214e-38
4.9349248e-38
4.9348843e-38
4.9348709e-38
4.9348687e-38
4.9348904e-38
4.9350766e-38
4.9362447e-38
4.9452831e-38
4.9366736e-38
4.9353063e-38
4.9351106e-38
4.9350704e-38
4.935057e-38
4.9350549e-38
4.9350766e-38
4.935263e-38
4.9364318e-38
4.9462581e-38
4.9378148e-38
4.9364712e-38
4.9362782e-38
4.9362383e-38
4.9362251e-38
4.9362229e-38
4.9362447e-38
4.9364318e-38
4.9376051e-38
1.3167733e-37
1.3145448e-37
1.3141871e-37
1.3141357e-37
1.314125e-37
1.3141214e-37
1.3141205e-37
1.3141249e-37
1.3141647e-37
1.3144261e-37
1.3145448e-37
1.3123309e-37
1.3119753e-37
1.3119241e-37
1.3119135e-37
1.3119099e-37
1.3119091e-37
1.3119143e-37
1.3119606e-37
1.312266e-37
1.3141871e-37
1.3119753e-37
1.3116202e-37
1.311569e-37
1.3115584e-37
1.3115548e-37
1.3115542e-37
1.3115596e-37
1.3116074e-37
1.311919e-37
1.3141357e-37
1.3119241e-37
1.311569e-37
1.3115179e-37
1.3115073e-37
1.3115037e-37
1.3115031e-37
1.3115086e-37
1.3115566e-37
1.311869e-37
1.314125e-37
1.3119135e-37
1.3115584e-37
1.3115073e-37
1.3114967e-37
1.3114931e-37
1.3114925e-37
1.3114981e-37
1.3115461e-37
1.3118586e-37
1.3141214e-37
1.3119099e-37
1.3115548e-37
1.3115037e-37
1.3114931e-37
1.3114896e-37
1.311489e-37
1.3114946e-37
1.3115427e-37
1.3118552e-37
1.3141205e-37
1.3119091e-37
1.3115542e-37
1.3115031e-37
1.3114925e-37
1.311489e-37
1.3114884e-37
1.311494e-37
1.3115421e-37
1.3118546e-37
1.3141249e-37
1.3119143e-37
1.3115596e-37
1.3115086e-37
1.3114981e-37
1.3114946e-37
1.311494e-37
1.3114996e-37
1.3115477e-37
1.3118602e-37
1.3141647e-37
1.3119606e-37
1.3116074e-37
1.3115566e-37
1.3115461e-37
1.3115427e-37
1.3115421e-37
1.3115477e-37
1.3115958e-37
1.3119085e-37
1.3144261e-37
1.312266e-37
1.311919e-37
1.311869e-37
1.3118586e-37
1.3118552e-37
1.3118546e-37
1.3118602e-37
1.3119085e-37
1.3122225e-37
3.3836733e-37
3.3781396e-37
3.3772484e-37
3.3771198e-37
3.3770929e-37
3.3770838e-37
3.3770817e-37
3.3770925e-37
3.37719e-37
3.3778345e-37
3.3781396e-37
3.3726417e-37
3.3717558e-37
3.3716278e-37
3.3716011e-37
3.371592e-37
3.3715902e-37
3.3716029e-37
3.3717169e-37
3.3724743e-37
3.3772484e-37
3.3717558e-37
3.3708709e-37
3.3707431e-37
3.3707164e-37
3.3707074e-37
3.3707057e-37
3.3707191e-37
3.3708369e-37
3.3716103e-37
3.3771198e-37
3.3716278e-37
3.3707431e-37
3.3706153e-37
3.3705886e-37
3.3705797e-37
3.3705781e-37
3.3705916e-37
3.3707101e-37
3.3714854e-37
3.3770929e-37
3.3716011e-37
3.3707164e-37
3.3705886e-37
3.370562e-37
3.3705531e-37
3.3705515e-37
3.3705652e-37
3.3706838e-37
3.3714593e-37
3.3770838e-37
3.371592e-37
3.3707074e-37
3.3705797e-37
3.3705531e-37
3.3705442e-37
3.3705427e-37
3.3705564e-37
3.3706751e-37
3.3714506e-37
3.3770817e-37
3.3715902e-37
3.3707057e-37
3.3705781e-37
3.3705515e-37
3.3705427e-37
3.3705412e-37
3.3705549e-37
3.3706736e-37
3.3714492e-37
3.3770925e-37
3.3716029e-37
3.3707191e-37
3.3705916e-37
3.3705652e-37
3.3705564e-37
3.3705549e-37
3.3705687e-37
3.3706874e-37
3.371463e-37
3.37719e-37
3.3717169e-37
3.3708369e-37
3.3707101e-37
3.3706838e-37
3.3706751e-37
3.3706736e-37
3.3706874e-37
3.3708062e-37
3.3715822e-37
3.3778345e-37
3.3724743e-37
3.3716103e-37
3.3714854e-37
3.3714593e-37
3.3714506e-37
3.3714492e-37
3.371463e-37
3.3715822e-37
3.3723613e-37
8.7642753e-37
8.7504189e-37
8.7481829e-37
8.7478594e-37
8.7477916e-37
8.7477686e-37
8.7477631e-37
8.7477895e-37
8.7480287e-37
8.7496077e-37
8.7504189e-37
8.7366514e-37
8.7344286e-37
8.7341066e-37
8.7340391e-37
8.7340162e-37
8.7340114e-37
8.7340429e-37
8.7343247e-37
8.7361947e-37
8.7481829e-37
8.7344286e-37
8.7322083e-37
8.7318867e-37
8.7318193e-37
8.7317966e-37
8.7317922e-37
8.7318253e-37
8.7321169e-37
8.7340282e-37
8.7478594e-37
8.7341066e-37
8.7318867e-37
8.7315652e-37
8.7314979e-37
8.7314753e-37
8.7314711e-37
8.7315048e-37
8.731798e-37
8.7337141e-37
8.7477916e-37
8.7340391e-37
8.7318193e-37
8.7314979e-37
8.7314306e-37
8.7314081e-37
8.7314041e-37
8.731438e-37
8.7317316e-37
8.7336483e-37
8.7477686e-37
8.7340162e-37
8.7317966e-37
8.7314753e-37
8.7314081e-37
8.7313856e-37
8.7313817e-37
8.7314157e-37
8.7317095e-37
8.7336263e-37
8.7477631e-37
8.7340114e-37
8.7317922e-37
8.7314711e-37
8.7314041e-37
8.7313817e-37
8.7313778e-37
8.7314119e-37
8.7317057e-37
8.7336226e-37
8.7477895e-37
8.7340429e-37
8.7318253e-37
8.7315048e-37
8.731438e-37
8.7314157e-37
8.7314119e-37
8.7314461e-37
8.73174e-37
8.7336569e-37
8.7480287e-37
8.7343247e-37
8.7321169e-37
8.731798e-37
8.7317316e-37
8.7317095e-37
8.7317057e-37
8.73174e-37
8.732034e-37
8.7339519e-37
8.7496077e-37
8.7361947e-37
8.7340282e-37
8.7337141e-37
8.7336483e-37
8.7336263e-37
8.7336226e-37
8.7336569e-37
8.7339519e-37
8.7358775e-37
2.302837e-36
2.2993181e-36
2.2987493e-36
2.2986668e-36
2.2986495e-36
2.2986436e-36
2.2986421e-36
2.2986487e-36
2.2987081e-36
2.299099e-36
2.2993181e-36
2.2958217e-36
2.2952562e-36
2.2951741e-36
2.2951568e-36
2.2951509e-36
2.2951497e-36
2.2951575e-36
2.2952281e-36
2.2956951e-36
2.2987493e-36
2.2952562e-36
2.2946914e-36
2.2946093e-36
2.2945921e-36
2.2945862e-36
2.2945851e-36
2.2945934e-36
2.2946665e-36
2.2951443e-36
2.2986668e-36
2.2951741e-36
2.2946093e-36
2.2945273e-36
2.2945101e-36
2.2945043e-36
2.2945032e-36
2.2945117e-36
2.2945852e-36
2.2950642e-36
2.2986495e-36
2.2951568e-36
2.2945921e-36
2.2945101e-36
2.2944929e-36
2.2944871e-36
2.294486e-36
2.2944946e-36
2.2945682e-36
2.2950474e-36
2.2986436e-36
2.2951509e-36
2.2945862e-36
2.2945043e-36
2.2944871e-36
2.2944813e-36
2.2944803e-36
2.2944889e-36
2.2945625e-36
2.2950417e-36
2.2986421e-36
2.2951497e-36
2.2945851e-36
2.2945032e-36
2.294486e-36
2.2944803e-36
2.2944793e-36
2.2944879e-36
2.2945615e-36
2.2950408e-36
2.2986487e-36
2.2951575e-36
2.2945934e-36
2.2945117e-36
2.2944946e-36
2.2944889e-36
2.2944879e-36
2.2944965e-36
2.2945701e-36
2.2950494e-36
2.2987081e-36
2.2952281e-36
2.2946665e-36
2.2945852e-36
2.2945682e-36
2.2945625e-36
2.2945615e-36
2.2945701e-36
2.2946439e-36
2.2951234e-36
2.299099e-36
2.2956951e-36
2.2951443e-36
2.2950642e-36
2.2950474e-36
2.2950417e-36
2.2950408e-36
2.2950494e-36
2.2951234e-36
2.2956048e-36
6.1444273e-36
6.1353561e-36
6.1338875e-36
6.1336739e-36
6.1336288e-36
6.1336134e-36
6.1336097e-36
6.1336262e-36
6.1337759e-36
6.1347574e-36
6.1353561e-36
6.1263423e-36
6.1248821e-36
6.1246696e-36
6.1246246e-36
6.1246093e-36
6.1246061e-36
6.1246261e-36
6.1248053e-36
6.1259889e-36
6.1338875e-36
6.1248821e-36
6.1234237e-36
6.1232113e-36
6.1231665e-36
6.1231513e-36
6.1231483e-36
6.1231695e-36
6.1233555e-36
6.1245676e-36
6.1336739e-36
6.1246696e-36
6.1232113e-36
6.1229991e-36
6.1229543e-36
6.1229391e-36
6.1229363e-36
6.1229579e-36
6.123145e-36
6.1243605e-36
6.1336288e-36
6.1246246e-36
6.1231665e-36
6.1229543e-36
6.1229095e-36
6.1228944e-36
6.1228917e-36
6.1229135e-36
6.1231008e-36
6.1243167e-36
6.1336134e-36
6.1246093e-36
6.1231513e-36
6.1229391e-36
6.1228944e-36
6.1228794e-36
6.1228767e-36
6.1228986e-36
6.123086e-36
6.124302e-36
6.1336097e-36
6.1246061e-36
6.1231483e-36
6.1229363e-36
6.1228917e-36
6.1228767e-36
6.1228741e-36
6.122896e-36
6.1230835e-36
6.1242995e-36
6.1336262e-36
6.1246261e-36
6.1231695e-36
6.1229579e-36
6.1229135e-36
6.1228986e-36
6.122896e-36
6.1229179e-36
6.1231054e-36
6.1243215e-36
6.1337759e-36
6.1248053e-36
6.1233555e-36
6.123145e-36
6.1231008e-36
6.123086e-36
6.1230835e-36
6.1231054e-36
6.1232931e-36
6.1245098e-36
6.1347574e-36
6.1259889e-36
6.1245676e-36
6.1243605e-36
6.1243167e-36
6.124302e-36
6.1242995e-36
6.1243215e-36
6.1245098e-36
6.1257312e-36
1.6651987e-35
1.6628245e-35
1.6624395e-35
1.6623834e-35
1.6623715e-35
1.6623674e-35
1.6623665e-35
1.6623707e-35
1.662409e-35
1.6626592e-35
1.6628245e-35
1.6604653e-35
1.6600825e-35
1.6600267e-35
1.6600148e-35
1.6600107e-35
1.6600099e-35
1.6600151e-35
1.6600613e-35
1.6603659e-35
1.6624395e-35
1.6600825e-35
1.6597002e-35
1.6596444e-35
1.6596325e-35
1.6596285e-35
1.6596277e-35
1.6596332e-35
1.6596813e-35
1.6599936e-35
1.6623834e-35
1.6600267e-35
1.6596444e-35
1.6595886e-35
1.6595768e-35
1.6595728e-35
1.659572e-35
1.6595776e-35
1.659626e-35
1.6599392e-35
1.6623715e-35
1.6600148e-35
1.6596325e-35
1.6595768e-35
1.659565e-35
1.659561e-35
1.6595602e-35
1.6595659e-35
1.6596143e-35
1.6599276e-35
1.6623674e-35
1.6600107e-35
1.6596285e-35
1.6595728e-35
1.659561e-35
1.659557e-35
1.6595563e-35
1.6595619e-35
1.6596104e-35
1.6599238e-35
1.6623665e-35
1.6600099e-35
1.6596277e-35
1.659572e-35
1.6595602e-35
1.6595563e-35
1.6595556e-35
1.6595613e-35
1.6596097e-35
1.6599231e-35
1.6623707e-35
1.6600151e-35
1.6596332e-35
1.6595776e-35
1.6595659e-35
1.6595619e-35
1.6595613e-35
1.6595669e-35
1.6596154e-35
1.6599288e-35
1.662409e-35
1.6600613e-35
1.6596813e-35
1.659626e-35
1.6596143e-35
1.6596104e-35
1.6596097e-35
1.6596154e-35
1.6596639e-35
1.6599775e-35
1.6626592e-35
1.6603659e-35
1.6599936e-35
1.6599392e-35
1.6599276e-35
1.6599238e-35
1.6599231e-35
1.6599288e-35
1.6599775e-35
1.6602922e-35
4.5841308e-35
4.5778217e-35
4.5767971e-35
4.5766474e-35
4.5766155e-35
4.5766045e-35
4.5766018e-35
4.5766129e-35
4.5767123e-35
4.5773598e-35
4.5778217e-35
4.571552e-35
4.5705332e-35
4.5703841e-35
4.5703524e-35
4.5703415e-35
4.5703391e-35
4.5703527e-35
4.5704739e-35
4.5712702e-35
4.5767971e-35
4.5705332e-35
4.5695155e-35
4.5693666e-35
4.5693349e-35
4.5693241e-35
4.5693219e-35
4.5693364e-35
4.5694626e-35
4.57028e-35
4.5766474e-35
4.5703841e-35
4.5693666e-35
4.5692178e-35
4.5691861e-35
4.5691754e-35
4.5691733e-35
4.5691881e-35
4.5693151e-35
4.5701349e-35
4.5766155e-35
4.5703524e-35
4.5693349e-35
4.5691861e-35
4.5691545e-35
4.5691438e-35
4.5691418e-35
4.5691567e-35
4.5692839e-35
4.570104e-35
4.5766045e-35
4.5703415e-35
4.5693241e-35
4.5691754e-35
4.5691438e-35
4.5691331e-35
4.5691312e-35
4.5691461e-35
4.5692734e-35
4.5700936e-35
4.5766018e-35
4.5703391e-35
4.5693219e-35
4.5691733e-35
4.5691418e-35
4.5691312e-35
4.5691293e-35
4.5691442e-35
4.5692715e-35
4.5700917e-35
4.5766129e-35
4.5703527e-35
4.5693364e-35
4.5691881e-35
4.5691567e-35
4.5691461e-35
4.5691442e-35
4.5691592e-35
4.5692865e-35
4.5701068e-35
4.5767123e-35
4.5704739e-35
4.5694626e-35
4.5693151e-35
4.5692839e-35
4.5692734e-35
4.5692715e-35
4.5692865e-35
4.5694139e-35
4.5702346e-35
4.5773598e-35
4.5712702e-35
4.57028e-35
4.5701349e-35
4.570104e-35
4.5700936e-35
4.5700917e-35
4.5701068e-35
4.5702346e-35
4.5710584e-35
1.2819847e-34
1.2802823e-34
1.2800054e-34
1.2799649e-34
1.2799562e-34
1.2799532e-34
1.2799525e-34
1.2799554e-34
1.2799816e-34
1.2801518e-34
1.2802823e-34
1.2785904e-34
1.2783151e-34
1.2782747e-34
1.2782661e-34
1.2782631e-34
1.2782625e-34
1.2782661e-34
1.2782984e-34
1.2785098e-34
1.2800054e-34
1.2783151e-34
1.2780401e-34
1.2779997e-34
1.2779911e-34
1.2779882e-34
1.2779876e-34
1.2779914e-34
1.2780251e-34
1.2782424e-34
1.2799649e-34
1.2782747e-34
1.2779997e-34
1.2779594e-34
1.2779508e-34
1.2779479e-34
1.2779473e-34
1.2779513e-34
1.2779851e-34
1.2782031e-34
1.2799562e-34
1.2782661e-34
1.2779911e-34
1.2779508e-34
1.2779422e-34
1.2779393e-34
1.2779387e-34
1.2779427e-34
1.2779766e-34
1.2781947e-34
1.2799532e-34
1.2782631e-34
1.2779882e-34
1.2779479e-34
1.2779393e-34
1.2779364e-34
1.2779358e-34
1.2779398e-34
1.2779738e-34
1.2781919e-34
1.2799525e-34
1.2782625e-34
1.2779876e-34
1.2779473e-34
1.2779387e-34
1.2779358e-34
1.2779353e-34
1.2779393e-34
1.2779733e-34
1.2781914e-34
1.2799554e-34
1.2782661e-34
1.2779914e-34
1.2779513e-34
1.2779427e-34
1.2779398e-34
1.2779393e-34
1.2779433e-34
1.2779773e-34
1.2781954e-34
1.2799816e-34
1.2782984e-34
1.2780251e-34
1.2779851e-34
1.2779766e-34
1.2779738e-34
1.2779733e-34
1.2779773e-34
1.2780113e-34
1.2782295e-34
1.2801518e-34
1.2785098e-34
1.2782424e-34
1.2782031e-34
1.2781947e-34
1.2781919e-34
1.2781914e-34
1.2781954e-34
1.2782295e-34
1.2784486e-34
3.6422274e-34
3.6375627e-34
3.6368029e-34
3.6366913e-34
3.6366674e-34
3.6366591e-34
3.636657e-34
3.6366649e-34
3.6367351e-34
3.6371891e-34
3.6375627e-34
3.6329267e-34
3.6321711e-34
3.63206e-34
3.6320362e-34
3.6320279e-34
3.6320261e-34
3.632036e-34
3.6321232e-34
3.6326938e-34
3.6368029e-34
3.6321711e-34
3.6314163e-34
3.6313054e-34
3.6312816e-34
3.6312734e-34
3.6312717e-34
3.6312823e-34
3.6313734e-34
3.6319605e-34
3.6366913e-34
3.63206e-34
3.6313054e-34
3.6311945e-34
3.6311707e-34
3.6311626e-34
3.631161e-34
3.6311717e-34
3.6312635e-34
3.6318525e-34
3.6366674e-34
3.6320362e-34
3.6312816e-34
3.6311707e-34
3.6311469e-34
3.6311388e-34
3.6311373e-34
3.6311481e-34
3.6312401e-34
3.6318293e-34
3.6366591e-34
3.6320279e-34
3.6312734e-34
3.6311626e-34
3.6311388e-34
3.6311308e-34
3.6311293e-34
3.6311402e-34
3.6312322e-34
3.6318214e-34
3.636657e-34
3.6320261e-34
3.6312717e-34
3.631161e-34
3.6311373e-34
3.6311293e-34
3.6311278e-34
3.6311387e-34
3.6312308e-34
3.63182e-34
3.6366649e-34
3.632036e-34
3.6312823e-34
3.6311717e-34
3.6311481e-34
3.6311402e-34
3.6311387e-34
3.6311496e-34
3.6312417e-34
3.631831e-34
3.6367351e-34
3.6321232e-34
3.6313734e-34
3.6312635e-34
3.6312401e-34
3.6312322e-34
3.6312308e-34
3.6312417e-34
3.6313338e-34
3.6319234e-34
3.6371891e-34
3.6326938e-34
3.6319605e-34
3.6318525e-34
3.6318293e-34
3.6318214e-34
3.63182e-34
3.631831e-34
3.6319234e-34
3.6325152e-34
1.0513045e-33
1.0500066e-33
1.0497948e-33
1.0497637e-33
1.049757e-33
1.0497546e-33
1.0497541e-33
1.0497562e-33
1.0497753e-33
1.0498983e-33
1.0500066e-33
1.0487165e-33
1.048506e-33
1.048475e-33
1.0484683e-33
1.048466e-33
1.0484655e-33
1.0484682e-33
1.0484921e-33
1.0486486e-33
1.0497948e-33
1.048506e-33
1.0482957e-33
1.0482647e-33
1.048258e-33
1.0482557e-33
1.0482552e-33
1.0482581e-33
1.0482832e-33
1.0484444e-33
1.0497637e-33
1.048475e-33
1.0482647e-33
1.0482337e-33
1.048227e-33
1.0482248e-33
1.0482243e-33
1.0482273e-33
1.0482525e-33
1.0484142e-33
1.049757e-33
1.0484683e-33
1.048258e-33
1.048227e-33
1.0482204e-33
1.0482181e-33
1.0482177e-33
1.0482207e-33
1.048246e-33
1.0484077e-33
1.0497546e-33
1.048466e-33
1.0482557e-33
1.0482248e-33
1.0482181e-33
1.0482158e-33
1.0482154e-33
1.0482184e-33
1.0482438e-33
1.0484055e-33
1.0497541e-33
1.0484655e-33
1.0482552e-33
1.0482243e-33
1.0482177e-33
1.0482154e-33
1.048215e-33
1.048218e-33
1.0482434e-33
1.0484051e-33
1.0497562e-33
1.0484682e-33
1.0482581e-33
1.0482273e-33
1.0482207e-33
1.0482184e-33
1.048218e-33
1.048221e-33
1.0482464e-33
1.0484081e-33
1.0497753e-33
1.0484921e-33
1.0482832e-33
1.0482525e-33
1.048246e-33
1.0482438e-33
1.0482434e-33
1.0482464e-33
1.0482717e-33
1.0484336e-33
1.0498983e-33
1.0486486e-33
1.0484444e-33
1.0484142e-33
1.0484077e-33
1.0484055e-33
1.0484051e-33
1.0484081e-33
1.0484336e-33
1.048596e-33
3.0830569e-33
3.0793894e-33
3.0787904e-33
3.078702e-33
3.0786829e-33
3.0786762e-33
3.0786745e-33
3.0786805e-33
3.0787332e-33
3.0790718e-33
3.0793894e-33
3.0757442e-33
3.0751484e-33
3.0750604e-33
3.0750414e-33
3.0750348e-33
3.0750333e-33
3.0750409e-33
3.0751078e-33
3.0755435e-33
3.0787904e-33
3.0751484e-33
3.0745533e-33
3.0744654e-33
3.0744463e-33
3.0744398e-33
3.0744385e-33
3.0744466e-33
3.0745168e-33
3.0749661e-33
3.078702e-33
3.0750604e-33
3.0744654e-33
3.0743775e-33
3.0743585e-33
3.074352e-33
3.0743507e-33
3.074359e-33
3.0744298e-33
3.0748807e-33
3.0786829e-33
3.0750414e-33
3.0744463e-33
3.0743585e-33
3.0743395e-33
3.074333e-33
3.0743318e-33
3.0743402e-33
3.074411e-33
3.0748622e-33
3.0786762e-33
3.0750348e-33
3.0744398e-33
3.074352e-33
3.074333e-33
3.0743266e-33
3.0743254e-33
3.0743338e-33
3.0744047e-33
3.0748559e-33
3.0786745e-33
3.0750333e-33
3.0744385e-33
3.0743507e-33
3.0743318e-33
3.0743254e-33
3.0743242e-33
3.0743326e-33
3.0744036e-33
3.0748547e-33
3.0786805e-33
3.0750409e-33
3.0744466e-33
3.074359e-33
3.0743402e-33
3.0743338e-33
3.0743326e-33
3.0743411e-33
3.074412e-33
3.0748632e-33
3.0787332e-33
3.0751078e-33
3.0745168e-33
3.0744298e-33
3.074411e-33
3.0744047e-33
3.0744036e-33
3.074412e-33
3.074483e-33
3.0749344e-33
3.0790718e-33
3.0755435e-33
3.0749661e-33
3.0748807e-33
3.0748622e-33
3.0748559e-33
3.0748547e-33
3.0748632e-33
3.0749344e-33
3.0753875e-33
9.1861921e-33
9.1756686e-33
9.1739473e-33
9.1736927e-33
9.1736375e-33
9.1736183e-33
9.1736133e-33
9.17363e-33
9.1737781e-33
9.1747245e-33
9.1756686e-33
9.1652086e-33
9.1634966e-33
9.1632431e-33
9.1631881e-33
9.163169e-33
9.1631647e-33
9.1631862e-33
9.1633762e-33
9.164609e-33
9.1739473e-33
9.1634966e-33
9.1617863e-33
9.1615332e-33
9.1614782e-33
9.1614593e-33
9.1614553e-33
9.1614785e-33
9.161678e-33
9.1629514e-33
9.1736927e-33
9.1632431e-33
9.1615332e-33
9.1612801e-33
9.1612252e-33
9.1612064e-33
9.1612026e-33
9.1612264e-33
9.1614274e-33
9.1627055e-33
9.1736375e-33
9.1631881e-33
9.1614782e-33
9.1612252e-33
9.1611703e-33
9.1611516e-33
9.161148e-33
9.1611719e-33
9.1613733e-33
9.162652e-33
9.1736183e-33
9.163169e-33
9.1614593e-33
9.1612064e-33
9.1611516e-33
9.1611329e-33
9.1611294e-33
9.1611534e-33
9.161355e-33
9.1626338e-33
9.1736133e-33
9.1631647e-33
9.1614553e-33
9.1612026e-33
9.161148e-33
9.1611294e-33
9.1611259e-33
9.16115e-33
9.1613516e-33
9.1626304e-33
9.17363e-33
9.1631862e-33
9.1614785e-33
9.1612264e-33
9.1611719e-33
9.1611534e-33
9.16115e-33
9.1611742e-33
9.1613758e-33
9.1626547e-33
9.1737781e-33
9.1633762e-33
9.161678e-33
9.1614274e-33
9.1613733e-33
9.161355e-33
9.1613516e-33
9.1613758e-33
9.1615776e-33
9.1628571e-33
9.1747245e-33
9.164609e-33
9.1629514e-33
9.1627055e-33
9.162652e-33
9.1626338e-33
9.1626304e-33
9.1626547e-33
9.1628571e-33
9.164141e-33
2.7809604e-32
2.7778939e-32
2.7773917e-32
2.7773172e-32
2.777301e-32
2.7772954e-32
2.7772939e-32
2.7772987e-32
2.7773409e-32
2.7776095e-32
2.7778939e-32
2.7748459e-32
2.7743463e-32
2.7742722e-32
2.774256e-32
2.7742504e-32
2.7742491e-32
2.7742554e-32
2.7743101e-32
2.7746646e-32
2.7773917e-32
2.7743463e-32
2.7738473e-32
2.7737732e-32
2.7737571e-32
2.7737515e-32
2.7737503e-32
2.7737571e-32
2.7738147e-32
2.7741814e-32
2.7773172e-32
2.7742722e-32
2.7737732e-32
2.7736992e-32
2.7736831e-32
2.7736776e-32
2.7736764e-32
2.7736833e-32
2.7737414e-32
2.7741095e-32
2.777301e-32
2.774256e-32
2.7737571e-32
2.7736831e-32
2.773667e-32
2.7736615e-32
2.7736604e-32
2.7736673e-32
2.7737255e-32
2.7740938e-32
2.7772954e-32
2.7742504e-32
2.7737515e-32
2.7736776e-32
2.7736615e-32
2.773656e-32
2.7736549e-32
2.7736619e-32
2.7737201e-32
2.7740884e-32
2.7772939e-32
2.7742491e-32
2.7737503e-32
2.7736764e-32
2.7736604e-32
2.7736549e-32
2.7736539e-32
2.7736609e-32
2.7737192e-32
2.7740875e-32
2.7772987e-32
2.7742554e-32
2.7737571e-32
2.7736833e-32
2.7736673e-32
2.7736619e-32
2.7736609e-32
2.7736679e-32
2.7737262e-32
2.7740945e-32
2.7773409e-32
2.7743101e-32
2.7738147e-32
2.7737414e-32
2.7737255e-32
2.7737201e-32
2.7737192e-32
2.7737262e-32
2.7737845e-32
2.774153e-32
2.7776095e-32
2.7746646e-32
2.7741814e-32
2.7741095e-32
2.7740938e-32
2.7740884e-32
2.7740875e-32
2.7740945e-32
2.774153e-32
2.7745227e-32
8.5537847e-32
8.5447112e-32
8.543223e-32
8.543002e-32
8.5429536e-32
8.5429368e-32
8.5429324e-32
8.5429462e-32
8.5430684e-32
8.543843e-32
8.5447112e-32
8.5356917e-32
8.5342114e-32
8.5339913e-32
8.5339431e-32
8.5339264e-32
8.5339225e-32
8.5339408e-32
8.5341012e-32
8.5351372e-32
8.543223e-32
8.5342114e-32
8.5327327e-32
8.5325128e-32
8.5324647e-32
8.5324481e-32
8.5324446e-32
8.5324644e-32
8.5326334e-32
8.5337064e-32
8.543002e-32
8.5339913e-32
8.5325128e-32
8.532293e-32
8.5322449e-32
8.5322284e-32
8.5322251e-32
8.5322454e-32
8.5324159e-32
8.5334932e-32
8.5429536e-32
8.5339431e-32
8.5324647e-32
8.5322449e-32
8.5321969e-32
8.5321805e-32
8.5321773e-32
8.5321978e-32
8.5323686e-32
8.5334464e-32
8.5429368e-32
8.5339264e-32
8.5324481e-32
8.5322284e-32
8.5321805e-32
8.5321641e-32
8.532161e-32
8.5321815e-32
8.5323525e-32
8.5334304e-32
8.5429324e-32
8.5339225e-32
8.5324446e-32
8.5322251e-32
8.5321773e-32
8.532161e-32
8.5321579e-32
8.5321785e-32
8.5323495e-32
8.5334275e-32
8.5429462e-32
8.5339408e-32
8.5324644e-32
8.5322454e-32
8.5321978e-32
8.5321815e-32
8.5321785e-32
8.5321991e-32
8.5323702e-32
8.5334482e-32
8.5430684e-32
8.5341012e-32
8.5326334e-32
8.5324159e-32
8.5323686e-32
8.5323525e-32
8.5323495e-32
8.5323702e-32
8.5325413e-32
8.5336198e-32
8.543843e-32
8.5351372e-32
8.5337064e-32
8.5334932e-32
8.5334464e-32
8.5334304e-32
8.5334275e-32
8.5334482e-32
8.5336198e-32
8.534702e-32
2.6731258e-31
2.6703995e-31
2.6699518e-31
2.6698851e-31
2.6698705e-31
2.6698654e-31
2.669864e-31
2.6698681e-31
2.669904e-31
2.6701309e-31
2.6703995e-31
2.6676893e-31
2.6672439e-31
2.6671775e-31
2.667163e-31
2.6671579e-31
2.6671567e-31
2.6671622e-31
2.6672099e-31
2.6675175e-31
2.6699518e-31
2.6672439e-31
2.666799e-31
2.6667327e-31
2.6667181e-31
2.6667131e-31
2.666712e-31
2.666718e-31
2.6667684e-31
2.6670874e-31
2.6698851e-31
2.6671775e-31
2.6667327e-31
2.6666664e-31
2.6666519e-31
2.6666469e-31
2.6666459e-31
2.6666519e-31
2.6667028e-31
2.6670232e-31
2.6698705e-31
2.667163e-31
2.6667181e-31
2.6666519e-31
2.6666374e-31
2.6666324e-31
2.6666314e-31
2.6666375e-31
2.6666885e-31
2.667009e-31
2.6698654e-31
2.6671579e-31
2.6667131e-31
2.6666469e-31
2.6666324e-31
2.6666274e-31
2.6666265e-31
2.6666326e-31
2.6666836e-31
2.6670042e-31
2.669864e-31
2.6671567e-31
2.666712e-31
2.6666459e-31
2.6666314e-31
2.6666265e-31
2.6666255e-31
2.6666317e-31
2.6666827e-31
2.6670033e-31
2.6698681e-31
2.6671622e-31
2.666718e-31
2.6666519e-31
2.6666375e-31
2.6666326e-31
2.6666317e-31
2.6666379e-31
2.6666889e-31
2.6670095e-31
2.669904e-31
2.6672099e-31
2.6667684e-31
2.6667028e-31
2.6666885e-31
2.6666836e-31
2.6666827e-31
2.6666889e-31
2.66674e-31
2.6670607e-31
2.6701309e-31
2.6675175e-31
2.6670874e-31
2.6670232e-31
2.667009e-31
2.6670042e-31
2.6670033e-31
2.6670095e-31
2.6670607e-31
2.6673825e-31
8.4872196e-31
8.4789017e-31
8.477534e-31
8.4773299e-31
8.477285e-31
8.4772693e-31
8.4772651e-31
8.4772773e-31
8.4773847e-31
8.4780593e-31
8.4789017e-31
8.4706328e-31
8.4692721e-31
8.4690689e-31
8.4690241e-31
8.4690085e-31
8.4690049e-31
8.4690214e-31
8.4691658e-31
8.470094e-31
8.477534e-31
8.4692721e-31
8.467913e-31
8.46771e-31
8.4676652e-31
8.4676497e-31
8.4676464e-31
8.4676644e-31
8.4678172e-31
8.4687813e-31
8.4773299e-31
8.4690689e-31
8.46771e-31
8.467507e-31
8.4674623e-31
8.4674469e-31
8.4674438e-31
8.4674623e-31
8.4676165e-31
8.4685847e-31
8.477285e-31
8.4690241e-31
8.4676652e-31
8.4674623e-31
8.4674177e-31
8.4674024e-31
8.4673994e-31
8.467418e-31
8.4675725e-31
8.4685413e-31
8.4772693e-31
8.4690085e-31
8.4676497e-31
8.4674469e-31
8.4674024e-31
8.4673871e-31
8.4673842e-31
8.4674029e-31
8.4675575e-31
8.4685264e-31
8.4772651e-31
8.4690049e-31
8.4676464e-31
8.4674438e-31
8.4673994e-31
8.4673842e-31
8.4673813e-31
8.4674001e-31
8.4675547e-31
8.4685237e-31
8.4772773e-31
8.4690214e-31
8.4676644e-31
8.4674623e-31
8.467418e-31
8.4674029e-31
8.4674001e-31
8.4674189e-31
8.4675736e-31
8.4685426e-31
8.4773847e-31
8.4691658e-31
8.4678172e-31
8.4676165e-31
8.4675725e-31
8.4675575e-31
8.4675547e-31
8.4675736e-31
8.4677284e-31
8.4686978e-31
8.4780593e-31
8.470094e-31
8.4687813e-31
8.4685847e-31
8.4685413e-31
8.4685264e-31
8.4685237e-31
8.4685426e-31
8.4686978e-31
8.4696703e-31
2.737648e-30
2.7350714e-30
2.7346472e-30
2.7345837e-30
2.7345697e-30
2.7345648e-30
2.7345635e-30
2.7345672e-30
2.7345998e-30
2.7348036e-30
2.7350714e-30
2.7325098e-30
2.7320878e-30
2.7320246e-30
2.7320106e-30
2.7320057e-30
2.7320046e-30
2.7320097e-30
2.7320541e-30
2.7323387e-30
2.7346472e-30
2.7320878e-30
2.7316662e-30
2.7316031e-30
2.7315891e-30
2.7315843e-30
2.7315833e-30
2.7315888e-30
2.7316358e-30
2.7319319e-30
2.7345837e-30
2.7320246e-30
2.7316031e-30
2.73154e-30
2.7315261e-30
2.7315213e-30
2.7315203e-30
2.731526e-30
2.7315735e-30
2.7318708e-30
2.7345697e-30
2.7320106e-30
2.7315891e-30
2.7315261e-30
2.7315121e-30
2.7315073e-30
2.7315064e-30
2.7315122e-30
2.7315598e-30
2.7318573e-30
2.7345648e-30
2.7320057e-30
2.7315843e-30
2.7315213e-30
2.7315073e-30
2.7315026e-30
2.7315017e-30
2.7315075e-30
2.7315551e-30
2.7318526e-30
2.7345635e-30
2.7320046e-30
2.7315833e-30
2.7315203e-30
2.7315064e-30
2.7315017e-30
2.7315008e-30
2.7315066e-30
2.7315542e-30
2.7318518e-30
2.7345672e-30
2.7320097e-30
2.7315888e-30
2.731526e-30
2.7315122e-30
2.7315075e-30
2.7315066e-30
2.7315124e-30
2.73156e-30
2.7318576e-30
2.7345998e-30
2.7320541e-30
2.7316358e-30
2.7315735e-30
2.7315598e-30
2.7315551e-30
2.7315542e-30
2.73156e-30
2.7316077e-30
2.7319054e-30
2.7348036e-30
2.7323387e-30
2.7319319e-30
2.7318708e-30
2.7318573e-30
2.7318526e-30
2.7318518e-30
2.7318576e-30
2.7319054e-30
2.7322041e-30
8.9707867e-30
8.9626833e-30
8.9613475e-30
8.9611474e-30
8.961103e-30
8.9610874e-30
8.9610833e-30
8.9610947e-30
8.9611952e-30
8.9618203e-30
8.9626833e-30
8.9546269e-30
8.953298e-30
8.9530987e-30
8.9530545e-30
8.953039e-30
8.9530354e-30
8.9530513e-30
8.9531898e-30
8.9540764e-30
8.9613475e-30
8.953298e-30
8.9519705e-30
8.9517714e-30
8.9517272e-30
8.9517119e-30
8.9517086e-30
8.951726e-30
8.9518732e-30
8.9527968e-30
8.9611474e-30
8.9530987e-30
8.9517714e-30
8.9515723e-30
8.9515282e-30
8.951513e-30
8.9515099e-30
8.9515278e-30
8.9516764e-30
8.9526043e-30
8.961103e-30
8.9530545e-30
8.9517272e-30
8.9515282e-30
8.9514841e-30
8.9514689e-30
8.951466e-30
8.9514841e-30
8.951633e-30
8.9525614e-30
8.9610874e-30
8.953039e-30
8.9517119e-30
8.951513e-30
8.9514689e-30
8.9514538e-30
8.9514509e-30
8.9514691e-30
8.9516182e-30
8.9525467e-30
8.9610833e-30
8.9530354e-30
8.9517086e-30
8.9515099e-30
8.951466e-30
8.9514509e-30
8.9514481e-30
8.9514663e-30
8.9516154e-30
8.952544e-30
8.9610947e-30
8.9530513e-30
8.951726e-30
8.9515278e-30
8.9514841e-30
8.9514691e-30
8.9514663e-30
8.9514846e-30
8.9516337e-30
8.9525623e-30
8.9611952e-30
8.9531898e-30
8.9518732e-30
8.9516764e-30
8.951633e-30
8.9516182e-30
8.9516154e-30
8.9516337e-30
8.951783e-30
8.9527119e-30
8.9618203e-30
8.9540764e-30
8.9527968e-30
8.9526043e-30
8.9525614e-30
8.9525467e-30
8.952544e-30
8.9525623e-30
8.9527119e-30
8.9536438e-30
2.9860147e-29
2.9834276e-29
2.9830007e-29
2.9829365e-29
2.9829223e-29
2.9829173e-29
2.9829159e-29
2.9829195e-29
2.9829509e-29
2.9831457e-29
2.9834276e-29
2.9808555e-29
2.9804307e-29
2.9803668e-29
2.9803526e-29
2.9803476e-29
2.9803465e-29
2.9803515e-29
2.9803955e-29
2.9806761e-29
2.9830007e-29
2.9804307e-29
2.9800063e-29
2.9799426e-29
2.9799284e-29
2.9799234e-29
2.9799224e-29
2.9799279e-29
2.9799747e-29
2.9802675e-29
2.9829365e-29
2.9803668e-29
2.9799426e-29
2.9798788e-29
2.9798646e-29
2.9798597e-29
2.9798587e-29
2.9798644e-29
2.9799117e-29
2.9802059e-29
2.9829223e-29
2.9803526e-29
2.9799284e-29
2.9798646e-29
2.9798504e-29
2.9798456e-29
2.9798446e-29
2.9798504e-29
2.9798978e-29
2.9801921e-29
2.9829173e-29
2.9803476e-29
2.9799234e-29
2.9798597e-29
2.9798456e-29
2.9798407e-29
2.9798398e-29
2.9798456e-29
2.979893e-29
2.9801874e-29
2.9829159e-29
2.9803465e-29
2.9799224e-29
2.9798587e-29
2.9798446e-29
2.9798398e-29
2.9798388e-29
2.9798447e-29
2.9798921e-29
2.9801865e-29
2.9829195e-29
2.9803515e-29
2.9799279e-29
2.9798644e-29
2.9798504e-29
2.9798456e-29
2.9798447e-29
2.9798505e-29
2.9798979e-29
2.9801923e-29
2.9829509e-29
2.9803955e-29
2.9799747e-29
2.9799117e-29
2.9798978e-29
2.979893e-29
2.9798921e-29
2.9798979e-29
2.9799454e-29
2.9802399e-29
2.9831457e-29
2.9806761e-29
2.9802675e-29
2.9802059e-29
2.9801921e-29
2.9801874e-29
2.9801865e-29
2.9801923e-29