/*--------------------------------*- C++ -*----------------------------------*\
| =========                 |                                                 |
| \\      /  F ield         | OpenFOAM: The Open Source CFD Toolbox           |
|  \\    /   O peration     | Version:  dev                                   |
|   \\  /    A nd           | Web:      www.OpenFOAM.org                      |
|    \\/     M anipulation  |                                                 |
\*---------------------------------------------------------------------------*/
FoamFile
{
    version     2.0;
    format      ascii;
    class       volScalarField;
    location    "57.995";
    object      A;
}
// * * * * * * * * * * * * * * * * * * * * * * * * * * * * * * * * * * * * * //

dimensions      [0 0 0 0 1 0 0];

internalField   nonuniform List<scalar> 
10000
(
4.6469774e-30
4.6387449e-30
4.6349547e-30
4.633292e-30
4.6326391e-30
4.6324285e-30
4.6324278e-30
4.632614e-30
4.6331439e-30
4.6343664e-30
4.6387449e-30
4.6305525e-30
4.6267756e-30
4.6251181e-30
4.6244674e-30
4.624259e-30
4.6242636e-30
4.6244651e-30
4.6250405e-30
4.6264006e-30
4.6349547e-30
4.6267756e-30
4.6230058e-30
4.6213514e-30
4.6207025e-30
4.6204963e-30
4.6205062e-30
4.620721e-30
4.6213247e-30
4.6227295e-30
4.633292e-30
4.6251181e-30
4.6213514e-30
4.6196987e-30
4.6190509e-30
4.6188462e-30
4.6188595e-30
4.6190816e-30
4.6196985e-30
4.6211182e-30
4.6326391e-30
4.6244674e-30
4.6207025e-30
4.6190509e-30
4.6184039e-30
4.6182e-30
4.618215e-30
4.6184404e-30
4.6190623e-30
4.6204869e-30
4.6324285e-30
4.624259e-30
4.6204963e-30
4.6188462e-30
4.6182e-30
4.6179967e-30
4.6180124e-30
4.6182391e-30
4.6188629e-30
4.620289e-30
4.6324278e-30
4.6242636e-30
4.6205062e-30
4.6188595e-30
4.618215e-30
4.6180124e-30
4.6180286e-30
4.6182558e-30
4.6188803e-30
4.6203069e-30
4.632614e-30
4.6244651e-30
4.620721e-30
4.6190816e-30
4.6184404e-30
4.6182391e-30
4.6182558e-30
4.6184834e-30
4.6191082e-30
4.6205353e-30
4.6331439e-30
4.6250405e-30
4.6213247e-30
4.6196985e-30
4.6190623e-30
4.6188629e-30
4.6188803e-30
4.6191082e-30
4.6197337e-30
4.621162e-30
4.6343664e-30
4.6264006e-30
4.6227295e-30
4.6211182e-30
4.6204869e-30
4.620289e-30
4.6203069e-30
4.6205353e-30
4.621162e-30
4.6225946e-30
1.6331613e-29
1.630375e-29
1.6290597e-29
1.6284815e-29
1.6282543e-29
1.6281809e-29
1.6281806e-29
1.6282451e-29
1.6284289e-29
1.6288697e-29
1.630375e-29
1.6276019e-29
1.6262911e-29
1.6257146e-29
1.6254882e-29
1.6254156e-29
1.6254171e-29
1.625487e-29
1.6256868e-29
1.6261761e-29
1.6290597e-29
1.6262911e-29
1.6249828e-29
1.6244074e-29
1.6241816e-29
1.6241098e-29
1.6241132e-29
1.6241876e-29
1.6243974e-29
1.6249024e-29
1.6284815e-29
1.6257146e-29
1.6244074e-29
1.6238326e-29
1.6236072e-29
1.6235359e-29
1.6235405e-29
1.6236176e-29
1.6238319e-29
1.6243421e-29
1.6282543e-29
1.6254882e-29
1.6241816e-29
1.6236072e-29
1.623382e-29
1.623311e-29
1.6233162e-29
1.6233944e-29
1.6236105e-29
1.6241225e-29
1.6281809e-29
1.6254156e-29
1.6241098e-29
1.6235359e-29
1.623311e-29
1.6232403e-29
1.6232457e-29
1.6233243e-29
1.6235411e-29
1.6240536e-29
1.6281806e-29
1.6254171e-29
1.6241132e-29
1.6235405e-29
1.6233162e-29
1.6232457e-29
1.6232512e-29
1.6233301e-29
1.6235471e-29
1.6240597e-29
1.6282451e-29
1.625487e-29
1.6241876e-29
1.6236176e-29
1.6233944e-29
1.6233243e-29
1.6233301e-29
1.6234091e-29
1.6236262e-29
1.624139e-29
1.6284289e-29
1.6256868e-29
1.6243974e-29
1.6238319e-29
1.6236105e-29
1.6235411e-29
1.6235471e-29
1.6236262e-29
1.6238435e-29
1.6243568e-29
1.6288697e-29
1.6261761e-29
1.6249024e-29
1.6243421e-29
1.6241225e-29
1.6240536e-29
1.6240597e-29
1.624139e-29
1.6243568e-29
1.6248716e-29
3.6681106e-29
3.6620524e-29
3.6591601e-29
3.6578856e-29
3.6573842e-29
3.6572221e-29
3.657221e-29
3.6573621e-29
3.6577644e-29
3.6587583e-29
3.6620524e-29
3.6560225e-29
3.6531401e-29
3.6518693e-29
3.6513696e-29
3.6512093e-29
3.6512123e-29
3.6513653e-29
3.6518034e-29
3.652906e-29
3.6591601e-29
3.6531401e-29
3.6502629e-29
3.6489946e-29
3.6484962e-29
3.6483376e-29
3.6483447e-29
3.6485082e-29
3.6489684e-29
3.6501061e-29
3.6578856e-29
3.6518693e-29
3.6489946e-29
3.6477275e-29
3.64723e-29
3.6470725e-29
3.6470823e-29
3.6472515e-29
3.647722e-29
3.6488714e-29
3.6573842e-29
3.6513696e-29
3.6484962e-29
3.64723e-29
3.646733e-29
3.6465762e-29
3.6465873e-29
3.6467591e-29
3.6472336e-29
3.6483868e-29
3.6572221e-29
3.6512093e-29
3.6483376e-29
3.6470725e-29
3.6465762e-29
3.6464199e-29
3.6464316e-29
3.6466043e-29
3.6470803e-29
3.6482347e-29
3.657221e-29
3.6512123e-29
3.6483447e-29
3.6470823e-29
3.6465873e-29
3.6464316e-29
3.6464437e-29
3.6466168e-29
3.6470933e-29
3.6482481e-29
3.6573621e-29
3.6513653e-29
3.6485082e-29
3.6472515e-29
3.6467591e-29
3.6466043e-29
3.6466168e-29
3.6467902e-29
3.647267e-29
3.6484221e-29
3.6577644e-29
3.6518034e-29
3.6489684e-29
3.647722e-29
3.6472336e-29
3.6470803e-29
3.6470933e-29
3.647267e-29
3.6477442e-29
3.6489003e-29
3.6587583e-29
3.652906e-29
3.6501061e-29
3.6488714e-29
3.6483868e-29
3.6482347e-29
3.6482481e-29
3.6484221e-29
3.6489003e-29
3.65006e-29
7.7094544e-29
7.697125e-29
7.6912011e-29
7.6885844e-29
7.6875537e-29
7.68722e-29
7.6872168e-29
7.6875035e-29
7.6883198e-29
7.6903476e-29
7.697125e-29
7.6848527e-29
7.6789486e-29
7.6763395e-29
7.6753122e-29
7.674982e-29
7.6749874e-29
7.6752993e-29
7.6761901e-29
7.6784457e-29
7.6912011e-29
7.6789486e-29
7.6730553e-29
7.670451e-29
7.6694264e-29
7.6690999e-29
7.669114e-29
7.6694474e-29
7.6703847e-29
7.6727135e-29
7.6885844e-29
7.6763395e-29
7.670451e-29
7.6678495e-29
7.6668266e-29
7.6665025e-29
7.6665221e-29
7.6668675e-29
7.6678262e-29
7.6701794e-29
7.6875537e-29
7.6753122e-29
7.6694264e-29
7.6668266e-29
7.6658049e-29
7.6654822e-29
7.6655045e-29
7.6658553e-29
7.6668223e-29
7.6691835e-29
7.68722e-29
7.674982e-29
7.6690999e-29
7.6665025e-29
7.6654822e-29
7.6651604e-29
7.6651839e-29
7.6655368e-29
7.6665068e-29
7.6688706e-29
7.6872168e-29
7.6749874e-29
7.669114e-29
7.6665221e-29
7.6655045e-29
7.6651839e-29
7.6652082e-29
7.6655619e-29
7.666533e-29
7.6688976e-29
7.6875035e-29
7.6752993e-29
7.6694474e-29
7.6668675e-29
7.6658553e-29
7.6655368e-29
7.6655619e-29
7.6659162e-29
7.6668879e-29
7.6692532e-29
7.6883198e-29
7.6761901e-29
7.6703847e-29
7.6678262e-29
7.6668223e-29
7.6665068e-29
7.666533e-29
7.6668879e-29
7.6678605e-29
7.6702278e-29
7.6903476e-29
7.6784457e-29
7.6727135e-29
7.6701794e-29
7.6691835e-29
7.6688706e-29
7.6688976e-29
7.6692532e-29
7.6702278e-29
7.6726024e-29
1.6114784e-28
1.6089836e-28
1.6077795e-28
1.6072465e-28
1.6070362e-28
1.606968e-28
1.6069672e-28
1.6070249e-28
1.6071888e-28
1.6075943e-28
1.6089836e-28
1.6065003e-28
1.6053002e-28
1.6047686e-28
1.604559e-28
1.6044916e-28
1.6044925e-28
1.6045555e-28
1.6047349e-28
1.6051877e-28
1.6077795e-28
1.6053002e-28
1.6041022e-28
1.6035717e-28
1.6033626e-28
1.6032959e-28
1.6032986e-28
1.6033661e-28
1.6035551e-28
1.6040232e-28
1.6072465e-28
1.6047686e-28
1.6035717e-28
1.6030416e-28
1.6028329e-28
1.6027667e-28
1.6027706e-28
1.6028406e-28
1.603034e-28
1.6035071e-28
1.6070362e-28
1.604559e-28
1.6033626e-28
1.6028329e-28
1.6026245e-28
1.6025586e-28
1.602563e-28
1.6026341e-28
1.6028292e-28
1.6033041e-28
1.606968e-28
1.6044916e-28
1.6032959e-28
1.6027667e-28
1.6025586e-28
1.6024929e-28
1.6024975e-28
1.602569e-28
1.6027648e-28
1.6032402e-28
1.6069672e-28
1.6044925e-28
1.6032986e-28
1.6027706e-28
1.602563e-28
1.6024975e-28
1.6025024e-28
1.6025741e-28
1.6027701e-28
1.6032456e-28
1.6070249e-28
1.6045555e-28
1.6033661e-28
1.6028406e-28
1.6026341e-28
1.602569e-28
1.6025741e-28
1.6026458e-28
1.602842e-28
1.6033176e-28
1.6071888e-28
1.6047349e-28
1.6035551e-28
1.603034e-28
1.6028292e-28
1.6027648e-28
1.6027701e-28
1.602842e-28
1.6030383e-28
1.6035143e-28
1.6075943e-28
1.6051877e-28
1.6040232e-28
1.6035071e-28
1.6033041e-28
1.6032402e-28
1.6032456e-28
1.6033176e-28
1.6035143e-28
1.6039919e-28
3.3962425e-28
3.3911549e-28
3.3886899e-28
3.3875962e-28
3.3871641e-28
3.3870238e-28
3.3870217e-28
3.3871389e-28
3.3874699e-28
3.3882829e-28
3.3911549e-28
3.3860903e-28
3.3836334e-28
3.3825426e-28
3.382112e-28
3.3819732e-28
3.3819748e-28
3.3821029e-28
3.3824663e-28
3.3833786e-28
3.3886899e-28
3.3836334e-28
3.3811807e-28
3.380092e-28
3.3796625e-28
3.3795253e-28
3.3795306e-28
3.3796681e-28
3.3800516e-28
3.3809959e-28
3.3875962e-28
3.3825426e-28
3.380092e-28
3.3790044e-28
3.3785756e-28
3.3784395e-28
3.3784472e-28
3.3785898e-28
3.3789827e-28
3.3799375e-28
3.3871641e-28
3.382112e-28
3.3796625e-28
3.3785756e-28
3.3781474e-28
3.3780118e-28
3.3780206e-28
3.3781656e-28
3.3785621e-28
3.3795204e-28
3.3870238e-28
3.3819732e-28
3.3795253e-28
3.3784395e-28
3.3780118e-28
3.3778766e-28
3.377886e-28
3.3780319e-28
3.3784296e-28
3.379389e-28
3.3870217e-28
3.3819748e-28
3.3795306e-28
3.3784472e-28
3.3780206e-28
3.377886e-28
3.3778957e-28
3.378042e-28
3.3784402e-28
3.3794e-28
3.3871389e-28
3.3821029e-28
3.3796681e-28
3.3785898e-28
3.3781656e-28
3.3780319e-28
3.378042e-28
3.3781884e-28
3.3785869e-28
3.379547e-28
3.3874699e-28
3.3824663e-28
3.3800516e-28
3.3789827e-28
3.3785621e-28
3.3784296e-28
3.3784402e-28
3.3785869e-28
3.3789858e-28
3.3799466e-28
3.3882829e-28
3.3833786e-28
3.3809959e-28
3.3799375e-28
3.3795204e-28
3.379389e-28
3.3794e-28
3.379547e-28
3.3799466e-28
3.3809104e-28
7.2404081e-28
7.2299172e-28
7.2248158e-28
7.2225473e-28
7.2216499e-28
7.2213582e-28
7.2213529e-28
7.2215932e-28
7.2222689e-28
7.2239145e-28
7.2299172e-28
7.2194733e-28
7.2143883e-28
7.212126e-28
7.2112315e-28
7.2109429e-28
7.2109454e-28
7.2112089e-28
7.2119532e-28
7.2138094e-28
7.2248158e-28
7.2143883e-28
7.209312e-28
7.2070539e-28
7.2061618e-28
7.2058765e-28
7.2058869e-28
7.2061701e-28
7.206957e-28
7.2088807e-28
7.2225473e-28
7.212126e-28
7.2070539e-28
7.204798e-28
7.2039074e-28
7.2036243e-28
7.2036398e-28
7.203934e-28
7.2047404e-28
7.2066866e-28
7.2216499e-28
7.2112315e-28
7.2061618e-28
7.2039074e-28
7.2030179e-28
7.202736e-28
7.2027539e-28
7.203053e-28
7.2038672e-28
7.2058208e-28
7.2213582e-28
7.2109429e-28
7.2058765e-28
7.2036243e-28
7.202736e-28
7.202455e-28
7.202474e-28
7.2027751e-28
7.2035919e-28
7.2055478e-28
7.2213529e-28
7.2109454e-28
7.2058869e-28
7.2036398e-28
7.2027539e-28
7.202474e-28
7.2024938e-28
7.2027956e-28
7.2036134e-28
7.2055701e-28
7.2215932e-28
7.2112089e-28
7.2061701e-28
7.203934e-28
7.203053e-28
7.2027751e-28
7.2027956e-28
7.2030978e-28
7.2039162e-28
7.2058734e-28
7.2222689e-28
7.2119532e-28
7.206957e-28
7.2047404e-28
7.2038672e-28
7.2035919e-28
7.2036134e-28
7.2039162e-28
7.2047353e-28
7.2066941e-28
7.2239145e-28
7.2138094e-28
7.2088807e-28
7.2066866e-28
7.2058208e-28
7.2055478e-28
7.2055701e-28
7.2058734e-28
7.2066941e-28
7.2086588e-28
1.5626772e-27
1.5604881e-27
1.5594198e-27
1.5589437e-27
1.5587552e-27
1.5586938e-27
1.5586925e-27
1.5587424e-27
1.5588819e-27
1.5592189e-27
1.5604881e-27
1.5583087e-27
1.5572438e-27
1.556769e-27
1.556581e-27
1.5565203e-27
1.5565207e-27
1.5565755e-27
1.5567298e-27
1.5571119e-27
1.5594198e-27
1.5572438e-27
1.5561807e-27
1.5557068e-27
1.5555193e-27
1.5554593e-27
1.5554614e-27
1.5555204e-27
1.5556838e-27
1.5560804e-27
1.5589437e-27
1.556769e-27
1.5557068e-27
1.5552334e-27
1.5550462e-27
1.5549867e-27
1.5549898e-27
1.5550512e-27
1.5552188e-27
1.5556202e-27
1.5587552e-27
1.556581e-27
1.5555193e-27
1.5550462e-27
1.5548593e-27
1.5548e-27
1.5548037e-27
1.5548661e-27
1.5550353e-27
1.5554383e-27
1.5586938e-27
1.5565203e-27
1.5554593e-27
1.5549867e-27
1.5548e-27
1.5547409e-27
1.5547448e-27
1.5548077e-27
1.5549774e-27
1.5553809e-27
1.5586925e-27
1.5565207e-27
1.5554614e-27
1.5549898e-27
1.5548037e-27
1.5547448e-27
1.5547489e-27
1.5548119e-27
1.5549819e-27
1.5553855e-27
1.5587424e-27
1.5565755e-27
1.5555204e-27
1.5550512e-27
1.5548661e-27
1.5548077e-27
1.5548119e-27
1.554875e-27
1.5550451e-27
1.5554489e-27
1.5588819e-27
1.5567298e-27
1.5556838e-27
1.5552188e-27
1.5550353e-27
1.5549774e-27
1.5549819e-27
1.5550451e-27
1.5552154e-27
1.5556195e-27
1.5592189e-27
1.5571119e-27
1.5560804e-27
1.5556202e-27
1.5554383e-27
1.5553809e-27
1.5553855e-27
1.5554489e-27
1.5556195e-27
1.5560247e-27
3.415234e-27
3.4106106e-27
3.4083464e-27
3.4073353e-27
3.4069343e-27
3.4068036e-27
3.4068005e-27
3.4069053e-27
3.4071971e-27
3.4078955e-27
3.4106106e-27
3.4060073e-27
3.4037503e-27
3.4027419e-27
3.4023421e-27
3.4022128e-27
3.4022133e-27
3.4023289e-27
3.4026525e-27
3.4034489e-27
3.4083464e-27
3.4037503e-27
3.401497e-27
3.4004904e-27
3.4000917e-27
3.3999639e-27
3.3999681e-27
3.4000928e-27
3.4004362e-27
3.4012639e-27
3.4073353e-27
3.4027419e-27
3.4004904e-27
3.3994848e-27
3.3990868e-27
3.39896e-27
3.3989665e-27
3.3990963e-27
3.3994488e-27
3.4002869e-27
3.4069343e-27
3.4023421e-27
3.4000917e-27
3.3990868e-27
3.3986892e-27
3.398563e-27
3.3985706e-27
3.3987027e-27
3.3990587e-27
3.3999003e-27
3.4068036e-27
3.4022128e-27
3.3999639e-27
3.39896e-27
3.398563e-27
3.3984371e-27
3.3984453e-27
3.3985783e-27
3.3989356e-27
3.3997782e-27
3.4068005e-27
3.4022133e-27
3.3999681e-27
3.3989665e-27
3.3985706e-27
3.3984453e-27
3.3984538e-27
3.3985871e-27
3.3989449e-27
3.3997879e-27
3.4069053e-27
3.4023289e-27
3.4000928e-27
3.3990963e-27
3.3987027e-27
3.3985783e-27
3.3985871e-27
3.3987206e-27
3.3990786e-27
3.3999219e-27
3.4071971e-27
3.4026525e-27
3.4004362e-27
3.3994488e-27
3.3990587e-27
3.3989356e-27
3.3989449e-27
3.3990786e-27
3.3994369e-27
3.4002808e-27
3.4078955e-27
3.4034489e-27
3.4012639e-27
3.4002869e-27
3.3999003e-27
3.3997782e-27
3.3997879e-27
3.3999219e-27
3.4002808e-27
3.4011272e-27
7.5589491e-27
7.5490643e-27
7.544207e-27
7.5420334e-27
7.5411701e-27
7.5408883e-27
7.540881e-27
7.5411041e-27
7.5417218e-27
7.543187e-27
7.5490643e-27
7.5392223e-27
7.5343799e-27
7.532212e-27
7.5313514e-27
7.5310727e-27
7.5310733e-27
7.5313199e-27
7.5320076e-27
7.533688e-27
7.544207e-27
7.5343799e-27
7.5295456e-27
7.5273816e-27
7.5265233e-27
7.5262478e-27
7.5262565e-27
7.5265231e-27
7.5272541e-27
7.5290034e-27
7.5420334e-27
7.532212e-27
7.5273816e-27
7.5252196e-27
7.5243628e-27
7.5240896e-27
7.5241033e-27
7.524381e-27
7.5251319e-27
7.5269041e-27
7.5411701e-27
7.5313514e-27
7.5265233e-27
7.5243628e-27
7.523507e-27
7.523235e-27
7.5232512e-27
7.5235339e-27
7.5242926e-27
7.5260723e-27
7.5408883e-27
7.5310727e-27
7.5262478e-27
7.5240896e-27
7.523235e-27
7.5229639e-27
7.5229813e-27
7.5232659e-27
7.5240273e-27
7.5258094e-27
7.540881e-27
7.5310733e-27
7.5262565e-27
7.5241033e-27
7.5232512e-27
7.5229813e-27
7.5229993e-27
7.5232847e-27
7.524047e-27
7.5258299e-27
7.5411041e-27
7.5313199e-27
7.5265231e-27
7.524381e-27
7.5235339e-27
7.5232659e-27
7.5232847e-27
7.5235705e-27
7.5243334e-27
7.5261169e-27
7.5417218e-27
7.5320076e-27
7.5272541e-27
7.5251319e-27
7.5242926e-27
7.5240273e-27
7.524047e-27
7.5243334e-27
7.525097e-27
7.5268818e-27
7.543187e-27
7.533688e-27
7.5290034e-27
7.5269041e-27
7.5260723e-27
7.5258094e-27
7.5258299e-27
7.5261169e-27
7.5268818e-27
7.5286717e-27
1.6944216e-26
1.6922822e-26
1.6912274e-26
1.6907544e-26
1.6905663e-26
1.6905048e-26
1.6905031e-26
1.6905512e-26
1.6906836e-26
1.6909948e-26
1.6922822e-26
1.690152e-26
1.6891004e-26
1.6886286e-26
1.6884411e-26
1.6883803e-26
1.6883803e-26
1.6884336e-26
1.6885816e-26
1.6889407e-26
1.6912274e-26
1.6891004e-26
1.6880505e-26
1.6875796e-26
1.6873925e-26
1.6873325e-26
1.6873343e-26
1.687392e-26
1.6875496e-26
1.687924e-26
1.6907544e-26
1.6886286e-26
1.6875796e-26
1.6871091e-26
1.6869224e-26
1.6868628e-26
1.6868657e-26
1.6869259e-26
1.6870879e-26
1.6874674e-26
1.6905663e-26
1.6884411e-26
1.6873925e-26
1.6869224e-26
1.6867359e-26
1.6866766e-26
1.6866801e-26
1.6867414e-26
1.6869051e-26
1.6872862e-26
1.6905048e-26
1.6883803e-26
1.6873325e-26
1.6868628e-26
1.6866766e-26
1.6866175e-26
1.6866212e-26
1.6866829e-26
1.6868472e-26
1.6872289e-26
1.6905031e-26
1.6883803e-26
1.6873343e-26
1.6868657e-26
1.6866801e-26
1.6866212e-26
1.6866251e-26
1.686687e-26
1.6868515e-26
1.6872334e-26
1.6905512e-26
1.6884336e-26
1.687392e-26
1.6869259e-26
1.6867414e-26
1.6866829e-26
1.686687e-26
1.686749e-26
1.6869136e-26
1.6872956e-26
1.6906836e-26
1.6885816e-26
1.6875496e-26
1.6870879e-26
1.6869051e-26
1.6868472e-26
1.6868515e-26
1.6869136e-26
1.6870784e-26
1.6874607e-26
1.6909948e-26
1.6889407e-26
1.687924e-26
1.6874674e-26
1.6872862e-26
1.6872289e-26
1.6872334e-26
1.6872956e-26
1.6874607e-26
1.687844e-26
3.847015e-26
3.8423275e-26
3.8400086e-26
3.8389667e-26
3.8385518e-26
3.8384161e-26
3.8384119e-26
3.8385168e-26
3.8388042e-26
3.8394736e-26
3.8423275e-26
3.8376599e-26
3.8353479e-26
3.8343086e-26
3.833895e-26
3.8337608e-26
3.8337606e-26
3.8338772e-26
3.8341996e-26
3.8349768e-26
3.8400086e-26
3.8353479e-26
3.8330397e-26
3.8320022e-26
3.8315897e-26
3.8314571e-26
3.8314609e-26
3.8315875e-26
3.8319315e-26
3.8327431e-26
3.8389667e-26
3.8343086e-26
3.8320022e-26
3.8309658e-26
3.830554e-26
3.8304225e-26
3.8304288e-26
3.8305609e-26
3.8309148e-26
3.8317379e-26
3.8385518e-26
3.833895e-26
3.8315897e-26
3.830554e-26
3.8301427e-26
3.8300118e-26
3.8300194e-26
3.8301539e-26
3.8305117e-26
3.8313385e-26
3.8384161e-26
3.8337608e-26
3.8314571e-26
3.8304225e-26
3.8300118e-26
3.8298813e-26
3.8298894e-26
3.830025e-26
3.8303841e-26
3.8312121e-26
3.8384119e-26
3.8337606e-26
3.8314609e-26
3.8304288e-26
3.8300194e-26
3.8298894e-26
3.8298979e-26
3.8300338e-26
3.8303934e-26
3.8312218e-26
3.8385168e-26
3.8338772e-26
3.8315875e-26
3.8305609e-26
3.8301539e-26
3.830025e-26
3.8300338e-26
3.83017e-26
3.8305298e-26
3.8313585e-26
3.8388042e-26
3.8341996e-26
3.8319315e-26
3.8309148e-26
3.8305117e-26
3.8303841e-26
3.8303934e-26
3.8305298e-26
3.83089e-26
3.8317193e-26
3.8394736e-26
3.8349768e-26
3.8327431e-26
3.8317379e-26
3.8313385e-26
3.8312121e-26
3.8312218e-26
3.8313585e-26
3.8317193e-26
3.8325508e-26
8.8468255e-26
8.8364276e-26
8.8312668e-26
8.8289436e-26
8.8280173e-26
8.8277139e-26
8.827704e-26
8.8279357e-26
8.8285676e-26
8.8300255e-26
8.8364276e-26
8.8260735e-26
8.8209279e-26
8.8186104e-26
8.8176869e-26
8.8173869e-26
8.817386e-26
8.8176444e-26
8.8183558e-26
8.8200593e-26
8.8312668e-26
8.8209279e-26
8.8157907e-26
8.8134772e-26
8.8125562e-26
8.8122598e-26
8.812268e-26
8.812549e-26
8.8133096e-26
8.8150916e-26
8.8289436e-26
8.8186104e-26
8.8134772e-26
8.8111659e-26
8.8102465e-26
8.8099526e-26
8.8099665e-26
8.8102601e-26
8.8110432e-26
8.8128513e-26
8.8280173e-26
8.8176869e-26
8.8125562e-26
8.8102465e-26
8.8093282e-26
8.8090357e-26
8.8090524e-26
8.8093516e-26
8.8101436e-26
8.8119601e-26
8.8277139e-26
8.8173869e-26
8.8122598e-26
8.8099526e-26
8.8090357e-26
8.8087442e-26
8.8087622e-26
8.8090636e-26
8.8098586e-26
8.8116779e-26
8.827704e-26
8.817386e-26
8.812268e-26
8.8099665e-26
8.8090524e-26
8.8087622e-26
8.808781e-26
8.8090833e-26
8.8098794e-26
8.8116995e-26
8.8279357e-26
8.8176444e-26
8.812549e-26
8.8102601e-26
8.8093516e-26
8.8090636e-26
8.8090833e-26
8.8093861e-26
8.8101827e-26
8.8120034e-26
8.8285676e-26
8.8183558e-26
8.8133096e-26
8.8110432e-26
8.8101436e-26
8.8098586e-26
8.8098794e-26
8.8101827e-26
8.8109802e-26
8.8128022e-26
8.8300255e-26
8.8200593e-26
8.8150916e-26
8.8128513e-26
8.8119601e-26
8.8116779e-26
8.8116995e-26
8.8120034e-26
8.8128022e-26
8.8146292e-26
2.0607575e-25
2.0584224e-25
2.0572597e-25
2.0567353e-25
2.0565259e-25
2.0564573e-25
2.0564549e-25
2.0565067e-25
2.0566474e-25
2.056969e-25
2.0584224e-25
2.0560971e-25
2.0549377e-25
2.0544146e-25
2.0542058e-25
2.054138e-25
2.0541377e-25
2.0541957e-25
2.0543547e-25
2.0547329e-25
2.0572597e-25
2.0549377e-25
2.0537803e-25
2.053258e-25
2.0530498e-25
2.0529828e-25
2.0529846e-25
2.0530478e-25
2.0532181e-25
2.0536144e-25
2.0567353e-25
2.0544146e-25
2.053258e-25
2.0527362e-25
2.0525284e-25
2.0524619e-25
2.052465e-25
2.0525311e-25
2.0527067e-25
2.053109e-25
2.0565259e-25
2.0542058e-25
2.0530498e-25
2.0525284e-25
2.0523209e-25
2.0522547e-25
2.0522585e-25
2.0523259e-25
2.0525034e-25
2.0529077e-25
2.0564573e-25
2.054138e-25
2.0529828e-25
2.0524619e-25
2.0522547e-25
2.0521888e-25
2.0521928e-25
2.0522607e-25
2.052439e-25
2.0528439e-25
2.0564549e-25
2.0541377e-25
2.0529846e-25
2.052465e-25
2.0522585e-25
2.0521928e-25
2.0521971e-25
2.0522652e-25
2.0524437e-25
2.0528487e-25
2.0565067e-25
2.0541957e-25
2.0530478e-25
2.0525311e-25
2.0523259e-25
2.0522607e-25
2.0522652e-25
2.0523334e-25
2.052512e-25
2.0529172e-25
2.0566474e-25
2.0543547e-25
2.0532181e-25
2.0527067e-25
2.0525034e-25
2.052439e-25
2.0524437e-25
2.052512e-25
2.0526908e-25
2.0530963e-25
2.056969e-25
2.0547329e-25
2.0536144e-25
2.053109e-25
2.0529077e-25
2.0528439e-25
2.0528487e-25
2.0529172e-25
2.0530963e-25
2.0535029e-25
4.86242e-25
4.8571109e-25
4.854459e-25
4.8532605e-25
4.8527816e-25
4.8526243e-25
4.8526186e-25
4.8527361e-25
4.8530533e-25
4.8537715e-25
4.8571109e-25
4.8518238e-25
4.8491794e-25
4.8479838e-25
4.8475063e-25
4.8473509e-25
4.84735e-25
4.8474818e-25
4.8478418e-25
4.8486922e-25
4.854459e-25
4.8491794e-25
4.8465393e-25
4.8453457e-25
4.8448694e-25
4.8447159e-25
4.8447199e-25
4.8448639e-25
4.8452503e-25
4.8461429e-25
4.8532605e-25
4.8479838e-25
4.8453457e-25
4.8441533e-25
4.8436778e-25
4.8435256e-25
4.8435327e-25
4.8436835e-25
4.8440819e-25
4.8449886e-25
4.8527816e-25
4.8475063e-25
4.8448694e-25
4.8436778e-25
4.843203e-25
4.8430515e-25
4.8430601e-25
4.8432139e-25
4.843617e-25
4.8445283e-25
4.8526243e-25
4.8473509e-25
4.8447159e-25
4.8435256e-25
4.8430515e-25
4.8429006e-25
4.8429099e-25
4.8430648e-25
4.8434696e-25
4.8443824e-25
4.8526186e-25
4.84735e-25
4.8447199e-25
4.8435327e-25
4.8430601e-25
4.8429099e-25
4.8429195e-25
4.8430749e-25
4.8434804e-25
4.8443936e-25
4.8527361e-25
4.8474818e-25
4.8448639e-25
4.8436835e-25
4.8432139e-25
4.8430648e-25
4.8430749e-25
4.8432306e-25
4.8436363e-25
4.8445498e-25
4.8530533e-25
4.8478418e-25
4.8452503e-25
4.8440819e-25
4.843617e-25
4.8434696e-25
4.8434804e-25
4.8436363e-25
4.8440424e-25
4.8449566e-25
4.8537715e-25
4.8486922e-25
4.8461429e-25
4.8449886e-25
4.8445283e-25
4.8443824e-25
4.8443936e-25
4.8445498e-25
4.8449566e-25
4.8458731e-25
1.1621707e-24
1.1609486e-24
1.1603363e-24
1.160059e-24
1.1599481e-24
1.1599116e-24
1.1599103e-24
1.1599372e-24
1.1600097e-24
1.1601721e-24
1.1609486e-24
1.1597316e-24
1.1591209e-24
1.1588444e-24
1.1587337e-24
1.1586977e-24
1.1586975e-24
1.1587278e-24
1.1588104e-24
1.1590041e-24
1.1603363e-24
1.1591209e-24
1.1585113e-24
1.1582352e-24
1.1581248e-24
1.1580893e-24
1.1580902e-24
1.1581234e-24
1.1582122e-24
1.1584159e-24
1.160059e-24
1.1588444e-24
1.1582352e-24
1.1579593e-24
1.1578492e-24
1.1578139e-24
1.1578155e-24
1.1578504e-24
1.157942e-24
1.158149e-24
1.1599481e-24
1.1587337e-24
1.1581248e-24
1.1578492e-24
1.1577392e-24
1.1577041e-24
1.1577061e-24
1.1577416e-24
1.1578344e-24
1.1580424e-24
1.1599116e-24
1.1586977e-24
1.1580893e-24
1.1578139e-24
1.1577041e-24
1.1576691e-24
1.1576713e-24
1.1577071e-24
1.1578002e-24
1.1580087e-24
1.1599103e-24
1.1586975e-24
1.1580902e-24
1.1578155e-24
1.1577061e-24
1.1576713e-24
1.1576735e-24
1.1577094e-24
1.1578027e-24
1.1580113e-24
1.1599372e-24
1.1587278e-24
1.1581234e-24
1.1578504e-24
1.1577416e-24
1.1577071e-24
1.1577094e-24
1.1577454e-24
1.1578388e-24
1.1580474e-24
1.1600097e-24
1.1588104e-24
1.1582122e-24
1.157942e-24
1.1578344e-24
1.1578002e-24
1.1578027e-24
1.1578388e-24
1.1579322e-24
1.1581409e-24
1.1601721e-24
1.1590041e-24
1.1584159e-24
1.158149e-24
1.1580424e-24
1.1580087e-24
1.1580113e-24
1.1580474e-24
1.1581409e-24
1.1583502e-24
2.8137146e-24
2.8108668e-24
2.8094355e-24
2.8087862e-24
2.8085261e-24
2.8084405e-24
2.8084372e-24
2.8084999e-24
2.8086674e-24
2.8090395e-24
2.8108668e-24
2.8080305e-24
2.8066032e-24
2.8059554e-24
2.8056961e-24
2.8056115e-24
2.8056109e-24
2.8056817e-24
2.8058734e-24
2.8063203e-24
2.8094355e-24
2.8066032e-24
2.805178e-24
2.8045313e-24
2.8042727e-24
2.8041892e-24
2.8041913e-24
2.804269e-24
2.8044756e-24
2.8049464e-24
2.8087862e-24
2.8059554e-24
2.8045313e-24
2.8038853e-24
2.8036271e-24
2.8035444e-24
2.8035482e-24
2.8036297e-24
2.8038431e-24
2.8043218e-24
2.8085261e-24
2.8056961e-24
2.8042727e-24
2.8036271e-24
2.8033692e-24
2.8032869e-24
2.8032916e-24
2.8033748e-24
2.8035908e-24
2.8040722e-24
2.8084405e-24
2.8056115e-24
2.8041892e-24
2.8035444e-24
2.8032869e-24
2.8032049e-24
2.80321e-24
2.8032938e-24
2.8035108e-24
2.803993e-24
2.8084372e-24
2.8056109e-24
2.8041913e-24
2.8035482e-24
2.8032916e-24
2.80321e-24
2.8032153e-24
2.8032994e-24
2.8035167e-24
2.8039991e-24
2.8084999e-24
2.8056817e-24
2.804269e-24
2.8036297e-24
2.8033748e-24
2.8032938e-24
2.8032994e-24
2.8033836e-24
2.8036011e-24
2.8040837e-24
2.8086674e-24
2.8058734e-24
2.8044756e-24
2.8038431e-24
2.8035908e-24
2.8035108e-24
2.8035167e-24
2.8036011e-24
2.8038188e-24
2.8043017e-24
2.8090395e-24
2.8063203e-24
2.8049464e-24
2.8043218e-24
2.8040722e-24
2.803993e-24
2.8039991e-24
2.8040837e-24
2.8043017e-24
2.8047858e-24
6.9004682e-24
6.8937498e-24
6.8903629e-24
6.8888238e-24
6.8882065e-24
6.8880033e-24
6.8879951e-24
6.8881428e-24
6.8885351e-24
6.8893982e-24
6.8937498e-24
6.8870584e-24
6.8836808e-24
6.8821452e-24
6.8815297e-24
6.8813289e-24
6.8813273e-24
6.8814945e-24
6.8819454e-24
6.8829899e-24
6.8903629e-24
6.8836808e-24
6.8803083e-24
6.8787752e-24
6.8781614e-24
6.8779632e-24
6.8779682e-24
6.878152e-24
6.878639e-24
6.8797413e-24
6.8888238e-24
6.8821452e-24
6.8787752e-24
6.8772436e-24
6.8766309e-24
6.8764345e-24
6.8764436e-24
6.8766367e-24
6.8771401e-24
6.8782616e-24
6.8882065e-24
6.8815297e-24
6.8781614e-24
6.8766309e-24
6.8760189e-24
6.8758235e-24
6.8758347e-24
6.8760319e-24
6.8765418e-24
6.8776696e-24
6.8880033e-24
6.8813289e-24
6.8779632e-24
6.8764345e-24
6.8758235e-24
6.8756288e-24
6.875641e-24
6.8758397e-24
6.8763519e-24
6.8774817e-24
6.8879951e-24
6.8813273e-24
6.8779682e-24
6.8764436e-24
6.8758347e-24
6.875641e-24
6.8756537e-24
6.875853e-24
6.876366e-24
6.8774964e-24
6.8881428e-24
6.8814945e-24
6.878152e-24
6.8766367e-24
6.8760319e-24
6.8758397e-24
6.875853e-24
6.8760528e-24
6.8765661e-24
6.8776969e-24
6.8885351e-24
6.8819454e-24
6.878639e-24
6.8771401e-24
6.8765418e-24
6.8763519e-24
6.876366e-24
6.8765661e-24
6.8770799e-24
6.8782115e-24
6.8893982e-24
6.8829899e-24
6.8797413e-24
6.8782616e-24
6.8776696e-24
6.8774817e-24
6.8774964e-24
6.8776969e-24
6.8782115e-24
6.8793458e-24
1.7141771e-23
1.7125726e-23
1.7117614e-23
1.711392e-23
1.7112438e-23
1.7111949e-23
1.7111929e-23
1.7112281e-23
1.7113212e-23
1.7115239e-23
1.7125726e-23
1.7109745e-23
1.7101654e-23
1.7097969e-23
1.7096491e-23
1.7096008e-23
1.7096004e-23
1.7096404e-23
1.7097479e-23
1.7099951e-23
1.7117614e-23
1.7101654e-23
1.7093576e-23
1.7089897e-23
1.7088423e-23
1.7087946e-23
1.7087958e-23
1.7088399e-23
1.7089562e-23
1.7092176e-23
1.711392e-23
1.7097969e-23
1.7089897e-23
1.7086222e-23
1.708475e-23
1.7084278e-23
1.70843e-23
1.7084763e-23
1.7085966e-23
1.7088628e-23
1.7112438e-23
1.7096491e-23
1.7088423e-23
1.708475e-23
1.708328e-23
1.708281e-23
1.7082837e-23
1.7083311e-23
1.708453e-23
1.7087207e-23
1.7111949e-23
1.7096008e-23
1.7087946e-23
1.7084278e-23
1.708281e-23
1.7082342e-23
1.7082372e-23
1.7082849e-23
1.7084074e-23
1.7086755e-23
1.7111929e-23
1.7096004e-23
1.7087958e-23
1.70843e-23
1.7082837e-23
1.7082372e-23
1.7082403e-23
1.7082882e-23
1.7084108e-23
1.7086791e-23
1.7112281e-23
1.7096404e-23
1.7088399e-23
1.7084763e-23
1.7083311e-23
1.7082849e-23
1.7082882e-23
1.7083362e-23
1.7084589e-23
1.7087273e-23
1.7113212e-23
1.7097479e-23
1.7089562e-23
1.7085966e-23
1.708453e-23
1.7084074e-23
1.7084108e-23
1.7084589e-23
1.7085817e-23
1.7088503e-23
1.7115239e-23
1.7099951e-23
1.7092176e-23
1.7088628e-23
1.7087207e-23
1.7086755e-23
1.7086791e-23
1.7087273e-23
1.7088503e-23
1.7091195e-23
4.3131632e-23
4.3092844e-23
4.3073175e-23
4.3064205e-23
4.3060599e-23
4.3059411e-23
4.3059361e-23
4.3060211e-23
4.3062447e-23
4.306727e-23
4.3092844e-23
4.3054209e-23
4.3034592e-23
4.3025642e-23
4.3022047e-23
4.3020873e-23
4.3020862e-23
4.3021832e-23
4.3024424e-23
4.3030353e-23
4.3073175e-23
4.3034592e-23
4.3015005e-23
4.3006069e-23
4.3002484e-23
4.3001325e-23
4.3001355e-23
4.3002426e-23
4.3005237e-23
4.3011517e-23
4.3064205e-23
4.3025642e-23
4.3006069e-23
4.2997142e-23
4.2993564e-23
4.2992416e-23
4.2992471e-23
4.2993597e-23
4.2996509e-23
4.3002906e-23
4.3060599e-23
4.3022047e-23
4.3002484e-23
4.2993564e-23
4.2989989e-23
4.2988848e-23
4.2988915e-23
4.2990066e-23
4.2993017e-23
4.2999452e-23
4.3059411e-23
4.3020873e-23
4.3001325e-23
4.2992416e-23
4.2988848e-23
4.298771e-23
4.2987783e-23
4.2988944e-23
4.2991909e-23
4.2998356e-23
4.3059361e-23
4.3020862e-23
4.3001355e-23
4.2992471e-23
4.2988915e-23
4.2987783e-23
4.298786e-23
4.2989024e-23
4.2991994e-23
4.2998445e-23
4.3060211e-23
4.3021832e-23
4.3002426e-23
4.2993597e-23
4.2990066e-23
4.2988944e-23
4.2989024e-23
4.2990191e-23
4.2993163e-23
4.2999616e-23
4.3062447e-23
4.3024424e-23
4.3005237e-23
4.2996509e-23
4.2993017e-23
4.2991909e-23
4.2991994e-23
4.2993163e-23
4.2996137e-23
4.3002595e-23
4.306727e-23
4.3030353e-23
4.3011517e-23
4.3002906e-23
4.2999452e-23
4.2998356e-23
4.2998445e-23
4.2999616e-23
4.3002595e-23
4.3009068e-23
1.099202e-22
1.0982529e-22
1.0977702e-22
1.0975497e-22
1.097461e-22
1.0974317e-22
1.0974305e-22
1.0974513e-22
1.0975057e-22
1.0976219e-22
1.0982529e-22
1.0973075e-22
1.0968261e-22
1.0966061e-22
1.0965176e-22
1.0964887e-22
1.0964884e-22
1.0965122e-22
1.0965756e-22
1.0967196e-22
1.0977702e-22
1.0968261e-22
1.0963454e-22
1.0961258e-22
1.0960375e-22
1.096009e-22
1.0960098e-22
1.0960361e-22
1.0961049e-22
1.0962577e-22
1.0975497e-22
1.0966061e-22
1.0961258e-22
1.0959063e-22
1.0958182e-22
1.09579e-22
1.0957914e-22
1.0958191e-22
1.0958905e-22
1.0960462e-22
1.097461e-22
1.0965176e-22
1.0960375e-22
1.0958182e-22
1.0957303e-22
1.0957022e-22
1.0957039e-22
1.0957322e-22
1.0958046e-22
1.0959613e-22
1.0974317e-22
1.0964887e-22
1.096009e-22
1.09579e-22
1.0957022e-22
1.0956742e-22
1.095676e-22
1.0957046e-22
1.0957773e-22
1.0959343e-22
1.0974305e-22
1.0964884e-22
1.0960098e-22
1.0957914e-22
1.0957039e-22
1.095676e-22
1.095678e-22
1.0957067e-22
1.0957795e-22
1.0959366e-22
1.0974513e-22
1.0965122e-22
1.0960361e-22
1.0958191e-22
1.0957322e-22
1.0957046e-22
1.0957067e-22
1.0957354e-22
1.0958083e-22
1.0959654e-22
1.0975057e-22
1.0965756e-22
1.0961049e-22
1.0958905e-22
1.0958046e-22
1.0957773e-22
1.0957795e-22
1.0958083e-22
1.0958812e-22
1.0960385e-22
1.0976219e-22
1.0967196e-22
1.0962577e-22
1.0960462e-22
1.0959613e-22
1.0959343e-22
1.0959366e-22
1.0959654e-22
1.0960385e-22