/*--------------------------------*- C++ -*----------------------------------*\
| =========                 |                                                 |
| \\      /  F ield         | OpenFOAM: The Open Source CFD Toolbox           |
|  \\    /   O peration     | Version:  dev                                   |
|   \\  /    A nd           | Web:      www.OpenFOAM.org                      |
|    \\/     M anipulation  |                                                 |
\*---------------------------------------------------------------------------*/
FoamFile
{
    version     2.0;
    format      ascii;
    class       volScalarField;
    location    "57.995";
    object      A_0;
}
// * * * * * * * * * * * * * * * * * * * * * * * * * * * * * * * * * * * * * //

dimensions      [0 0 0 0 1 0 0];

internalField   nonuniform List<scalar> 
10000
(
4.4764334e-30
4.4684941e-30
4.4648412e-30
4.4632404e-30
4.4626125e-30
4.4624101e-30
4.4624096e-30
4.4625888e-30
4.4630992e-30
4.4642771e-30
4.4684941e-30
4.4605933e-30
4.4569534e-30
4.4553574e-30
4.4547317e-30
4.4545315e-30
4.4545361e-30
4.4547301e-30
4.4552842e-30
4.4565949e-30
4.4648412e-30
4.4569534e-30
4.4533202e-30
4.4517273e-30
4.4511032e-30
4.4509052e-30
4.4509149e-30
4.4511216e-30
4.4517031e-30
4.4530569e-30
4.4632404e-30
4.4553574e-30
4.4517273e-30
4.450136e-30
4.4495131e-30
4.4493164e-30
4.4493294e-30
4.4495432e-30
4.4501373e-30
4.4515054e-30
4.4626125e-30
4.4547317e-30
4.4511032e-30
4.4495131e-30
4.4488908e-30
4.448695e-30
4.4487095e-30
4.4489265e-30
4.4495255e-30
4.4508983e-30
4.4624101e-30
4.4545315e-30
4.4509052e-30
4.4493164e-30
4.448695e-30
4.4484997e-30
4.448515e-30
4.4487332e-30
4.449334e-30
4.4507083e-30
4.4624096e-30
4.4545361e-30
4.4509149e-30
4.4493294e-30
4.4487095e-30
4.448515e-30
4.4485307e-30
4.4487494e-30
4.4493508e-30
4.4507256e-30
4.4625888e-30
4.4547301e-30
4.4511216e-30
4.4495432e-30
4.4489265e-30
4.4487332e-30
4.4487494e-30
4.4489684e-30
4.4495702e-30
4.4509455e-30
4.4630992e-30
4.4552842e-30
4.4517031e-30
4.4501373e-30
4.4495255e-30
4.449334e-30
4.4493508e-30
4.4495702e-30
4.4501726e-30
4.4515491e-30
4.4642771e-30
4.4565949e-30
4.4530569e-30
4.4515054e-30
4.4508983e-30
4.4507083e-30
4.4507256e-30
4.4509455e-30
4.4515491e-30
4.4529295e-30
1.5734845e-29
1.5707969e-29
1.5695291e-29
1.5689723e-29
1.5687538e-29
1.5686833e-29
1.568683e-29
1.5687451e-29
1.5689222e-29
1.569347e-29
1.5707969e-29
1.5681221e-29
1.5668587e-29
1.5663035e-29
1.5660857e-29
1.566016e-29
1.5660175e-29
1.5660848e-29
1.5662772e-29
1.5667489e-29
1.5695291e-29
1.5668587e-29
1.5655975e-29
1.5650435e-29
1.5648263e-29
1.5647573e-29
1.5647606e-29
1.5648323e-29
1.5650344e-29
1.5655211e-29
1.5689723e-29
1.5663035e-29
1.5650435e-29
1.56449e-29
1.5642732e-29
1.5642047e-29
1.5642091e-29
1.5642833e-29
1.5644898e-29
1.5649815e-29
1.5687538e-29
1.5660857e-29
1.5648263e-29
1.5642732e-29
1.5640566e-29
1.5639884e-29
1.5639934e-29
1.5640687e-29
1.5642768e-29
1.5647703e-29
1.5686833e-29
1.566016e-29
1.5647573e-29
1.5642047e-29
1.5639884e-29
1.5639204e-29
1.5639256e-29
1.5640014e-29
1.5642101e-29
1.5647041e-29
1.568683e-29
1.5660175e-29
1.5647606e-29
1.5642091e-29
1.5639934e-29
1.5639256e-29
1.563931e-29
1.5640069e-29
1.5642159e-29
1.5647101e-29
1.5687451e-29
1.5660848e-29
1.5648323e-29
1.5642833e-29
1.5640687e-29
1.5640014e-29
1.5640069e-29
1.564083e-29
1.5642921e-29
1.5647864e-29
1.5689222e-29
1.5662772e-29
1.5650344e-29
1.5644898e-29
1.5642768e-29
1.5642101e-29
1.5642159e-29
1.5642921e-29
1.5645015e-29
1.5649962e-29
1.569347e-29
1.5667489e-29
1.5655211e-29
1.5649815e-29
1.5647703e-29
1.5647041e-29
1.5647101e-29
1.5647864e-29
1.5649962e-29
1.5654924e-29
3.5351062e-29
3.5292609e-29
3.5264722e-29
3.5252446e-29
3.5247622e-29
3.5246064e-29
3.5246055e-29
3.5247413e-29
3.525129e-29
3.5260871e-29
3.5292609e-29
3.5234431e-29
3.5206639e-29
3.5194398e-29
3.518959e-29
3.5188049e-29
3.5188079e-29
3.5189554e-29
3.5193774e-29
3.5204405e-29
3.5264722e-29
3.5206639e-29
3.5178898e-29
3.516668e-29
3.5161885e-29
3.5160361e-29
3.5160431e-29
3.5162005e-29
3.516644e-29
3.5177408e-29
3.5252446e-29
3.5194398e-29
3.516668e-29
3.5154475e-29
3.5149689e-29
3.5148175e-29
3.5148271e-29
3.51499e-29
3.5154434e-29
3.5165515e-29
3.5247622e-29
3.518959e-29
3.5161885e-29
3.5149689e-29
3.5144907e-29
3.51434e-29
3.5143508e-29
3.5145162e-29
3.5149735e-29
3.5160852e-29
3.5246064e-29
3.5188049e-29
3.5160361e-29
3.5148175e-29
3.51434e-29
3.5141898e-29
3.5142012e-29
3.5143675e-29
3.5148261e-29
3.5159391e-29
3.5246055e-29
3.5188079e-29
3.5160431e-29
3.5148271e-29
3.5143508e-29
3.5142012e-29
3.5142129e-29
3.5143796e-29
3.5148387e-29
3.5159521e-29
3.5247413e-29
3.5189554e-29
3.5162005e-29
3.51499e-29
3.5145162e-29
3.5143675e-29
3.5143796e-29
3.5145466e-29
3.515006e-29
3.5161197e-29
3.525129e-29
3.5193774e-29
3.516644e-29
3.5154434e-29
3.5149735e-29
3.5148261e-29
3.5148387e-29
3.515006e-29
3.5154658e-29
3.5165804e-29
3.5260871e-29
3.5204405e-29
3.5177408e-29
3.5165515e-29
3.5160852e-29
3.5159391e-29
3.5159521e-29
3.5161197e-29
3.5165804e-29
3.5176985e-29
7.4326059e-29
7.4207057e-29
7.4149919e-29
7.4124705e-29
7.4114784e-29
7.4111577e-29
7.4111548e-29
7.411431e-29
7.4122177e-29
7.4141733e-29
7.4207057e-29
7.4088605e-29
7.4031659e-29
7.4006518e-29
7.399663e-29
7.3993457e-29
7.3993511e-29
7.3996515e-29
7.4005102e-29
7.4026855e-29
7.4149919e-29
7.4031659e-29
7.3974817e-29
7.3949722e-29
7.3939861e-29
7.3936722e-29
7.393686e-29
7.3940072e-29
7.3949107e-29
7.3971567e-29
7.4124705e-29
7.4006518e-29
7.3949722e-29
7.3924654e-29
7.3914809e-29
7.3911694e-29
7.3911885e-29
7.3915213e-29
7.3924453e-29
7.3947148e-29
7.4114784e-29
7.399663e-29
7.3939861e-29
7.3914809e-29
7.3904976e-29
7.3901873e-29
7.390209e-29
7.390547e-29
7.3914791e-29
7.3937563e-29
7.4111577e-29
7.3993457e-29
7.3936722e-29
7.3911694e-29
7.3901873e-29
7.3898781e-29
7.3899009e-29
7.3902409e-29
7.3911758e-29
7.3934555e-29
7.4111548e-29
7.3993511e-29
7.393686e-29
7.3911885e-29
7.390209e-29
7.3899009e-29
7.3899245e-29
7.3902652e-29
7.3912012e-29
7.3934817e-29
7.411431e-29
7.3996515e-29
7.3940072e-29
7.3915213e-29
7.390547e-29
7.3902409e-29
7.3902652e-29
7.3906065e-29
7.3915431e-29
7.3938243e-29
7.4122177e-29
7.4005102e-29
7.3949107e-29
7.3924453e-29
7.3914791e-29
7.3911758e-29
7.3912012e-29
7.3915431e-29
7.3924806e-29
7.3947636e-29
7.4141733e-29
7.4026855e-29
7.3971567e-29
7.3947148e-29
7.3937563e-29
7.3934555e-29
7.3934817e-29
7.3938243e-29
7.3947636e-29
7.3970538e-29
1.5542249e-28
1.5518161e-28
1.5506543e-28
1.5501404e-28
1.5499379e-28
1.5498724e-28
1.5498716e-28
1.5499272e-28
1.5500853e-28
1.5504764e-28
1.5518161e-28
1.5494182e-28
1.5482602e-28
1.5477478e-28
1.547546e-28
1.5474812e-28
1.5474821e-28
1.5475428e-28
1.5477158e-28
1.5481527e-28
1.5506543e-28
1.5482602e-28
1.5471043e-28
1.5465929e-28
1.5463916e-28
1.5463275e-28
1.5463301e-28
1.5463952e-28
1.5465774e-28
1.547029e-28
1.5501404e-28
1.5477478e-28
1.5465929e-28
1.5460819e-28
1.545881e-28
1.5458174e-28
1.5458211e-28
1.5458885e-28
1.5460751e-28
1.5465316e-28
1.5499379e-28
1.547546e-28
1.5463916e-28
1.545881e-28
1.5456803e-28
1.5456169e-28
1.5456212e-28
1.5456897e-28
1.5458779e-28
1.546336e-28
1.5498724e-28
1.5474812e-28
1.5463275e-28
1.5458174e-28
1.5456169e-28
1.5455537e-28
1.5455583e-28
1.5456272e-28
1.545816e-28
1.5462746e-28
1.5498716e-28
1.5474821e-28
1.5463301e-28
1.5458211e-28
1.5456212e-28
1.5455583e-28
1.545563e-28
1.5456321e-28
1.5458211e-28
1.5462798e-28
1.5499272e-28
1.5475428e-28
1.5463952e-28
1.5458885e-28
1.5456897e-28
1.5456272e-28
1.5456321e-28
1.5457012e-28
1.5458904e-28
1.5463493e-28
1.5500853e-28
1.5477158e-28
1.5465774e-28
1.5460751e-28
1.5458779e-28
1.545816e-28
1.5458211e-28
1.5458904e-28
1.5460797e-28
1.546539e-28
1.5504764e-28
1.5481527e-28
1.547029e-28
1.5465316e-28
1.546336e-28
1.5462746e-28
1.5462798e-28
1.5463493e-28
1.546539e-28
1.5469997e-28
3.2769276e-28
3.2720131e-28
3.2696336e-28
3.2685788e-28
3.2681627e-28
3.2680277e-28
3.2680257e-28
3.2681387e-28
3.268458e-28
3.2692426e-28
3.2720131e-28
3.2671208e-28
3.2647491e-28
3.2636973e-28
3.2632824e-28
3.2631489e-28
3.2631505e-28
3.2632741e-28
3.2636246e-28
3.2645052e-28
3.2696336e-28
3.2647491e-28
3.2623816e-28
3.2613317e-28
3.260918e-28
3.260786e-28
3.2607912e-28
3.2609237e-28
3.2612937e-28
3.2622051e-28
3.2685788e-28
3.2636973e-28
3.2613317e-28
3.2602828e-28
3.2598698e-28
3.2597388e-28
3.2597463e-28
3.2598839e-28
3.2602628e-28
3.2611844e-28
3.2681627e-28
3.2632824e-28
3.260918e-28
3.2598698e-28
3.2594573e-28
3.2593269e-28
3.2593355e-28
3.2594753e-28
3.2598577e-28
3.2607827e-28
3.2680277e-28
3.2631489e-28
3.260786e-28
3.2597388e-28
3.2593269e-28
3.2591968e-28
3.259206e-28
3.2593466e-28
3.2597303e-28
3.2606563e-28
3.2680257e-28
3.2631505e-28
3.2607912e-28
3.2597463e-28
3.2593355e-28
3.259206e-28
3.2592154e-28
3.2593564e-28
3.2597405e-28
3.2606669e-28
3.2681387e-28
3.2632741e-28
3.2609237e-28
3.2598839e-28
3.2594753e-28
3.2593466e-28
3.2593564e-28
3.2594976e-28
3.259882e-28
3.2608087e-28
3.268458e-28
3.2636246e-28
3.2612937e-28
3.2602628e-28
3.2598577e-28
3.2597303e-28
3.2597405e-28
3.259882e-28
3.2602668e-28
3.2611942e-28
3.2692426e-28
3.2645052e-28
3.2622051e-28
3.2611844e-28
3.2607827e-28
3.2606563e-28
3.2606669e-28
3.2608087e-28
3.2611942e-28
3.2621244e-28
6.9889816e-28
6.9788434e-28
6.9739169e-28
6.9717283e-28
6.9708636e-28
6.9705828e-28
6.9705779e-28
6.9708097e-28
6.9714617e-28
6.9730505e-28
6.9788434e-28
6.9687506e-28
6.9638399e-28
6.9616574e-28
6.9607954e-28
6.9605177e-28
6.9605203e-28
6.9607744e-28
6.9614927e-28
6.963285e-28
6.9739169e-28
6.9638399e-28
6.9589378e-28
6.9567592e-28
6.9558996e-28
6.955625e-28
6.9556352e-28
6.9559084e-28
6.9566679e-28
6.9585254e-28
6.9717283e-28
6.9616574e-28
6.9567592e-28
6.9545828e-28
6.9537247e-28
6.9534522e-28
6.9534673e-28
6.9537511e-28
6.9545293e-28
6.9564086e-28
6.9708636e-28
6.9607954e-28
6.9558996e-28
6.9537247e-28
6.9528675e-28
6.9525962e-28
6.9526136e-28
6.9529021e-28
6.9536878e-28
6.9555742e-28
6.9705828e-28
6.9605177e-28
6.955625e-28
6.9534522e-28
6.9525962e-28
6.9523257e-28
6.9523443e-28
6.9526346e-28
6.9534229e-28
6.9553115e-28
6.9705779e-28
6.9605203e-28
6.9556352e-28
6.9534673e-28
6.9526136e-28
6.9523443e-28
6.9523635e-28
6.9526546e-28
6.9534438e-28
6.9553331e-28
6.9708097e-28
6.9607744e-28
6.9559084e-28
6.9537511e-28
6.9529021e-28
6.9526346e-28
6.9526546e-28
6.9529461e-28
6.9537358e-28
6.9556257e-28
6.9714617e-28
6.9614927e-28
6.9566679e-28
6.9545293e-28
6.9536878e-28
6.9534229e-28
6.9534438e-28
6.9537358e-28
6.9545263e-28
6.9564177e-28
6.9730505e-28
6.963285e-28
6.9585254e-28
6.9564086e-28
6.9555742e-28
6.9553115e-28
6.9553331e-28
6.9556257e-28
6.9564177e-28
6.9583148e-28
1.5090577e-27
1.5069413e-27
1.5059092e-27
1.5054497e-27
1.505268e-27
1.5052089e-27
1.5052077e-27
1.5052558e-27
1.5053905e-27
1.505716e-27
1.5069413e-27
1.5048343e-27
1.5038055e-27
1.5033472e-27
1.503166e-27
1.5031075e-27
1.503108e-27
1.5031609e-27
1.5033098e-27
1.5036789e-27
1.5059092e-27
1.5038055e-27
1.5027784e-27
1.502321e-27
1.5021403e-27
1.5020825e-27
1.5020845e-27
1.5021415e-27
1.5022993e-27
1.5026824e-27
1.5054497e-27
1.5033472e-27
1.502321e-27
1.5018641e-27
1.5016836e-27
1.5016263e-27
1.5016294e-27
1.5016886e-27
1.5018504e-27
1.5022382e-27
1.505268e-27
1.503166e-27
1.5021403e-27
1.5016836e-27
1.5015034e-27
1.5014463e-27
1.5014499e-27
1.5015102e-27
1.5016736e-27
1.5020628e-27
1.5052089e-27
1.5031075e-27
1.5020825e-27
1.5016263e-27
1.5014463e-27
1.5013894e-27
1.5013932e-27
1.5014539e-27
1.5016178e-27
1.5020076e-27
1.5052077e-27
1.503108e-27
1.5020845e-27
1.5016294e-27
1.5014499e-27
1.5013932e-27
1.5013972e-27
1.501458e-27
1.5016221e-27
1.502012e-27
1.5052558e-27
1.5031609e-27
1.5021415e-27
1.5016886e-27
1.5015102e-27
1.5014539e-27
1.501458e-27
1.5015189e-27
1.5016832e-27
1.5020732e-27
1.5053905e-27
1.5033098e-27
1.5022993e-27
1.5018504e-27
1.5016736e-27
1.5016178e-27
1.5016221e-27
1.5016832e-27
1.5018475e-27
1.5022379e-27
1.505716e-27
1.5036789e-27
1.5026824e-27
1.5022382e-27
1.5020628e-27
1.5020076e-27
1.502012e-27
1.5020732e-27
1.5022379e-27
1.5026294e-27
3.2994804e-27
3.2950085e-27
3.2928201e-27
3.2918438e-27
3.291457e-27
3.2913311e-27
3.2913282e-27
3.2914294e-27
3.2917112e-27
3.2923861e-27
3.2950085e-27
3.2905562e-27
3.2883746e-27
3.2874009e-27
3.2870154e-27
3.2868908e-27
3.2868914e-27
3.287003e-27
3.2873156e-27
3.2880852e-27
3.2928201e-27
3.2883746e-27
3.2861968e-27
3.2852248e-27
3.2848403e-27
3.2847172e-27
3.2847213e-27
3.2848417e-27
3.2851734e-27
3.2859734e-27
3.2918438e-27
3.2874009e-27
3.2852248e-27
3.2842538e-27
3.28387e-27
3.2837478e-27
3.2837542e-27
3.2838795e-27
3.2842199e-27
3.28503e-27
3.291457e-27
3.2870154e-27
3.2848403e-27
3.28387e-27
3.2834865e-27
3.2833649e-27
3.2833724e-27
3.2834999e-27
3.2838438e-27
3.2846571e-27
3.2913311e-27
3.2868908e-27
3.2847172e-27
3.2837478e-27
3.2833649e-27
3.2832437e-27
3.2832517e-27
3.28338e-27
3.2837251e-27
3.2845395e-27
3.2913282e-27
3.2868914e-27
3.2847213e-27
3.2837542e-27
3.2833724e-27
3.2832517e-27
3.28326e-27
3.2833886e-27
3.2837342e-27
3.2845489e-27
3.2914294e-27
3.287003e-27
3.2848417e-27
3.2838795e-27
3.2834999e-27
3.28338e-27
3.2833886e-27
3.2835175e-27
3.2838633e-27
3.2846782e-27
3.2917112e-27
3.2873156e-27
3.2851734e-27
3.2842199e-27
3.2838438e-27
3.2837251e-27
3.2837342e-27
3.2838633e-27
3.2842094e-27
3.2850249e-27
3.2923861e-27
3.2880852e-27
3.2859734e-27
3.28503e-27
3.2846571e-27
3.2845395e-27
3.2845489e-27
3.2846782e-27
3.2850249e-27
3.2858429e-27
7.305967e-27
7.2964019e-27
7.2917051e-27
7.2896054e-27
7.2887725e-27
7.2885009e-27
7.2884941e-27
7.2887095e-27
7.2893063e-27
7.2907228e-27
7.2964019e-27
7.2868784e-27
7.282196e-27
7.2801018e-27
7.2792714e-27
7.2790029e-27
7.2790037e-27
7.2792418e-27
7.2799063e-27
7.281531e-27
7.2917051e-27
7.282196e-27
7.2775215e-27
7.275431e-27
7.2746028e-27
7.2743374e-27
7.274346e-27
7.2746034e-27
7.2753098e-27
7.2770012e-27
7.2896054e-27
7.2801018e-27
7.275431e-27
7.2733426e-27
7.2725158e-27
7.2722525e-27
7.2722659e-27
7.2725342e-27
7.2732597e-27
7.2749732e-27
7.2887725e-27
7.2792714e-27
7.2746028e-27
7.2725158e-27
7.2716901e-27
7.271428e-27
7.2714438e-27
7.2717168e-27
7.2724499e-27
7.2741706e-27
7.2885009e-27
7.2790029e-27
7.2743374e-27
7.2722525e-27
7.271428e-27
7.2711667e-27
7.2711836e-27
7.2714585e-27
7.2721942e-27
7.2739173e-27
7.2884941e-27
7.2790037e-27
7.274346e-27
7.2722659e-27
7.2714438e-27
7.2711836e-27
7.2712012e-27
7.2714768e-27
7.2722135e-27
7.2739373e-27
7.2887095e-27
7.2792418e-27
7.2746034e-27
7.2725342e-27
7.2717168e-27
7.2714585e-27
7.2714768e-27
7.2717529e-27
7.27249e-27
7.2742144e-27
7.2893063e-27
7.2799063e-27
7.2753098e-27
7.2732597e-27
7.2724499e-27
7.2721942e-27
7.2722135e-27
7.27249e-27
7.2732279e-27
7.2749535e-27
7.2907228e-27
7.281531e-27
7.2770012e-27
7.2749732e-27
7.2741706e-27
7.2739173e-27
7.2739373e-27
7.2742144e-27
7.2749535e-27
7.2766841e-27
1.6384442e-26
1.6363731e-26
1.6353527e-26
1.6348955e-26
1.634714e-26
1.6346547e-26
1.6346531e-26
1.6346995e-26
1.6348275e-26
1.6351285e-26
1.6363731e-26
1.6343109e-26
1.6332935e-26
1.6328376e-26
1.6326566e-26
1.632598e-26
1.6325981e-26
1.6326495e-26
1.6327926e-26
1.6331399e-26
1.6353527e-26
1.6332935e-26
1.6322779e-26
1.6318228e-26
1.6316422e-26
1.6315843e-26
1.6315861e-26
1.6316419e-26
1.6317942e-26
1.6321564e-26
1.6348955e-26
1.6328376e-26
1.6318228e-26
1.6313681e-26
1.6311878e-26
1.6311304e-26
1.6311333e-26
1.6311914e-26
1.631348e-26
1.6317151e-26
1.634714e-26
1.6326566e-26
1.6316422e-26
1.6311878e-26
1.6310078e-26
1.6309507e-26
1.6309541e-26
1.6310133e-26
1.6311715e-26
1.6315402e-26
1.6346547e-26
1.632598e-26
1.6315843e-26
1.6311304e-26
1.6309507e-26
1.6308937e-26
1.6308973e-26
1.6309569e-26
1.6311158e-26
1.631485e-26
1.6346531e-26
1.6325981e-26
1.6315861e-26
1.6311333e-26
1.6309541e-26
1.6308973e-26
1.6309011e-26
1.6309609e-26
1.6311199e-26
1.6314893e-26
1.6346995e-26
1.6326495e-26
1.6316419e-26
1.6311914e-26
1.6310133e-26
1.6309569e-26
1.6309609e-26
1.6310208e-26
1.6311799e-26
1.6315494e-26
1.6348275e-26
1.6327926e-26
1.6317942e-26
1.631348e-26
1.6311715e-26
1.6311158e-26
1.6311199e-26
1.6311799e-26
1.6313392e-26
1.631709e-26
1.6351285e-26
1.6331399e-26
1.6321564e-26
1.6317151e-26
1.6315402e-26
1.631485e-26
1.6314893e-26
1.6315494e-26
1.631709e-26
1.6320798e-26
3.7216079e-26
3.7170679e-26
3.7148236e-26
3.7138162e-26
3.7134156e-26
3.7132847e-26
3.7132808e-26
3.7133821e-26
3.7136601e-26
3.7143078e-26
3.7170679e-26
3.7125473e-26
3.7103097e-26
3.7093048e-26
3.7089054e-26
3.7087759e-26
3.7087759e-26
3.7088885e-26
3.7092003e-26
3.7099524e-26
3.7148236e-26
3.7103097e-26
3.7080757e-26
3.7070726e-26
3.7066743e-26
3.7065464e-26
3.7065501e-26
3.7066725e-26
3.7070052e-26
3.7077906e-26
3.7138162e-26
3.7093048e-26
3.7070726e-26
3.7060706e-26
3.7056729e-26
3.705546e-26
3.7055522e-26
3.7056799e-26
3.7060222e-26
3.7068187e-26
3.7134156e-26
3.7089054e-26
3.7066743e-26
3.7056729e-26
3.7052757e-26
3.7051494e-26
3.7051568e-26
3.7052869e-26
3.7056329e-26
3.706433e-26
3.7132847e-26
3.7087759e-26
3.7065464e-26
3.705546e-26
3.7051494e-26
3.7050235e-26
3.7050315e-26
3.7051625e-26
3.7055098e-26
3.7063111e-26
3.7132808e-26
3.7087759e-26
3.7065501e-26
3.7055522e-26
3.7051568e-26
3.7050315e-26
3.7050398e-26
3.7051711e-26
3.7055189e-26
3.7063206e-26
3.7133821e-26
3.7088885e-26
3.7066725e-26
3.7056799e-26
3.7052869e-26
3.7051625e-26
3.7051711e-26
3.7053027e-26
3.7056508e-26
3.7064526e-26
3.7136601e-26
3.7092003e-26
3.7070052e-26
3.7060222e-26
3.7056329e-26
3.7055098e-26
3.7055189e-26
3.7056508e-26
3.7059991e-26
3.7068016e-26
3.7143078e-26
3.7099524e-26
3.7077906e-26
3.7068187e-26
3.706433e-26
3.7063111e-26
3.7063206e-26
3.7064526e-26
3.7068016e-26
3.7076063e-26
8.562359e-26
8.5522838e-26
8.5472868e-26
8.5450395e-26
8.5441446e-26
8.5438518e-26
8.5438424e-26
8.5440665e-26
8.5446778e-26
8.5460892e-26
8.5522838e-26
8.542251e-26
8.5372688e-26
8.535027e-26
8.5341348e-26
8.5338453e-26
8.5338447e-26
8.5340945e-26
8.5347829e-26
8.5364322e-26
8.5472868e-26
8.5372688e-26
8.5322946e-26
8.5300567e-26
8.5291668e-26
8.5288808e-26
8.528889e-26
8.5291608e-26
8.5298968e-26
8.531622e-26
8.5450395e-26
8.535027e-26
8.5300567e-26
8.527821e-26
8.5269327e-26
8.5266491e-26
8.5266627e-26
8.5269467e-26
8.5277044e-26
8.5294549e-26
8.5441446e-26
8.5341348e-26
8.5291668e-26
8.5269327e-26
8.5260454e-26
8.5257632e-26
8.5257795e-26
8.5260689e-26
8.5268352e-26
8.5285939e-26
8.5438518e-26
8.5338453e-26
8.5288808e-26
8.5266491e-26
8.5257632e-26
8.5254818e-26
8.5254995e-26
8.525791e-26
8.5265602e-26
8.5283215e-26
8.5438424e-26
8.5338447e-26
8.528889e-26
8.5266627e-26
8.5257795e-26
8.5254995e-26
8.5255178e-26
8.5258102e-26
8.5265805e-26
8.5283426e-26
8.5440665e-26
8.5340945e-26
8.5291608e-26
8.5269467e-26
8.5260689e-26
8.525791e-26
8.5258102e-26
8.526103e-26
8.5268738e-26
8.5286366e-26
8.5446778e-26
8.5347829e-26
8.5298968e-26
8.5277044e-26
8.5268352e-26
8.5265602e-26
8.5265805e-26
8.5268738e-26
8.5276454e-26
8.5294094e-26
8.5460892e-26
8.5364322e-26
8.531622e-26
8.5294549e-26
8.5285939e-26
8.5283215e-26
8.5283426e-26
8.5286366e-26
8.5294094e-26
8.5311782e-26
1.9954221e-25
1.9931584e-25
1.9920321e-25
1.9915246e-25
1.9913222e-25
1.9912559e-25
1.9912537e-25
1.9913038e-25
1.99144e-25
1.9917514e-25
1.9931584e-25
1.9909042e-25
1.9897811e-25
1.9892748e-25
1.9890731e-25
1.9890075e-25
1.9890073e-25
1.9890634e-25
1.9892174e-25
1.9895837e-25
1.9920321e-25
1.9897811e-25
1.9886599e-25
1.9881544e-25
1.9879532e-25
1.9878885e-25
1.9878903e-25
1.9879514e-25
1.9881163e-25
1.9885002e-25
1.9915246e-25
1.9892748e-25
1.9881544e-25
1.9876495e-25
1.9874486e-25
1.9873844e-25
1.9873875e-25
1.9874515e-25
1.9876214e-25
1.988011e-25
1.9913222e-25
1.9890731e-25
1.9879532e-25
1.9874486e-25
1.987248e-25
1.9871841e-25
1.9871878e-25
1.987253e-25
1.9874249e-25
1.9878165e-25
1.9912559e-25
1.9890075e-25
1.9878885e-25
1.9873844e-25
1.9871841e-25
1.9871205e-25
1.9871244e-25
1.9871901e-25
1.9873627e-25
1.9877549e-25
1.9912537e-25
1.9890073e-25
1.9878903e-25
1.9873875e-25
1.9871878e-25
1.9871244e-25
1.9871286e-25
1.9871945e-25
1.9873673e-25
1.9877596e-25
1.9913038e-25
1.9890634e-25
1.9879514e-25
1.9874515e-25
1.987253e-25
1.9871901e-25
1.9871945e-25
1.9872605e-25
1.9874334e-25
1.9878259e-25
1.99144e-25
1.9892174e-25
1.9881163e-25
1.9876214e-25
1.9874249e-25
1.9873627e-25
1.9873673e-25
1.9874334e-25
1.9876065e-25
1.9879992e-25
1.9917514e-25
1.9895837e-25
1.9885002e-25
1.988011e-25
1.9878165e-25
1.9877549e-25
1.9877596e-25
1.9878259e-25
1.9879992e-25
1.9883931e-25
4.7104776e-25
4.7053285e-25
4.7027583e-25
4.7015979e-25
4.7011347e-25
4.7009828e-25
4.7009774e-25
4.7010912e-25
4.7013983e-25
4.7020941e-25
4.7053285e-25
4.7002006e-25
4.6976378e-25
4.6964802e-25
4.6960183e-25
4.6958682e-25
4.6958675e-25
4.6959951e-25
4.6963437e-25
4.6971679e-25
4.7027583e-25
4.6976378e-25
4.695079e-25
4.6939234e-25
4.6934628e-25
4.6933145e-25
4.6933185e-25
4.6934579e-25
4.6938321e-25
4.6946972e-25
4.7015979e-25
4.6964802e-25
4.6939234e-25
4.6927689e-25
4.6923091e-25
4.6921621e-25
4.692169e-25
4.6923149e-25
4.6927009e-25
4.6935795e-25
4.7011347e-25
4.6960183e-25
4.6934628e-25
4.6923091e-25
4.6918498e-25
4.6917035e-25
4.6917119e-25
4.6918608e-25
4.6922513e-25
4.6931344e-25
4.7009828e-25
4.6958682e-25
4.6933145e-25
4.6921621e-25
4.6917035e-25
4.6915578e-25
4.6915668e-25
4.6917168e-25
4.6921089e-25
4.6929934e-25
4.7009774e-25
4.6958675e-25
4.6933185e-25
4.692169e-25
4.6917119e-25
4.6915668e-25
4.6915763e-25
4.6917267e-25
4.6921194e-25
4.6930043e-25
4.7010912e-25
4.6959951e-25
4.6934579e-25
4.6923149e-25
4.6918608e-25
4.6917168e-25
4.6917267e-25
4.6918774e-25
4.6922703e-25
4.6931556e-25
4.7013983e-25
4.6963437e-25
4.6938321e-25
4.6927009e-25
4.6922513e-25
4.6921089e-25
4.6921194e-25
4.6922703e-25
4.6926636e-25
4.6935495e-25
4.7020941e-25
4.6971679e-25
4.6946972e-25
4.6935795e-25
4.6931344e-25
4.6929934e-25
4.6930043e-25
4.6931556e-25
4.6935495e-25
4.6944377e-25
1.1263922e-24
1.1252064e-24
1.1246126e-24
1.1243441e-24
1.1242367e-24
1.1242015e-24
1.1242002e-24
1.1242263e-24
1.1242965e-24
1.124454e-24
1.1252064e-24
1.1240254e-24
1.1234334e-24
1.1231654e-24
1.1230584e-24
1.1230236e-24
1.1230234e-24
1.1230528e-24
1.1231328e-24
1.1233206e-24
1.1246126e-24
1.1234334e-24
1.1228422e-24
1.1225747e-24
1.122468e-24
1.1224336e-24
1.1224345e-24
1.1224667e-24
1.1225527e-24
1.1227502e-24
1.1243441e-24
1.1231654e-24
1.1225747e-24
1.1223075e-24
1.122201e-24
1.1221669e-24
1.1221685e-24
1.1222022e-24
1.122291e-24
1.1224917e-24
1.1242367e-24
1.1230584e-24
1.122468e-24
1.122201e-24
1.1220946e-24
1.1220606e-24
1.1220626e-24
1.122097e-24
1.1221869e-24
1.1223886e-24
1.1242015e-24
1.1230236e-24
1.1224336e-24
1.1221669e-24
1.1220606e-24
1.1220269e-24
1.122029e-24
1.1220636e-24
1.1221539e-24
1.122356e-24
1.1242002e-24
1.1230234e-24
1.1224345e-24
1.1221685e-24
1.1220626e-24
1.122029e-24
1.1220312e-24
1.1220659e-24
1.1221563e-24
1.1223585e-24
1.1242263e-24
1.1230528e-24
1.1224667e-24
1.1222022e-24
1.122097e-24
1.1220636e-24
1.1220659e-24
1.1221008e-24
1.1221912e-24
1.1223935e-24
1.1242965e-24
1.1231328e-24
1.1225527e-24
1.122291e-24
1.1221869e-24
1.1221539e-24
1.1221563e-24
1.1221912e-24
1.1222817e-24
1.1224841e-24
1.124454e-24
1.1233206e-24
1.1227502e-24
1.1224917e-24
1.1223886e-24
1.122356e-24
1.1223585e-24
1.1223935e-24
1.1224841e-24
1.122687e-24
2.7284102e-24
2.7256455e-24
2.724257e-24
2.7236277e-24
2.723376e-24
2.7232933e-24
2.7232901e-24
2.7233509e-24
2.7235132e-24
2.723874e-24
2.7256455e-24
2.722892e-24
2.7215074e-24
2.7208796e-24
2.7206286e-24
2.7205468e-24
2.7205463e-24
2.7206149e-24
2.7208007e-24
2.7212342e-24
2.724257e-24
2.7215074e-24
2.7201248e-24
2.7194981e-24
2.7192477e-24
2.7191671e-24
2.7191692e-24
2.7192444e-24
2.7194447e-24
2.7199014e-24
2.7236277e-24
2.7208796e-24
2.7194981e-24
2.718872e-24
2.7186221e-24
2.7185421e-24
2.7185459e-24
2.7186248e-24
2.7188317e-24
2.7192961e-24
2.723376e-24
2.7206286e-24
2.7192477e-24
2.7186221e-24
2.7183725e-24
2.7182929e-24
2.7182975e-24
2.7183781e-24
2.7185875e-24
2.7190544e-24
2.7232933e-24
2.7205468e-24
2.7191671e-24
2.7185421e-24
2.7182929e-24
2.7182136e-24
2.7182186e-24
2.7182998e-24
2.7185101e-24
2.7189778e-24
2.7232901e-24
2.7205463e-24
2.7191692e-24
2.7185459e-24
2.7182975e-24
2.7182186e-24
2.7182237e-24
2.7183052e-24
2.7185159e-24
2.7189838e-24
2.7233509e-24
2.7206149e-24
2.7192444e-24
2.7186248e-24
2.7183781e-24
2.7182998e-24
2.7183052e-24
2.7183868e-24
2.7185977e-24
2.7190657e-24
2.7235132e-24
2.7208007e-24
2.7194447e-24
2.7188317e-24
2.7185875e-24
2.7185101e-24
2.7185159e-24
2.7185977e-24
2.7188087e-24
2.7192771e-24
2.723874e-24
2.7212342e-24
2.7199014e-24
2.7192961e-24
2.7190544e-24
2.7189778e-24
2.7189838e-24
2.7190657e-24
2.7192771e-24
2.7197467e-24
6.6945397e-24
6.6880142e-24
6.684727e-24
6.6832346e-24
6.6826368e-24
6.6824403e-24
6.6824325e-24
6.6825756e-24
6.6829561e-24
6.6837935e-24
6.6880142e-24
6.681515e-24
6.6782367e-24
6.6767478e-24
6.6761517e-24
6.6759575e-24
6.675956e-24
6.6761182e-24
6.6765555e-24
6.6775692e-24
6.684727e-24
6.6782367e-24
6.6749635e-24
6.673477e-24
6.6728825e-24
6.6726908e-24
6.6726958e-24
6.6728741e-24
6.6733464e-24
6.6744162e-24
6.6832346e-24
6.6767478e-24
6.673477e-24
6.671992e-24
6.6713985e-24
6.6712086e-24
6.6712176e-24
6.6714047e-24
6.671893e-24
6.6729814e-24
6.6826368e-24
6.6761517e-24
6.6728825e-24
6.6713985e-24
6.6708059e-24
6.6706169e-24
6.6706278e-24
6.670819e-24
6.6713135e-24
6.672408e-24
6.6824403e-24
6.6759575e-24
6.6726908e-24
6.6712086e-24
6.6706169e-24
6.6704285e-24
6.6704404e-24
6.6706331e-24
6.6711299e-24
6.6722263e-24
6.6824325e-24
6.675956e-24
6.6726958e-24
6.6712176e-24
6.6706278e-24
6.6704404e-24
6.6704529e-24
6.6706461e-24
6.6711436e-24
6.6722407e-24
6.6825756e-24
6.6761182e-24
6.6728741e-24
6.6714047e-24
6.670819e-24
6.6706331e-24
6.6706461e-24
6.6708398e-24
6.6713376e-24
6.672435e-24
6.6829561e-24
6.6765555e-24
6.6733464e-24
6.671893e-24
6.6713135e-24
6.6711299e-24
6.6711436e-24
6.6713376e-24
6.671836e-24
6.6729341e-24
6.6837935e-24
6.6775692e-24
6.6744162e-24
6.6729814e-24
6.672408e-24
6.6722263e-24
6.6722407e-24
6.672435e-24
6.6729341e-24
6.6740349e-24
1.6638456e-23
1.6622864e-23
1.6614986e-23
1.6611404e-23
1.6609967e-23
1.6609494e-23
1.6609475e-23
1.6609817e-23
1.6610719e-23
1.6612688e-23
1.6622864e-23
1.6607334e-23
1.6599478e-23
1.6595903e-23
1.6594471e-23
1.6594004e-23
1.6594e-23
1.6594388e-23
1.659543e-23
1.6597831e-23
1.6614986e-23
1.6599478e-23
1.6591633e-23
1.6588065e-23
1.6586636e-23
1.6586175e-23
1.6586187e-23
1.6586614e-23
1.6587743e-23
1.6590281e-23
1.6611404e-23
1.6595903e-23
1.6588065e-23
1.6584499e-23
1.6583073e-23
1.6582616e-23
1.6582638e-23
1.6583087e-23
1.6584255e-23
1.6586839e-23
1.6609967e-23
1.6594471e-23
1.6586636e-23
1.6583073e-23
1.6581648e-23
1.6581194e-23
1.6581221e-23
1.658168e-23
1.6582863e-23
1.6585462e-23
1.6609494e-23
1.6594004e-23
1.6586175e-23
1.6582616e-23
1.6581194e-23
1.6580741e-23
1.658077e-23
1.6581233e-23
1.6582421e-23
1.6585025e-23
1.6609475e-23
1.6594e-23
1.6586187e-23
1.6582638e-23
1.6581221e-23
1.658077e-23
1.6580801e-23
1.6581265e-23
1.6582455e-23
1.658506e-23
1.6609817e-23
1.6594388e-23
1.6586614e-23
1.6583087e-23
1.658168e-23
1.6581233e-23
1.6581265e-23
1.658173e-23
1.6582921e-23
1.6585527e-23
1.6610719e-23
1.659543e-23
1.6587743e-23
1.6584255e-23
1.6582863e-23
1.6582421e-23
1.6582455e-23
1.6582921e-23
1.6584113e-23
1.6586721e-23
1.6612688e-23
1.6597831e-23
1.6590281e-23
1.6586839e-23
1.6585462e-23
1.6585025e-23
1.658506e-23
1.6585527e-23
1.6586721e-23
1.6589335e-23
4.1886205e-23
4.1848493e-23
4.1829384e-23
4.1820678e-23
4.1817183e-23
4.1816032e-23
4.1815984e-23
4.181681e-23
4.181898e-23
4.1823665e-23
4.1848493e-23
4.181093e-23
4.1791872e-23
4.1783185e-23
4.17797e-23
4.1778563e-23
4.1778554e-23
4.1779495e-23
4.1782012e-23
4.1787771e-23
4.1829384e-23
4.1791872e-23
4.1772842e-23
4.176417e-23
4.1760694e-23
4.1759572e-23
4.1759602e-23
4.1760641e-23
4.176337e-23
4.1769472e-23
4.1820678e-23
4.1783185e-23
4.176417e-23
4.1755506e-23
4.1752036e-23
4.1750925e-23
4.1750979e-23
4.1752072e-23
4.1754899e-23
4.1761113e-23
4.1817183e-23
4.17797e-23
4.1760694e-23
4.1752036e-23
4.1748571e-23
4.1747466e-23
4.1747532e-23
4.1748649e-23
4.1751514e-23
4.1757766e-23
4.1816032e-23
4.1778563e-23
4.1759572e-23
4.1750925e-23
4.1747466e-23
4.1746365e-23
4.1746436e-23
4.1747563e-23
4.1750441e-23
4.1756704e-23
4.1815984e-23
4.1778554e-23
4.1759602e-23
4.1750979e-23
4.1747532e-23
4.1746436e-23
4.1746511e-23
4.1747641e-23
4.1750524e-23
4.1756791e-23
4.181681e-23
4.1779495e-23
4.1760641e-23
4.1752072e-23
4.1748649e-23
4.1747563e-23
4.1747641e-23
4.1748774e-23
4.1751658e-23
4.1757928e-23
4.181898e-23
4.1782012e-23
4.176337e-23
4.1754899e-23
4.1751514e-23
4.1750441e-23
4.1750524e-23
4.1751658e-23
4.1754546e-23
4.1760819e-23
4.1823665e-23
4.1787771e-23
4.1769472e-23
4.1761113e-23
4.1757766e-23
4.1756704e-23
4.1756791e-23
4.1757928e-23
4.1760819e-23
4.1767107e-23
1.0680043e-22
1.0670811e-22
1.0666119e-22
1.0663978e-22
1.0663118e-22
1.0662834e-22
1.0662822e-22
1.0663024e-22
1.0663553e-22
1.0664682e-22
1.0670811e-22
1.0661615e-22
1.0656935e-22
1.0654799e-22
1.0653941e-22
1.0653661e-22
1.0653659e-22
1.065389e-22
1.0654505e-22
1.0655904e-22
1.0666119e-22
1.0656935e-22
1.0652263e-22
1.065013e-22
1.0649275e-22
1.0648998e-22
1.0649006e-22
1.0649261e-22
1.064993e-22
1.0651415e-22
1.0663978e-22
1.0654799e-22
1.065013e-22
1.0647999e-22
1.0647145e-22
1.0646872e-22
1.0646885e-22
1.0647154e-22
1.0647848e-22
1.0649361e-22
1.0663118e-22
1.0653941e-22
1.0649275e-22
1.0647145e-22
1.0646292e-22
1.064602e-22
1.0646037e-22
1.0646312e-22
1.0647015e-22
1.0648538e-22
1.0662834e-22
1.0653661e-22
1.0648998e-22
1.0646872e-22
1.064602e-22
1.0645749e-22
1.0645767e-22
1.0646044e-22
1.0646751e-22
1.0648277e-22
1.0662822e-22
1.0653659e-22
1.0649006e-22
1.0646885e-22
1.0646037e-22
1.0645767e-22
1.0645786e-22
1.0646064e-22
1.0646771e-22
1.0648298e-22
1.0663024e-22
1.065389e-22
1.0649261e-22
1.0647154e-22
1.0646312e-22
1.0646044e-22
1.0646064e-22
1.0646343e-22
1.0647051e-22
1.0648579e-22
1.0663553e-22
1.0654505e-22
1.064993e-22
1.0647848e-22
1.0647015e-22
1.0646751e-22
1.0646771e-22
1.0647051e-22
1.0647759e-22
1.0649288e-22
1.0664682e-22
1.0655904e-22
1.0651415e-22
1.0649361e-22
1.0648538e-22
1.0648277e-22
1.0648298e-22
1.0648579e-22