/*--------------------------------*- C++ -*----------------------------------*\
| =========                 |                                                 |
| \\      /  F ield         | OpenFOAM: The Open Source CFD Toolbox           |
|  \\    /   O peration     | Version:  dev                                   |
|   \\  /    A nd           | Web:      www.OpenFOAM.org                      |
|    \\/     M anipulation  |                                                 |
\*---------------------------------------------------------------------------*/
FoamFile
{
    version     2.0;
    format      ascii;
    class       volScalarField;
    location    "21";
    object      A;
}
// * * * * * * * * * * * * * * * * * * * * * * * * * * * * * * * * * * * * * //

dimensions      [0 0 0 0 1 0 0];

internalField   nonuniform List<scalar> 
10000
(
2.0842435e-52
2.0840053e-52
2.0838964e-52
2.0838506e-52
2.0838336e-52
2.083828e-52
2.0838268e-52
2.0838274e-52
2.0838303e-52
2.0838396e-52
2.0840053e-52
2.0837671e-52
2.0836583e-52
2.0836125e-52
2.0835954e-52
2.0835899e-52
2.0835887e-52
2.0835897e-52
2.0835935e-52
2.0836054e-52
2.0838964e-52
2.0836583e-52
2.0835496e-52
2.0835038e-52
2.0834867e-52
2.0834812e-52
2.0834801e-52
2.0834812e-52
2.0834856e-52
2.0834983e-52
2.0838506e-52
2.0836125e-52
2.0835038e-52
2.083458e-52
2.0834409e-52
2.0834355e-52
2.0834344e-52
2.0834356e-52
2.0834402e-52
2.0834532e-52
2.0838336e-52
2.0835954e-52
2.0834867e-52
2.0834409e-52
2.0834239e-52
2.0834184e-52
2.0834174e-52
2.0834187e-52
2.0834233e-52
2.0834364e-52
2.083828e-52
2.0835899e-52
2.0834812e-52
2.0834355e-52
2.0834184e-52
2.083413e-52
2.083412e-52
2.0834133e-52
2.0834179e-52
2.083431e-52
2.0838268e-52
2.0835887e-52
2.0834801e-52
2.0834344e-52
2.0834174e-52
2.083412e-52
2.0834109e-52
2.0834122e-52
2.0834169e-52
2.08343e-52
2.0838274e-52
2.0835897e-52
2.0834812e-52
2.0834356e-52
2.0834187e-52
2.0834133e-52
2.0834122e-52
2.0834135e-52
2.0834182e-52
2.0834313e-52
2.0838303e-52
2.0835935e-52
2.0834856e-52
2.0834402e-52
2.0834233e-52
2.0834179e-52
2.0834169e-52
2.0834182e-52
2.0834228e-52
2.083436e-52
2.0838396e-52
2.0836054e-52
2.0834983e-52
2.0834532e-52
2.0834364e-52
2.083431e-52
2.08343e-52
2.0834313e-52
2.083436e-52
2.0834491e-52
1.0017394e-51
1.0016282e-51
1.0015767e-51
1.0015551e-51
1.001547e-51
1.0015444e-51
1.0015438e-51
1.0015441e-51
1.0015455e-51
1.00155e-51
1.0016282e-51
1.001517e-51
1.0014656e-51
1.0014439e-51
1.0014359e-51
1.0014333e-51
1.0014327e-51
1.0014331e-51
1.0014349e-51
1.0014407e-51
1.0015767e-51
1.0014656e-51
1.0014142e-51
1.0013925e-51
1.0013845e-51
1.0013819e-51
1.0013814e-51
1.0013819e-51
1.0013839e-51
1.0013901e-51
1.0015551e-51
1.0014439e-51
1.0013925e-51
1.0013709e-51
1.0013628e-51
1.0013602e-51
1.0013597e-51
1.0013603e-51
1.0013625e-51
1.0013688e-51
1.001547e-51
1.0014359e-51
1.0013845e-51
1.0013628e-51
1.0013547e-51
1.0013522e-51
1.0013517e-51
1.0013523e-51
1.0013545e-51
1.0013608e-51
1.0015444e-51
1.0014333e-51
1.0013819e-51
1.0013602e-51
1.0013522e-51
1.0013496e-51
1.0013491e-51
1.0013497e-51
1.0013519e-51
1.0013583e-51
1.0015438e-51
1.0014327e-51
1.0013814e-51
1.0013597e-51
1.0013517e-51
1.0013491e-51
1.0013486e-51
1.0013492e-51
1.0013514e-51
1.0013578e-51
1.0015441e-51
1.0014331e-51
1.0013819e-51
1.0013603e-51
1.0013523e-51
1.0013497e-51
1.0013492e-51
1.0013499e-51
1.0013521e-51
1.0013585e-51
1.0015455e-51
1.0014349e-51
1.0013839e-51
1.0013625e-51
1.0013545e-51
1.0013519e-51
1.0013514e-51
1.0013521e-51
1.0013543e-51
1.0013607e-51
1.00155e-51
1.0014407e-51
1.0013901e-51
1.0013688e-51
1.0013608e-51
1.0013583e-51
1.0013578e-51
1.0013585e-51
1.0013607e-51
1.001367e-51
3.6702376e-51
3.6698417e-51
3.6696578e-51
3.6695801e-51
3.6695512e-51
3.6695418e-51
3.6695396e-51
3.6695407e-51
3.6695456e-51
3.6695617e-51
3.6698417e-51
3.669446e-51
3.6692621e-51
3.6691845e-51
3.6691555e-51
3.6691462e-51
3.6691442e-51
3.6691457e-51
3.6691521e-51
3.6691729e-51
3.6696578e-51
3.6692621e-51
3.6690783e-51
3.6690007e-51
3.6689717e-51
3.6689625e-51
3.6689606e-51
3.6689625e-51
3.6689698e-51
3.668992e-51
3.6695801e-51
3.6691845e-51
3.6690007e-51
3.6689231e-51
3.6688941e-51
3.6688849e-51
3.6688831e-51
3.6688852e-51
3.6688929e-51
3.6689155e-51
3.6695512e-51
3.6691555e-51
3.6689717e-51
3.6688941e-51
3.6688652e-51
3.668856e-51
3.6688542e-51
3.6688564e-51
3.6688642e-51
3.668887e-51
3.6695418e-51
3.6691462e-51
3.6689625e-51
3.6688849e-51
3.668856e-51
3.6688468e-51
3.668845e-51
3.6688472e-51
3.6688551e-51
3.6688779e-51
3.6695396e-51
3.6691442e-51
3.6689606e-51
3.6688831e-51
3.6688542e-51
3.668845e-51
3.6688433e-51
3.6688455e-51
3.6688534e-51
3.6688762e-51
3.6695407e-51
3.6691457e-51
3.6689625e-51
3.6688852e-51
3.6688564e-51
3.6688472e-51
3.6688455e-51
3.6688478e-51
3.6688556e-51
3.6688785e-51
3.6695456e-51
3.6691521e-51
3.6689698e-51
3.6688929e-51
3.6688642e-51
3.6688551e-51
3.6688534e-51
3.6688556e-51
3.6688635e-51
3.6688864e-51
3.6695617e-51
3.6691729e-51
3.668992e-51
3.6689155e-51
3.668887e-51
3.6688779e-51
3.6688762e-51
3.6688785e-51
3.6688864e-51
3.6689092e-51
1.3449008e-50
1.3447599e-50
1.3446942e-50
1.3446664e-50
1.3446561e-50
1.3446527e-50
1.344652e-50
1.3446523e-50
1.3446541e-50
1.3446597e-50
1.3447599e-50
1.3446191e-50
1.3445534e-50
1.3445257e-50
1.3445153e-50
1.344512e-50
1.3445112e-50
1.3445118e-50
1.3445141e-50
1.3445214e-50
1.3446942e-50
1.3445534e-50
1.3444878e-50
1.34446e-50
1.3444497e-50
1.3444463e-50
1.3444457e-50
1.3444464e-50
1.344449e-50
1.3444568e-50
1.3446664e-50
1.3445257e-50
1.34446e-50
1.3444323e-50
1.3444219e-50
1.3444186e-50
1.344418e-50
1.3444187e-50
1.3444215e-50
1.3444294e-50
1.3446561e-50
1.3445153e-50
1.3444497e-50
1.3444219e-50
1.3444116e-50
1.3444083e-50
1.3444076e-50
1.3444084e-50
1.3444112e-50
1.3444192e-50
1.3446527e-50
1.344512e-50
1.3444463e-50
1.3444186e-50
1.3444083e-50
1.344405e-50
1.3444043e-50
1.3444051e-50
1.3444079e-50
1.344416e-50
1.344652e-50
1.3445112e-50
1.3444457e-50
1.344418e-50
1.3444076e-50
1.3444043e-50
1.3444037e-50
1.3444045e-50
1.3444073e-50
1.3444154e-50
1.3446523e-50
1.3445118e-50
1.3444464e-50
1.3444187e-50
1.3444084e-50
1.3444051e-50
1.3444045e-50
1.3444053e-50
1.3444081e-50
1.3444162e-50
1.3446541e-50
1.3445141e-50
1.344449e-50
1.3444215e-50
1.3444112e-50
1.3444079e-50
1.3444073e-50
1.3444081e-50
1.3444109e-50
1.344419e-50
1.3446597e-50
1.3445214e-50
1.3444568e-50
1.3444294e-50
1.3444192e-50
1.344416e-50
1.3444154e-50
1.3444162e-50
1.344419e-50
1.344427e-50
5.0190487e-50
5.0185384e-50
5.0182997e-50
5.0181986e-50
5.0181608e-50
5.0181486e-50
5.0181458e-50
5.0181472e-50
5.0181535e-50
5.0181732e-50
5.0185384e-50
5.0180284e-50
5.0177897e-50
5.0176886e-50
5.0176509e-50
5.0176387e-50
5.0176361e-50
5.0176381e-50
5.0176464e-50
5.0176724e-50
5.0182997e-50
5.0177897e-50
5.0175511e-50
5.01745e-50
5.0174123e-50
5.0174002e-50
5.0173978e-50
5.0174003e-50
5.0174097e-50
5.0174377e-50
5.0181986e-50
5.0176886e-50
5.01745e-50
5.017349e-50
5.0173113e-50
5.0172992e-50
5.0172969e-50
5.0172997e-50
5.0173096e-50
5.0173382e-50
5.0181608e-50
5.0176509e-50
5.0174123e-50
5.0173113e-50
5.0172736e-50
5.0172615e-50
5.0172593e-50
5.0172622e-50
5.0172723e-50
5.017301e-50
5.0181486e-50
5.0176387e-50
5.0174002e-50
5.0172992e-50
5.0172615e-50
5.0172495e-50
5.0172473e-50
5.0172502e-50
5.0172604e-50
5.0172892e-50
5.0181458e-50
5.0176361e-50
5.0173978e-50
5.0172969e-50
5.0172593e-50
5.0172473e-50
5.017245e-50
5.017248e-50
5.0172582e-50
5.017287e-50
5.0181472e-50
5.0176381e-50
5.0174003e-50
5.0172997e-50
5.0172622e-50
5.0172502e-50
5.017248e-50
5.0172509e-50
5.0172611e-50
5.01729e-50
5.0181535e-50
5.0176464e-50
5.0174097e-50
5.0173096e-50
5.0172723e-50
5.0172604e-50
5.0172582e-50
5.0172611e-50
5.0172713e-50
5.0173002e-50
5.0181732e-50
5.0176724e-50
5.0174377e-50
5.0173382e-50
5.017301e-50
5.0172892e-50
5.017287e-50
5.01729e-50
5.0173002e-50
5.017329e-50
1.9103201e-49
1.9101316e-49
1.9100432e-49
1.9100057e-49
1.9099916e-49
1.9099871e-49
1.909986e-49
1.9099866e-49
1.9099889e-49
1.909996e-49
1.9101316e-49
1.9099433e-49
1.9098548e-49
1.9098173e-49
1.9098033e-49
1.9097988e-49
1.9097978e-49
1.9097986e-49
1.9098016e-49
1.9098111e-49
1.9100432e-49
1.9098548e-49
1.9097664e-49
1.9097289e-49
1.9097149e-49
1.9097104e-49
1.9097095e-49
1.9097105e-49
1.909714e-49
1.9097242e-49
1.9100057e-49
1.9098173e-49
1.9097289e-49
1.9096914e-49
1.9096774e-49
1.909673e-49
1.9096721e-49
1.9096731e-49
1.9096768e-49
1.9096872e-49
1.9099916e-49
1.9098033e-49
1.9097149e-49
1.9096774e-49
1.9096634e-49
1.909659e-49
1.9096581e-49
1.9096592e-49
1.909663e-49
1.9096735e-49
1.9099871e-49
1.9097988e-49
1.9097104e-49
1.909673e-49
1.909659e-49
1.9096545e-49
1.9096537e-49
1.9096548e-49
1.9096585e-49
1.9096691e-49
1.909986e-49
1.9097978e-49
1.9097095e-49
1.9096721e-49
1.9096581e-49
1.9096537e-49
1.9096528e-49
1.9096539e-49
1.9096577e-49
1.9096682e-49
1.9099866e-49
1.9097986e-49
1.9097105e-49
1.9096731e-49
1.9096592e-49
1.9096548e-49
1.9096539e-49
1.909655e-49
1.9096588e-49
1.9096694e-49
1.9099889e-49
1.9098016e-49
1.909714e-49
1.9096768e-49
1.909663e-49
1.9096585e-49
1.9096577e-49
1.9096588e-49
1.9096626e-49
1.9096731e-49
1.909996e-49
1.9098111e-49
1.9097242e-49
1.9096872e-49
1.9096735e-49
1.9096691e-49
1.9096682e-49
1.9096694e-49
1.9096731e-49
1.9096837e-49
7.4167198e-49
7.4160103e-49
7.4156762e-49
7.4155342e-49
7.4154811e-49
7.415464e-49
7.41546e-49
7.415462e-49
7.4154707e-49
7.4154968e-49
7.4160103e-49
7.4153011e-49
7.414967e-49
7.4148251e-49
7.4147721e-49
7.414755e-49
7.4147513e-49
7.4147542e-49
7.4147657e-49
7.4148008e-49
7.4156762e-49
7.414967e-49
7.414633e-49
7.4144912e-49
7.4144382e-49
7.4144212e-49
7.4144178e-49
7.4144214e-49
7.4144345e-49
7.4144725e-49
7.4155342e-49
7.4148251e-49
7.4144912e-49
7.4143493e-49
7.4142963e-49
7.4142794e-49
7.4142761e-49
7.4142801e-49
7.414294e-49
7.4143329e-49
7.4154811e-49
7.4147721e-49
7.4144382e-49
7.4142963e-49
7.4142433e-49
7.4142264e-49
7.4142233e-49
7.4142274e-49
7.4142416e-49
7.4142807e-49
7.415464e-49
7.414755e-49
7.4144212e-49
7.4142794e-49
7.4142264e-49
7.4142095e-49
7.4142064e-49
7.4142106e-49
7.4142249e-49
7.4142641e-49
7.41546e-49
7.4147513e-49
7.4144178e-49
7.4142761e-49
7.4142233e-49
7.4142064e-49
7.4142033e-49
7.4142075e-49
7.4142218e-49
7.414261e-49
7.415462e-49
7.4147542e-49
7.4144214e-49
7.4142801e-49
7.4142274e-49
7.4142106e-49
7.4142075e-49
7.4142117e-49
7.414226e-49
7.4142653e-49
7.4154707e-49
7.4147657e-49
7.4144345e-49
7.414294e-49
7.4142416e-49
7.4142249e-49
7.4142218e-49
7.414226e-49
7.4142403e-49
7.4142796e-49
7.4154968e-49
7.4148008e-49
7.4144725e-49
7.4143329e-49
7.4142807e-49
7.4142641e-49
7.414261e-49
7.4142653e-49
7.4142796e-49
7.4143188e-49
2.9373937e-48
2.9371212e-48
2.9369925e-48
2.9369378e-48
2.9369173e-48
2.9369107e-48
2.9369092e-48
2.9369099e-48
2.9369132e-48
2.936923e-48
2.9371212e-48
2.9368489e-48
2.9367203e-48
2.9366656e-48
2.9366451e-48
2.9366385e-48
2.9366371e-48
2.9366382e-48
2.9366426e-48
2.9366559e-48
2.9369925e-48
2.9367203e-48
2.9365916e-48
2.9365369e-48
2.9365165e-48
2.9365099e-48
2.9365086e-48
2.93651e-48
2.9365151e-48
2.9365295e-48
2.9369378e-48
2.9366656e-48
2.9365369e-48
2.9364822e-48
2.9364618e-48
2.9364552e-48
2.936454e-48
2.9364555e-48
2.9364609e-48
2.9364757e-48
2.9369173e-48
2.9366451e-48
2.9365165e-48
2.9364618e-48
2.9364413e-48
2.9364348e-48
2.9364336e-48
2.9364352e-48
2.9364407e-48
2.9364555e-48
2.9369107e-48
2.9366385e-48
2.9365099e-48
2.9364552e-48
2.9364348e-48
2.9364283e-48
2.9364271e-48
2.9364287e-48
2.9364342e-48
2.9364491e-48
2.9369092e-48
2.9366371e-48
2.9365086e-48
2.936454e-48
2.9364336e-48
2.9364271e-48
2.9364259e-48
2.9364275e-48
2.936433e-48
2.9364479e-48
2.9369099e-48
2.9366382e-48
2.93651e-48
2.9364555e-48
2.9364352e-48
2.9364287e-48
2.9364275e-48
2.9364292e-48
2.9364347e-48
2.9364496e-48
2.9369132e-48
2.9366426e-48
2.9365151e-48
2.9364609e-48
2.9364407e-48
2.9364342e-48
2.936433e-48
2.9364347e-48
2.9364402e-48
2.9364551e-48
2.936923e-48
2.9366559e-48
2.9365295e-48
2.9364757e-48
2.9364555e-48
2.9364491e-48
2.9364479e-48
2.9364496e-48
2.9364551e-48
2.9364701e-48
1.1867882e-47
1.1866816e-47
1.186631e-47
1.1866095e-47
1.1866014e-47
1.1865988e-47
1.1865982e-47
1.1865985e-47
1.1865998e-47
1.1866036e-47
1.1866816e-47
1.186575e-47
1.1865244e-47
1.1865029e-47
1.1864949e-47
1.1864923e-47
1.1864917e-47
1.1864922e-47
1.1864939e-47
1.186499e-47
1.186631e-47
1.1865244e-47
1.1864739e-47
1.1864524e-47
1.1864444e-47
1.1864418e-47
1.1864413e-47
1.1864418e-47
1.1864438e-47
1.1864494e-47
1.1866095e-47
1.1865029e-47
1.1864524e-47
1.1864309e-47
1.1864228e-47
1.1864203e-47
1.1864198e-47
1.1864204e-47
1.1864225e-47
1.1864282e-47
1.1866014e-47
1.1864949e-47
1.1864444e-47
1.1864228e-47
1.1864148e-47
1.1864122e-47
1.1864117e-47
1.1864124e-47
1.1864145e-47
1.1864203e-47
1.1865988e-47
1.1864923e-47
1.1864418e-47
1.1864203e-47
1.1864122e-47
1.1864097e-47
1.1864092e-47
1.1864098e-47
1.186412e-47
1.1864178e-47
1.1865982e-47
1.1864917e-47
1.1864413e-47
1.1864198e-47
1.1864117e-47
1.1864092e-47
1.1864087e-47
1.1864094e-47
1.1864115e-47
1.1864173e-47
1.1865985e-47
1.1864922e-47
1.1864418e-47
1.1864204e-47
1.1864124e-47
1.1864098e-47
1.1864094e-47
1.18641e-47
1.1864122e-47
1.186418e-47
1.1865998e-47
1.1864939e-47
1.1864438e-47
1.1864225e-47
1.1864145e-47
1.186412e-47
1.1864115e-47
1.1864122e-47
1.1864144e-47
1.1864202e-47
1.1866036e-47
1.186499e-47
1.1864494e-47
1.1864282e-47
1.1864203e-47
1.1864178e-47
1.1864173e-47
1.186418e-47
1.1864202e-47
1.186426e-47
4.8916617e-47
4.891236e-47
4.8910336e-47
4.8909473e-47
4.890915e-47
4.8909045e-47
4.8909021e-47
4.8909033e-47
4.8909085e-47
4.8909231e-47
4.891236e-47
4.8908105e-47
4.8906081e-47
4.8905219e-47
4.8904895e-47
4.8904791e-47
4.8904769e-47
4.8904787e-47
4.8904856e-47
4.890506e-47
4.8910336e-47
4.8906081e-47
4.8904059e-47
4.8903196e-47
4.8902873e-47
4.8902769e-47
4.8902749e-47
4.8902771e-47
4.8902851e-47
4.8903073e-47
4.8909473e-47
4.8905219e-47
4.8903196e-47
4.8902333e-47
4.890201e-47
4.8901907e-47
4.8901888e-47
4.8901913e-47
4.8901997e-47
4.8902225e-47
4.890915e-47
4.8904895e-47
4.8902873e-47
4.890201e-47
4.8901688e-47
4.8901585e-47
4.8901566e-47
4.8901592e-47
4.8901678e-47
4.8901907e-47
4.8909045e-47
4.8904791e-47
4.8902769e-47
4.8901907e-47
4.8901585e-47
4.8901482e-47
4.8901463e-47
4.8901489e-47
4.8901576e-47
4.8901806e-47
4.8909021e-47
4.8904769e-47
4.8902749e-47
4.8901888e-47
4.8901566e-47
4.8901463e-47
4.8901444e-47
4.8901471e-47
4.8901558e-47
4.8901787e-47
4.8909033e-47
4.8904787e-47
4.8902771e-47
4.8901913e-47
4.8901592e-47
4.8901489e-47
4.8901471e-47
4.8901497e-47
4.8901584e-47
4.8901814e-47
4.8909085e-47
4.8904856e-47
4.8902851e-47
4.8901997e-47
4.8901678e-47
4.8901576e-47
4.8901558e-47
4.8901584e-47
4.8901671e-47
4.8901901e-47
4.8909231e-47
4.890506e-47
4.8903073e-47
4.8902225e-47
4.8901907e-47
4.8901806e-47
4.8901787e-47
4.8901814e-47
4.8901901e-47
4.8902131e-47
2.0569233e-46
2.05675e-46
2.0566674e-46
2.0566321e-46
2.0566189e-46
2.0566146e-46
2.0566136e-46
2.0566141e-46
2.0566162e-46
2.0566221e-46
2.05675e-46
2.0565768e-46
2.0564942e-46
2.0564589e-46
2.0564457e-46
2.0564415e-46
2.0564406e-46
2.0564413e-46
2.0564441e-46
2.0564523e-46
2.0566674e-46
2.0564942e-46
2.0564116e-46
2.0563764e-46
2.0563632e-46
2.0563589e-46
2.0563581e-46
2.056359e-46
2.0563623e-46
2.0563712e-46
2.0566321e-46
2.0564589e-46
2.0563764e-46
2.0563411e-46
2.0563279e-46
2.0563237e-46
2.0563229e-46
2.0563239e-46
2.0563274e-46
2.0563366e-46
2.0566189e-46
2.0564457e-46
2.0563632e-46
2.0563279e-46
2.0563147e-46
2.0563105e-46
2.0563097e-46
2.0563108e-46
2.0563143e-46
2.0563236e-46
2.0566146e-46
2.0564415e-46
2.0563589e-46
2.0563237e-46
2.0563105e-46
2.0563063e-46
2.0563055e-46
2.0563066e-46
2.0563102e-46
2.0563194e-46
2.0566136e-46
2.0564406e-46
2.0563581e-46
2.0563229e-46
2.0563097e-46
2.0563055e-46
2.0563047e-46
2.0563058e-46
2.0563094e-46
2.0563187e-46
2.0566141e-46
2.0564413e-46
2.056359e-46
2.0563239e-46
2.0563108e-46
2.0563066e-46
2.0563058e-46
2.0563069e-46
2.0563105e-46
2.0563198e-46
2.0566162e-46
2.0564441e-46
2.0563623e-46
2.0563274e-46
2.0563143e-46
2.0563102e-46
2.0563094e-46
2.0563105e-46
2.0563141e-46
2.0563234e-46
2.0566221e-46
2.0564523e-46
2.0563712e-46
2.0563366e-46
2.0563236e-46
2.0563194e-46
2.0563187e-46
2.0563198e-46
2.0563234e-46
2.0563327e-46
8.8238781e-46
8.8231588e-46
8.8228149e-46
8.8226679e-46
8.8226127e-46
8.8225948e-46
8.8225908e-46
8.8225929e-46
8.8226015e-46
8.8226253e-46
8.8231588e-46
8.8224399e-46
8.822096e-46
8.821949e-46
8.8218939e-46
8.8218761e-46
8.8218724e-46
8.8218755e-46
8.8218873e-46
8.821921e-46
8.8228149e-46
8.822096e-46
8.8217523e-46
8.8216053e-46
8.8215502e-46
8.8215325e-46
8.821529e-46
8.821533e-46
8.8215467e-46
8.8215835e-46
8.8226679e-46
8.821949e-46
8.8216053e-46
8.8214583e-46
8.8214032e-46
8.8213856e-46
8.8213823e-46
8.8213867e-46
8.8214012e-46
8.8214391e-46
8.8226127e-46
8.8218939e-46
8.8215502e-46
8.8214032e-46
8.8213481e-46
8.8213306e-46
8.8213274e-46
8.8213319e-46
8.8213467e-46
8.8213849e-46
8.8225948e-46
8.8218761e-46
8.8215325e-46
8.8213856e-46
8.8213306e-46
8.821313e-46
8.8213099e-46
8.8213144e-46
8.8213293e-46
8.8213676e-46
8.8225908e-46
8.8218724e-46
8.821529e-46
8.8213823e-46
8.8213274e-46
8.8213099e-46
8.8213067e-46
8.8213113e-46
8.8213262e-46
8.8213646e-46
8.8225929e-46
8.8218755e-46
8.821533e-46
8.8213867e-46
8.8213319e-46
8.8213144e-46
8.8213113e-46
8.8213159e-46
8.8213309e-46
8.8213692e-46
8.8226015e-46
8.8218873e-46
8.8215467e-46
8.8214012e-46
8.8213467e-46
8.8213293e-46
8.8213262e-46
8.8213309e-46
8.8213458e-46
8.8213841e-46
8.8226253e-46
8.821921e-46
8.8215835e-46
8.8214391e-46
8.8213849e-46
8.8213676e-46
8.8213646e-46
8.8213692e-46
8.8213841e-46
8.8214225e-46
3.8616816e-45
3.8613772e-45
3.8612312e-45
3.8611687e-45
3.8611453e-45
3.8611377e-45
3.861136e-45
3.8611369e-45
3.8611405e-45
3.8611504e-45
3.8613772e-45
3.8610729e-45
3.860927e-45
3.8608645e-45
3.8608411e-45
3.8608335e-45
3.8608319e-45
3.8608333e-45
3.8608383e-45
3.8608525e-45
3.8612312e-45
3.860927e-45
3.8607811e-45
3.8607186e-45
3.8606952e-45
3.8606877e-45
3.8606862e-45
3.8606879e-45
3.8606937e-45
3.8607093e-45
3.8611687e-45
3.8608645e-45
3.8607186e-45
3.8606562e-45
3.8606327e-45
3.8606253e-45
3.8606239e-45
3.8606258e-45
3.8606319e-45
3.8606479e-45
3.8611453e-45
3.8608411e-45
3.8606952e-45
3.8606327e-45
3.8606093e-45
3.8606019e-45
3.8606005e-45
3.8606025e-45
3.8606088e-45
3.8606249e-45
3.8611377e-45
3.8608335e-45
3.8606877e-45
3.8606253e-45
3.8606019e-45
3.8605944e-45
3.8605931e-45
3.860595e-45
3.8606014e-45
3.8606175e-45
3.861136e-45
3.8608319e-45
3.8606862e-45
3.8606239e-45
3.8606005e-45
3.8605931e-45
3.8605917e-45
3.8605937e-45
3.8606001e-45
3.8606162e-45
3.8611369e-45
3.8608333e-45
3.8606879e-45
3.8606258e-45
3.8606025e-45
3.860595e-45
3.8605937e-45
3.8605957e-45
3.8606021e-45
3.8606182e-45
3.8611405e-45
3.8608383e-45
3.8606937e-45
3.8606319e-45
3.8606088e-45
3.8606014e-45
3.8606001e-45
3.8606021e-45
3.8606085e-45
3.8606246e-45
3.8611504e-45
3.8608525e-45
3.8607093e-45
3.8606479e-45
3.8606249e-45
3.8606175e-45
3.8606162e-45
3.8606182e-45
3.8606246e-45
3.8606407e-45
1.7240874e-44
1.723956e-44
1.7238929e-44
1.7238658e-44
1.7238556e-44
1.7238523e-44
1.7238516e-44
1.723852e-44
1.7238536e-44
1.7238577e-44
1.723956e-44
1.7238247e-44
1.7237616e-44
1.7237345e-44
1.7237244e-44
1.7237211e-44
1.7237204e-44
1.723721e-44
1.7237232e-44
1.7237292e-44
1.7238929e-44
1.7237616e-44
1.7236985e-44
1.7236714e-44
1.7236612e-44
1.723658e-44
1.7236573e-44
1.7236581e-44
1.7236606e-44
1.7236673e-44
1.7238658e-44
1.7237345e-44
1.7236714e-44
1.7236443e-44
1.7236342e-44
1.7236309e-44
1.7236303e-44
1.7236312e-44
1.7236339e-44
1.7236407e-44
1.7238556e-44
1.7237244e-44
1.7236612e-44
1.7236342e-44
1.723624e-44
1.7236208e-44
1.7236202e-44
1.7236211e-44
1.7236238e-44
1.7236307e-44
1.7238523e-44
1.7237211e-44
1.723658e-44
1.7236309e-44
1.7236208e-44
1.7236176e-44
1.723617e-44
1.7236179e-44
1.7236206e-44
1.7236276e-44
1.7238516e-44
1.7237204e-44
1.7236573e-44
1.7236303e-44
1.7236202e-44
1.723617e-44
1.7236164e-44
1.7236173e-44
1.7236201e-44
1.723627e-44
1.723852e-44
1.723721e-44
1.7236581e-44
1.7236312e-44
1.7236211e-44
1.7236179e-44
1.7236173e-44
1.7236182e-44
1.7236209e-44
1.7236279e-44
1.7238536e-44
1.7237232e-44
1.7236606e-44
1.7236339e-44
1.7236238e-44
1.7236206e-44
1.7236201e-44
1.7236209e-44
1.7236237e-44
1.7236306e-44
1.7238577e-44
1.7237292e-44
1.7236673e-44
1.7236407e-44
1.7236307e-44
1.7236276e-44
1.723627e-44
1.7236279e-44
1.7236306e-44
1.7236376e-44
7.8522189e-44
7.851641e-44
7.8513624e-44
7.8512428e-44
7.8511979e-44
7.8511833e-44
7.85118e-44
7.8511818e-44
7.8511888e-44
7.8512068e-44
7.851641e-44
7.8510634e-44
7.8507848e-44
7.8506653e-44
7.8506204e-44
7.8506059e-44
7.8506029e-44
7.8506055e-44
7.8506151e-44
7.8506417e-44
7.8513624e-44
7.8507848e-44
7.8505063e-44
7.8503868e-44
7.8503419e-44
7.8503275e-44
7.8503247e-44
7.8503281e-44
7.8503393e-44
7.8503685e-44
7.8512428e-44
7.8506653e-44
7.8503868e-44
7.8502673e-44
7.8502224e-44
7.8502081e-44
7.8502055e-44
7.8502091e-44
7.8502211e-44
7.8502511e-44
7.8511979e-44
7.8506204e-44
7.8503419e-44
7.8502224e-44
7.8501776e-44
7.8501633e-44
7.8501607e-44
7.8501645e-44
7.8501767e-44
7.8502071e-44
7.8511833e-44
7.8506059e-44
7.8503275e-44
7.8502081e-44
7.8501633e-44
7.850149e-44
7.8501464e-44
7.8501503e-44
7.8501626e-44
7.850193e-44
7.85118e-44
7.8506029e-44
7.8503247e-44
7.8502055e-44
7.8501607e-44
7.8501464e-44
7.8501439e-44
7.8501478e-44
7.8501601e-44
7.8501906e-44
7.8511818e-44
7.8506055e-44
7.8503281e-44
7.8502091e-44
7.8501645e-44
7.8501503e-44
7.8501478e-44
7.8501517e-44
7.850164e-44
7.8501945e-44
7.8511888e-44
7.8506151e-44
7.8503393e-44
7.8502211e-44
7.8501767e-44
7.8501626e-44
7.8501601e-44
7.850164e-44
7.8501764e-44
7.8502068e-44
7.8512068e-44
7.8506417e-44
7.8503685e-44
7.8502511e-44
7.8502071e-44
7.850193e-44
7.8501906e-44
7.8501945e-44
7.8502068e-44
7.8502372e-44
3.6479951e-43
3.647736e-43
3.6476107e-43
3.6475568e-43
3.6475366e-43
3.64753e-43
3.6475285e-43
3.6475294e-43
3.6475325e-43
3.6475404e-43
3.647736e-43
3.6474769e-43
3.6473516e-43
3.6472978e-43
3.6472776e-43
3.647271e-43
3.6472697e-43
3.6472709e-43
3.6472752e-43
3.6472871e-43
3.6476107e-43
3.6473516e-43
3.6472264e-43
3.6471725e-43
3.6471523e-43
3.6471458e-43
3.6471446e-43
3.6471461e-43
3.6471512e-43
3.6471643e-43
3.6475568e-43
3.6472978e-43
3.6471725e-43
3.6471187e-43
3.6470985e-43
3.6470921e-43
3.6470909e-43
3.6470926e-43
3.647098e-43
3.6471114e-43
3.6475366e-43
3.6472776e-43
3.6471523e-43
3.6470985e-43
3.6470783e-43
3.6470719e-43
3.6470707e-43
3.6470725e-43
3.647078e-43
3.6470916e-43
3.64753e-43
3.647271e-43
3.6471458e-43
3.6470921e-43
3.6470719e-43
3.6470655e-43
3.6470643e-43
3.6470661e-43
3.6470717e-43
3.6470853e-43
3.6475285e-43
3.6472697e-43
3.6471446e-43
3.6470909e-43
3.6470707e-43
3.6470643e-43
3.6470632e-43
3.647065e-43
3.6470706e-43
3.6470842e-43
3.6475294e-43
3.6472709e-43
3.6471461e-43
3.6470926e-43
3.6470725e-43
3.6470661e-43
3.647065e-43
3.6470668e-43
3.6470723e-43
3.647086e-43
3.6475325e-43
3.6472752e-43
3.6471512e-43
3.647098e-43
3.647078e-43
3.6470717e-43
3.6470706e-43
3.6470723e-43
3.6470779e-43
3.6470915e-43
3.6475404e-43
3.6472871e-43
3.6471643e-43
3.6471114e-43
3.6470916e-43
3.6470853e-43
3.6470842e-43
3.647086e-43
3.6470915e-43
3.6471052e-43
1.7286893e-42
1.7285708e-42
1.7285134e-42
1.7284887e-42
1.7284794e-42
1.7284764e-42
1.7284757e-42
1.7284761e-42
1.7284775e-42
1.7284811e-42
1.7285708e-42
1.7284524e-42
1.728395e-42
1.7283703e-42
1.728361e-42
1.728358e-42
1.7283574e-42
1.7283579e-42
1.7283599e-42
1.7283653e-42
1.7285134e-42
1.728395e-42
1.7283375e-42
1.7283128e-42
1.7283036e-42
1.7283006e-42
1.7283e-42
1.7283007e-42
1.7283031e-42
1.728309e-42
1.7284887e-42
1.7283703e-42
1.7283128e-42
1.7282882e-42
1.7282789e-42
1.7282759e-42
1.7282754e-42
1.7282762e-42
1.7282787e-42
1.7282848e-42
1.7284794e-42
1.728361e-42
1.7283036e-42
1.7282789e-42
1.7282696e-42
1.7282666e-42
1.7282661e-42
1.7282669e-42
1.7282695e-42
1.7282757e-42
1.7284764e-42
1.728358e-42
1.7283006e-42
1.7282759e-42
1.7282666e-42
1.7282637e-42
1.7282632e-42
1.728264e-42
1.7282666e-42
1.7282728e-42
1.7284757e-42
1.7283574e-42
1.7283e-42
1.7282754e-42
1.7282661e-42
1.7282632e-42
1.7282627e-42
1.7282635e-42
1.7282661e-42
1.7282723e-42
1.7284761e-42
1.7283579e-42
1.7283007e-42
1.7282762e-42
1.7282669e-42
1.728264e-42
1.7282635e-42
1.7282643e-42
1.7282669e-42
1.7282731e-42
1.7284775e-42
1.7283599e-42
1.7283031e-42
1.7282787e-42
1.7282695e-42
1.7282666e-42
1.7282661e-42
1.7282669e-42
1.7282695e-42
1.7282757e-42
1.7284811e-42
1.7283653e-42
1.728309e-42
1.7282848e-42
1.7282757e-42
1.7282728e-42
1.7282723e-42
1.7282731e-42
1.7282757e-42
1.7282819e-42
8.3549921e-42
8.3544399e-42
8.3541715e-42
8.354056e-42
8.3540125e-42
8.3539984e-42
8.3539952e-42
8.353997e-42
8.3540037e-42
8.3540201e-42
8.3544399e-42
8.3538878e-42
8.3536196e-42
8.353504e-42
8.3534606e-42
8.3534466e-42
8.3534437e-42
8.3534463e-42
8.3534558e-42
8.3534808e-42
8.3541715e-42
8.3536196e-42
8.3533514e-42
8.3532358e-42
8.3531924e-42
8.3531785e-42
8.3531759e-42
8.3531792e-42
8.3531903e-42
8.353218e-42
8.354056e-42
8.353504e-42
8.3532358e-42
8.3531203e-42
8.3530769e-42
8.3530631e-42
8.3530606e-42
8.3530643e-42
8.3530761e-42
8.3531047e-42
8.3540125e-42
8.3534606e-42
8.3531924e-42
8.3530769e-42
8.3530335e-42
8.3530197e-42
8.3530173e-42
8.3530212e-42
8.3530332e-42
8.3530621e-42
8.3539984e-42
8.3534466e-42
8.3531785e-42
8.3530631e-42
8.3530197e-42
8.3530059e-42
8.3530035e-42
8.3530074e-42
8.3530195e-42
8.3530485e-42
8.3539952e-42
8.3534437e-42
8.3531759e-42
8.3530606e-42
8.3530173e-42
8.3530035e-42
8.3530012e-42
8.3530051e-42
8.3530172e-42
8.3530462e-42
8.353997e-42
8.3534463e-42
8.3531792e-42
8.3530643e-42
8.3530212e-42
8.3530074e-42
8.3530051e-42
8.353009e-42
8.3530212e-42
8.3530502e-42
8.3540037e-42
8.3534558e-42
8.3531903e-42
8.3530761e-42
8.3530332e-42
8.3530195e-42
8.3530172e-42
8.3530212e-42
8.3530333e-42
8.3530623e-42
8.3540201e-42
8.3534808e-42
8.353218e-42
8.3531047e-42
8.3530621e-42
8.3530485e-42
8.3530462e-42
8.3530502e-42
8.3530623e-42
8.3530913e-42
4.1181317e-41
4.1178694e-41
4.1177416e-41
4.1176865e-41
4.1176658e-41
4.1176591e-41
4.1176576e-41
4.1176584e-41
4.1176616e-41
4.1176693e-41
4.1178694e-41
4.1176072e-41
4.1174795e-41
4.1174244e-41
4.1174037e-41
4.117397e-41
4.1173956e-41
4.1173969e-41
4.1174014e-41
4.1174133e-41
4.1177416e-41
4.1174795e-41
4.1173518e-41
4.1172967e-41
4.117276e-41
4.1172694e-41
4.1172681e-41
4.1172697e-41
4.117275e-41
4.1172882e-41
4.1176865e-41
4.1174244e-41
4.1172967e-41
4.1172417e-41
4.117221e-41
4.1172144e-41
4.1172132e-41
4.117215e-41
4.1172206e-41
4.1172342e-41
4.1176658e-41
4.1174037e-41
4.117276e-41
4.117221e-41
4.1172003e-41
4.1171937e-41
4.1171925e-41
4.1171944e-41
4.1172002e-41
4.1172139e-41
4.1176591e-41
4.117397e-41
4.1172694e-41
4.1172144e-41
4.1171937e-41
4.1171871e-41
4.117186e-41
4.1171879e-41
4.1171937e-41
4.1172074e-41
4.1176576e-41
4.1173956e-41
4.1172681e-41
4.1172132e-41
4.1171925e-41
4.117186e-41
4.1171849e-41
4.1171868e-41
4.1171926e-41
4.1172064e-41
4.1176584e-41
4.1173969e-41
4.1172697e-41
4.117215e-41
4.1171944e-41
4.1171879e-41
4.1171868e-41
4.1171887e-41
4.1171945e-41
4.1172083e-41
4.1176616e-41
4.1174014e-41
4.117275e-41
4.1172206e-41
4.1172002e-41
4.1171937e-41
4.1171926e-41
4.1171945e-41
4.1172003e-41
4.1172141e-41
4.1176693e-41
4.1174133e-41
4.1172882e-41
4.1172342e-41
4.1172139e-41
4.1172074e-41
4.1172064e-41
4.1172083e-41
4.1172141e-41
4.1172279e-41
2.0698127e-40
2.0696858e-40
2.0696238e-40
2.0695971e-40
2.069587e-40
2.0695837e-40
2.069583e-40
2.0695834e-40
2.069585e-40
2.0695886e-40
2.0696858e-40
2.0695589e-40
2.0694969e-40
2.0694702e-40
2.0694601e-40
2.0694569e-40
2.0694562e-40
2.0694568e-40
2.0694591e-40
2.0694648e-40
2.0696238e-40
2.0694969e-40
2.069435e-40
2.0694082e-40
2.0693982e-40
2.069395e-40
2.0693944e-40
2.0693952e-40
2.0693978e-40
2.0694041e-40
2.0695971e-40
2.0694702e-40
2.0694082e-40
2.0693815e-40
2.0693715e-40
2.0693682e-40
2.0693677e-40
2.0693686e-40
2.0693713e-40
2.0693779e-40
2.069587e-40
2.0694601e-40
2.0693982e-40
2.0693715e-40
2.0693614e-40
2.0693582e-40
2.0693576e-40
2.0693586e-40
2.0693614e-40
2.0693681e-40
2.0695837e-40
2.0694569e-40
2.069395e-40
2.0693682e-40
2.0693582e-40
2.069355e-40
2.0693545e-40
2.0693554e-40
2.0693582e-40
2.0693649e-40
2.069583e-40
2.0694562e-40
2.0693944e-40
2.0693677e-40
2.0693576e-40
2.0693545e-40
2.0693539e-40
2.0693549e-40
2.0693577e-40
2.0693644e-40
2.0695834e-40
2.0694568e-40
2.0693952e-40
2.0693686e-40
2.0693586e-40
2.0693554e-40
2.0693549e-40
2.0693558e-40
2.0693587e-40
2.0693653e-40
2.069585e-40
2.0694591e-40
2.0693978e-40
2.0693713e-40
2.0693614e-40
2.0693582e-40
2.0693577e-40
2.0693587e-40
2.0693615e-40
2.0693682e-40
2.0695886e-40
2.0694648e-40
2.0694041e-40
2.0693779e-40
2.0693681e-40
2.0693649e-40
2.0693644e-40
2.0693653e-40
2.0693682e-40
2.0693749e-40
1.0606757e-39
1.0606131e-39
1.0605824e-39
1.0605692e-39
1.0605642e-39
1.0605626e-39
1.0605623e-39
1.0605625e-39
1.0605632e-39
1.060565e-39
1.0606131e-39
1.0605505e-39
1.0605199e-39
1.0605067e-39
1.0605017e-39
1.0605001e-39
1.0604997e-39
1.0605001e-39
1.0605012e-39
1.060504e-39
1.0605824e-39
1.0605199e-39
1.0604893e-39
1.060476e-39
1.0604711e-39
1.0604695e-39
1.0604692e-39
1.0604696e-39
1.0604709e-39
1.060474e-39
1.0605692e-39
1.0605067e-39
1.060476e-39
1.0604628e-39
1.0604578e-39
1.0604562e-39
1.060456e-39
1.0604564e-39
1.0604578e-39
1.0604611e-39
1.0605642e-39
1.0605017e-39
1.0604711e-39
1.0604578e-39
1.0604529e-39
1.0604513e-39
1.060451e-39
1.0604515e-39
1.0604529e-39
1.0604562e-39
1.0605626e-39
1.0605001e-39
1.0604695e-39
1.0604562e-39
1.0604513e-39
1.0604497e-39
1.0604494e-39
1.0604499e-39
1.0604513e-39
1.0604546e-39
1.0605623e-39
1.0604997e-39
1.0604692e-39
1.060456e-39
1.060451e-39
1.0604494e-39
1.0604492e-39
1.0604496e-39
1.0604511e-39
1.0604544e-39
1.0605625e-39
1.0605001e-39
1.0604696e-39
1.0604564e-39
1.0604515e-39
1.0604499e-39
1.0604496e-39
1.0604501e-39
1.0604515e-39
1.0604548e-39
1.0605632e-39
1.0605012e-39
1.0604709e-39
1.0604578e-39
1.0604529e-39
1.0604513e-39
1.0604511e-39
1.0604515e-39
1.060453e-39
1.0604563e-39
1.060565e-39
1.060504e-39
1.060474e-39
1.0604611e-39
1.0604562e-39
1.0604546e-39
1.0604544e-39
1.0604548e-39
1.0604563e-39