/*--------------------------------*- C++ -*----------------------------------*\
| =========                 |                                                 |
| \\      /  F ield         | OpenFOAM: The Open Source CFD Toolbox           |
|  \\    /   O peration     | Version:  dev                                   |
|   \\  /    A nd           | Web:      www.OpenFOAM.org                      |
|    \\/     M anipulation  |                                                 |
\*---------------------------------------------------------------------------*/
FoamFile
{
    version     2.0;
    format      ascii;
    class       volScalarField;
    location    "21";
    object      A_0;
}
// * * * * * * * * * * * * * * * * * * * * * * * * * * * * * * * * * * * * * //

dimensions      [0 0 0 0 1 0 0];

internalField   nonuniform List<scalar> 
10000
(
2.0561452e-52
2.05591e-52
2.0558026e-52
2.0557574e-52
2.0557406e-52
2.0557351e-52
2.0557339e-52
2.0557345e-52
2.0557374e-52
2.0557465e-52
2.05591e-52
2.055675e-52
2.0555676e-52
2.0555224e-52
2.0555056e-52
2.0555002e-52
2.055499e-52
2.0554999e-52
2.0555036e-52
2.0555154e-52
2.0558026e-52
2.0555676e-52
2.0554603e-52
2.0554151e-52
2.0553983e-52
2.0553929e-52
2.0553918e-52
2.0553929e-52
2.0553972e-52
2.0554097e-52
2.0557574e-52
2.0555224e-52
2.0554151e-52
2.0553699e-52
2.0553531e-52
2.0553477e-52
2.0553467e-52
2.0553479e-52
2.0553524e-52
2.0553652e-52
2.0557406e-52
2.0555056e-52
2.0553983e-52
2.0553531e-52
2.0553363e-52
2.0553309e-52
2.0553299e-52
2.0553312e-52
2.0553357e-52
2.0553487e-52
2.0557351e-52
2.0555002e-52
2.0553929e-52
2.0553477e-52
2.0553309e-52
2.0553256e-52
2.0553245e-52
2.0553258e-52
2.0553304e-52
2.0553434e-52
2.0557339e-52
2.055499e-52
2.0553918e-52
2.0553467e-52
2.0553299e-52
2.0553245e-52
2.0553235e-52
2.0553248e-52
2.0553294e-52
2.0553424e-52
2.0557345e-52
2.0554999e-52
2.0553929e-52
2.0553479e-52
2.0553312e-52
2.0553258e-52
2.0553248e-52
2.0553261e-52
2.0553307e-52
2.0553437e-52
2.0557374e-52
2.0555036e-52
2.0553972e-52
2.0553524e-52
2.0553357e-52
2.0553304e-52
2.0553294e-52
2.0553307e-52
2.0553353e-52
2.0553483e-52
2.0557465e-52
2.0555154e-52
2.0554097e-52
2.0553652e-52
2.0553487e-52
2.0553434e-52
2.0553424e-52
2.0553437e-52
2.0553483e-52
2.0553612e-52
9.883379e-52
9.8822814e-52
9.881774e-52
9.8815601e-52
9.8814803e-52
9.8814545e-52
9.8814486e-52
9.8814515e-52
9.8814652e-52
9.8815098e-52
9.8822814e-52
9.8811843e-52
9.880677e-52
9.8804632e-52
9.8803835e-52
9.8803578e-52
9.8803522e-52
9.8803565e-52
9.8803742e-52
9.8804314e-52
9.881774e-52
9.880677e-52
9.8801699e-52
9.8799561e-52
9.8798764e-52
9.8798509e-52
9.8798457e-52
9.8798509e-52
9.8798711e-52
9.8799323e-52
9.8815601e-52
9.8804632e-52
9.8799561e-52
9.8797423e-52
9.8796626e-52
9.8796372e-52
9.8796322e-52
9.879638e-52
9.8796592e-52
9.8797217e-52
9.8814803e-52
9.8803835e-52
9.8798764e-52
9.8796626e-52
9.879583e-52
9.8795576e-52
9.8795527e-52
9.8795588e-52
9.8795803e-52
9.8796432e-52
9.8814545e-52
9.8803578e-52
9.8798509e-52
9.8796372e-52
9.8795576e-52
9.8795322e-52
9.8795274e-52
9.8795335e-52
9.8795552e-52
9.8796182e-52
9.8814486e-52
9.8803522e-52
9.8798457e-52
9.8796322e-52
9.8795527e-52
9.8795274e-52
9.8795226e-52
9.8795287e-52
9.8795504e-52
9.8796134e-52
9.8814515e-52
9.8803565e-52
9.8798509e-52
9.879638e-52
9.8795588e-52
9.8795335e-52
9.8795287e-52
9.8795349e-52
9.8795566e-52
9.8796196e-52
9.8814652e-52
9.8803742e-52
9.8798711e-52
9.8796592e-52
9.8795803e-52
9.8795552e-52
9.8795504e-52
9.8795566e-52
9.8795783e-52
9.8796413e-52
9.8815098e-52
9.8804314e-52
9.8799323e-52
9.8797217e-52
9.8796432e-52
9.8796182e-52
9.8796134e-52
9.8796196e-52
9.8796413e-52
9.8797044e-52
3.6216732e-51
3.6212824e-51
3.6211009e-51
3.6210242e-51
3.6209956e-51
3.6209864e-51
3.6209842e-51
3.6209853e-51
3.6209902e-51
3.621006e-51
3.6212824e-51
3.6208917e-51
3.6207103e-51
3.6206336e-51
3.6206051e-51
3.6205959e-51
3.6205939e-51
3.6205954e-51
3.6206017e-51
3.6206222e-51
3.6211009e-51
3.6207103e-51
3.6205288e-51
3.6204522e-51
3.6204237e-51
3.6204145e-51
3.6204126e-51
3.6204145e-51
3.6204217e-51
3.6204436e-51
3.6210242e-51
3.6206336e-51
3.6204522e-51
3.6203756e-51
3.6203471e-51
3.6203379e-51
3.6203362e-51
3.6203383e-51
3.6203458e-51
3.6203682e-51
3.6209956e-51
3.6206051e-51
3.6204237e-51
3.6203471e-51
3.6203185e-51
3.6203094e-51
3.6203077e-51
3.6203098e-51
3.6203175e-51
3.6203401e-51
3.6209864e-51
3.6205959e-51
3.6204145e-51
3.6203379e-51
3.6203094e-51
3.6203003e-51
3.6202986e-51
3.6203008e-51
3.6203085e-51
3.6203311e-51
3.6209842e-51
3.6205939e-51
3.6204126e-51
3.6203362e-51
3.6203077e-51
3.6202986e-51
3.6202969e-51
3.6202991e-51
3.6203068e-51
3.6203294e-51
3.6209853e-51
3.6205954e-51
3.6204145e-51
3.6203383e-51
3.6203098e-51
3.6203008e-51
3.6202991e-51
3.6203013e-51
3.6203091e-51
3.6203316e-51
3.6209902e-51
3.6206017e-51
3.6204217e-51
3.6203458e-51
3.6203175e-51
3.6203085e-51
3.6203068e-51
3.6203091e-51
3.6203168e-51
3.6203394e-51
3.621006e-51
3.6206222e-51
3.6204436e-51
3.6203682e-51
3.6203401e-51
3.6203311e-51
3.6203294e-51
3.6203316e-51
3.6203394e-51
3.620362e-51
1.3273151e-50
1.327176e-50
1.3271112e-50
1.3270838e-50
1.3270735e-50
1.3270702e-50
1.3270695e-50
1.3270699e-50
1.3270716e-50
1.3270771e-50
1.327176e-50
1.327037e-50
1.3269722e-50
1.3269448e-50
1.3269346e-50
1.3269313e-50
1.3269305e-50
1.3269311e-50
1.3269333e-50
1.3269405e-50
1.3271112e-50
1.3269722e-50
1.3269074e-50
1.32688e-50
1.3268698e-50
1.3268665e-50
1.3268658e-50
1.3268665e-50
1.3268691e-50
1.3268768e-50
1.3270838e-50
1.3269448e-50
1.32688e-50
1.3268526e-50
1.3268424e-50
1.3268391e-50
1.3268385e-50
1.3268392e-50
1.3268419e-50
1.3268498e-50
1.3270735e-50
1.3269346e-50
1.3268698e-50
1.3268424e-50
1.3268321e-50
1.3268289e-50
1.3268283e-50
1.326829e-50
1.3268318e-50
1.3268397e-50
1.3270702e-50
1.3269313e-50
1.3268665e-50
1.3268391e-50
1.3268289e-50
1.3268256e-50
1.326825e-50
1.3268258e-50
1.3268286e-50
1.3268365e-50
1.3270695e-50
1.3269305e-50
1.3268658e-50
1.3268385e-50
1.3268283e-50
1.326825e-50
1.3268244e-50
1.3268252e-50
1.326828e-50
1.3268359e-50
1.3270699e-50
1.3269311e-50
1.3268665e-50
1.3268392e-50
1.326829e-50
1.3268258e-50
1.3268252e-50
1.326826e-50
1.3268288e-50
1.3268367e-50
1.3270716e-50
1.3269333e-50
1.3268691e-50
1.3268419e-50
1.3268318e-50
1.3268286e-50
1.326828e-50
1.3268288e-50
1.3268315e-50
1.3268395e-50
1.3270771e-50
1.3269405e-50
1.3268768e-50
1.3268498e-50
1.3268397e-50
1.3268365e-50
1.3268359e-50
1.3268367e-50
1.3268395e-50
1.3268474e-50
4.9542182e-50
4.9537143e-50
4.9534786e-50
4.9533788e-50
4.9533415e-50
4.9533294e-50
4.9533266e-50
4.953328e-50
4.9533342e-50
4.9533537e-50
4.9537143e-50
4.9532106e-50
4.952975e-50
4.9528752e-50
4.9528379e-50
4.9528259e-50
4.9528233e-50
4.9528253e-50
4.9528335e-50
4.9528591e-50
4.9534786e-50
4.952975e-50
4.9527394e-50
4.9526396e-50
4.9526023e-50
4.9525904e-50
4.952588e-50
4.9525905e-50
4.9525998e-50
4.9526274e-50
4.9533788e-50
4.9528752e-50
4.9526396e-50
4.9525398e-50
4.9525026e-50
4.9524907e-50
4.9524884e-50
4.9524912e-50
4.952501e-50
4.9525292e-50
4.9533415e-50
4.9528379e-50
4.9526023e-50
4.9525026e-50
4.9524654e-50
4.9524535e-50
4.9524512e-50
4.9524541e-50
4.9524641e-50
4.9524925e-50
4.9533294e-50
4.9528259e-50
4.9525904e-50
4.9524907e-50
4.9524535e-50
4.9524416e-50
4.9524394e-50
4.9524423e-50
4.9524524e-50
4.9524808e-50
4.9533266e-50
4.9528233e-50
4.952588e-50
4.9524884e-50
4.9524512e-50
4.9524394e-50
4.9524372e-50
4.9524401e-50
4.9524502e-50
4.9524786e-50
4.953328e-50
4.9528253e-50
4.9525905e-50
4.9524912e-50
4.9524541e-50
4.9524423e-50
4.9524401e-50
4.952443e-50
4.9524531e-50
4.9524816e-50
4.9533342e-50
4.9528335e-50
4.9525998e-50
4.952501e-50
4.9524641e-50
4.9524524e-50
4.9524502e-50
4.9524531e-50
4.9524632e-50
4.9524916e-50
4.9533537e-50
4.9528591e-50
4.9526274e-50
4.9525292e-50
4.9524925e-50
4.9524808e-50
4.9524786e-50
4.9524816e-50
4.9524916e-50
4.9525201e-50
1.8859516e-49
1.8857655e-49
1.8856781e-49
1.8856411e-49
1.8856272e-49
1.8856228e-49
1.8856217e-49
1.8856222e-49
1.8856245e-49
1.8856316e-49
1.8857655e-49
1.8855795e-49
1.8854921e-49
1.8854551e-49
1.8854413e-49
1.8854368e-49
1.8854358e-49
1.8854366e-49
1.8854396e-49
1.8854489e-49
1.8856781e-49
1.8854921e-49
1.8854048e-49
1.8853678e-49
1.885354e-49
1.8853495e-49
1.8853486e-49
1.8853496e-49
1.885353e-49
1.8853631e-49
1.8856411e-49
1.8854551e-49
1.8853678e-49
1.8853308e-49
1.8853169e-49
1.8853125e-49
1.8853117e-49
1.8853127e-49
1.8853163e-49
1.8853266e-49
1.8856272e-49
1.8854413e-49
1.885354e-49
1.8853169e-49
1.8853031e-49
1.8852987e-49
1.8852979e-49
1.885299e-49
1.8853027e-49
1.885313e-49
1.8856228e-49
1.8854368e-49
1.8853495e-49
1.8853125e-49
1.8852987e-49
1.8852943e-49
1.8852935e-49
1.8852946e-49
1.8852983e-49
1.8853087e-49
1.8856217e-49
1.8854358e-49
1.8853486e-49
1.8853117e-49
1.8852979e-49
1.8852935e-49
1.8852927e-49
1.8852938e-49
1.8852975e-49
1.8853079e-49
1.8856222e-49
1.8854366e-49
1.8853496e-49
1.8853127e-49
1.885299e-49
1.8852946e-49
1.8852938e-49
1.8852948e-49
1.8852986e-49
1.885309e-49
1.8856245e-49
1.8854396e-49
1.885353e-49
1.8853163e-49
1.8853027e-49
1.8852983e-49
1.8852975e-49
1.8852986e-49
1.8853023e-49
1.8853127e-49
1.8856316e-49
1.8854489e-49
1.8853631e-49
1.8853266e-49
1.885313e-49
1.8853087e-49
1.8853079e-49
1.885309e-49
1.8853127e-49
1.8853231e-49
7.3233145e-49
7.3226136e-49
7.3222836e-49
7.3221434e-49
7.322091e-49
7.322074e-49
7.3220701e-49
7.3220721e-49
7.3220806e-49
7.3221064e-49
7.3226136e-49
7.321913e-49
7.3215831e-49
7.3214429e-49
7.3213906e-49
7.3213737e-49
7.3213701e-49
7.3213729e-49
7.3213842e-49
7.321419e-49
7.3222836e-49
7.3215831e-49
7.3212532e-49
7.3211131e-49
7.3210607e-49
7.321044e-49
7.3210406e-49
7.3210442e-49
7.3210572e-49
7.3210947e-49
7.3221434e-49
7.3214429e-49
7.3211131e-49
7.320973e-49
7.3209207e-49
7.3209039e-49
7.3209007e-49
7.3209047e-49
7.3209184e-49
7.3209568e-49
7.322091e-49
7.3213906e-49
7.3210607e-49
7.3209207e-49
7.3208684e-49
7.3208517e-49
7.3208485e-49
7.3208526e-49
7.3208666e-49
7.3209053e-49
7.322074e-49
7.3213737e-49
7.321044e-49
7.3209039e-49
7.3208517e-49
7.320835e-49
7.3208319e-49
7.320836e-49
7.3208501e-49
7.3208888e-49
7.3220701e-49
7.3213701e-49
7.3210406e-49
7.3209007e-49
7.3208485e-49
7.3208319e-49
7.3208288e-49
7.320833e-49
7.3208471e-49
7.3208858e-49
7.3220721e-49
7.3213729e-49
7.3210442e-49
7.3209047e-49
7.3208526e-49
7.320836e-49
7.320833e-49
7.3208371e-49
7.3208512e-49
7.32089e-49
7.3220806e-49
7.3213842e-49
7.3210572e-49
7.3209184e-49
7.3208666e-49
7.3208501e-49
7.3208471e-49
7.3208512e-49
7.3208654e-49
7.3209041e-49
7.3221064e-49
7.321419e-49
7.3210947e-49
7.3209568e-49
7.3209053e-49
7.3208888e-49
7.3208858e-49
7.32089e-49
7.3209041e-49
7.3209429e-49
2.9008821e-48
2.9006129e-48
2.9004858e-48
2.9004317e-48
2.9004115e-48
2.9004049e-48
2.9004034e-48
2.9004042e-48
2.9004075e-48
2.9004171e-48
2.9006129e-48
2.9003439e-48
2.9002168e-48
2.9001628e-48
2.9001425e-48
2.900136e-48
2.9001346e-48
2.9001357e-48
2.9001401e-48
2.9001532e-48
2.9004858e-48
2.9002168e-48
2.9000897e-48
2.9000357e-48
2.9000155e-48
2.900009e-48
2.9000077e-48
2.9000091e-48
2.9000141e-48
2.9000284e-48
2.9004317e-48
2.9001628e-48
2.9000357e-48
2.8999816e-48
2.8999614e-48
2.899955e-48
2.8999538e-48
2.8999553e-48
2.8999606e-48
2.8999752e-48
2.9004115e-48
2.9001425e-48
2.9000155e-48
2.8999614e-48
2.8999412e-48
2.8999348e-48
2.8999336e-48
2.8999352e-48
2.8999406e-48
2.8999553e-48
2.9004049e-48
2.900136e-48
2.900009e-48
2.899955e-48
2.8999348e-48
2.8999284e-48
2.8999272e-48
2.8999288e-48
2.8999342e-48
2.899949e-48
2.9004034e-48
2.9001346e-48
2.9000077e-48
2.8999538e-48
2.8999336e-48
2.8999272e-48
2.899926e-48
2.8999276e-48
2.8999331e-48
2.8999478e-48
2.9004042e-48
2.9001357e-48
2.9000091e-48
2.8999553e-48
2.8999352e-48
2.8999288e-48
2.8999276e-48
2.8999292e-48
2.8999347e-48
2.8999494e-48
2.9004075e-48
2.9001401e-48
2.9000141e-48
2.8999606e-48
2.8999406e-48
2.8999342e-48
2.8999331e-48
2.8999347e-48
2.8999401e-48
2.8999549e-48
2.9004171e-48
2.9001532e-48
2.9000284e-48
2.8999752e-48
2.8999553e-48
2.899949e-48
2.8999478e-48
2.8999494e-48
2.8999549e-48
2.8999696e-48
1.172233e-47
1.1721276e-47
1.1720777e-47
1.1720564e-47
1.1720485e-47
1.1720459e-47
1.1720453e-47
1.1720456e-47
1.1720469e-47
1.1720506e-47
1.1721276e-47
1.1720223e-47
1.1719724e-47
1.1719511e-47
1.1719432e-47
1.1719406e-47
1.1719401e-47
1.1719405e-47
1.1719422e-47
1.1719473e-47
1.1720777e-47
1.1719724e-47
1.1719225e-47
1.1719012e-47
1.1718933e-47
1.1718907e-47
1.1718902e-47
1.1718908e-47
1.1718927e-47
1.1718983e-47
1.1720564e-47
1.1719511e-47
1.1719012e-47
1.17188e-47
1.171872e-47
1.1718695e-47
1.171869e-47
1.1718696e-47
1.1718717e-47
1.1718774e-47
1.1720485e-47
1.1719432e-47
1.1718933e-47
1.171872e-47
1.1718641e-47
1.1718615e-47
1.1718611e-47
1.1718617e-47
1.1718638e-47
1.1718695e-47
1.1720459e-47
1.1719406e-47
1.1718907e-47
1.1718695e-47
1.1718615e-47
1.171859e-47
1.1718585e-47
1.1718592e-47
1.1718613e-47
1.171867e-47
1.1720453e-47
1.1719401e-47
1.1718902e-47
1.171869e-47
1.1718611e-47
1.1718585e-47
1.1718581e-47
1.1718587e-47
1.1718609e-47
1.1718666e-47
1.1720456e-47
1.1719405e-47
1.1718908e-47
1.1718696e-47
1.1718617e-47
1.1718592e-47
1.1718587e-47
1.1718594e-47
1.1718615e-47
1.1718672e-47
1.1720469e-47
1.1719422e-47
1.1718927e-47
1.1718717e-47
1.1718638e-47
1.1718613e-47
1.1718609e-47
1.1718615e-47
1.1718636e-47
1.1718694e-47
1.1720506e-47
1.1719473e-47
1.1718983e-47
1.1718774e-47
1.1718695e-47
1.171867e-47
1.1718666e-47
1.1718672e-47
1.1718694e-47
1.1718751e-47
4.8324864e-47
4.8320657e-47
4.8318657e-47
4.8317804e-47
4.8317485e-47
4.8317381e-47
4.8317358e-47
4.831737e-47
4.8317421e-47
4.8317565e-47
4.8320657e-47
4.8316451e-47
4.8314452e-47
4.8313599e-47
4.831328e-47
4.8313177e-47
4.8313155e-47
4.8313173e-47
4.8313242e-47
4.8313443e-47
4.8318657e-47
4.8314452e-47
4.8312453e-47
4.8311601e-47
4.8311282e-47
4.8311179e-47
4.8311159e-47
4.8311181e-47
4.831126e-47
4.8311479e-47
4.8317804e-47
4.8313599e-47
4.8311601e-47
4.8310748e-47
4.8310429e-47
4.8310327e-47
4.8310308e-47
4.8310333e-47
4.8310417e-47
4.8310641e-47
4.8317485e-47
4.831328e-47
4.8311282e-47
4.8310429e-47
4.831011e-47
4.8310009e-47
4.830999e-47
4.8310016e-47
4.8310101e-47
4.8310327e-47
4.8317381e-47
4.8313177e-47
4.8311179e-47
4.8310327e-47
4.8310009e-47
4.8309907e-47
4.8309888e-47
4.8309914e-47
4.831e-47
4.8310227e-47
4.8317358e-47
4.8313155e-47
4.8311159e-47
4.8310308e-47
4.830999e-47
4.8309888e-47
4.830987e-47
4.8309896e-47
4.8309982e-47
4.8310209e-47
4.831737e-47
4.8313173e-47
4.8311181e-47
4.8310333e-47
4.8310016e-47
4.8309914e-47
4.8309896e-47
4.8309922e-47
4.8310008e-47
4.8310235e-47
4.8317421e-47
4.8313242e-47
4.831126e-47
4.8310417e-47
4.8310101e-47
4.831e-47
4.8309982e-47
4.8310008e-47
4.8310095e-47
4.8310321e-47
4.8317565e-47
4.8313443e-47
4.8311479e-47
4.8310641e-47
4.8310327e-47
4.8310227e-47
4.8310209e-47
4.8310235e-47
4.8310321e-47
4.8310548e-47
2.0323875e-46
2.0322162e-46
2.0321345e-46
2.0320996e-46
2.0320866e-46
2.0320823e-46
2.0320814e-46
2.0320819e-46
2.0320839e-46
2.0320897e-46
2.0322162e-46
2.032045e-46
2.0319633e-46
2.0319285e-46
2.0319154e-46
2.0319112e-46
2.0319103e-46
2.031911e-46
2.0319138e-46
2.0319219e-46
2.0321345e-46
2.0319633e-46
2.0318817e-46
2.0318468e-46
2.0318338e-46
2.0318296e-46
2.0318288e-46
2.0318297e-46
2.0318329e-46
2.0318418e-46
2.0320996e-46
2.0319285e-46
2.0318468e-46
2.031812e-46
2.0317989e-46
2.0317948e-46
2.031794e-46
2.031795e-46
2.0317984e-46
2.0318075e-46
2.0320866e-46
2.0319154e-46
2.0318338e-46
2.0317989e-46
2.0317859e-46
2.0317817e-46
2.031781e-46
2.031782e-46
2.0317855e-46
2.0317947e-46
2.0320823e-46
2.0319112e-46
2.0318296e-46
2.0317948e-46
2.0317817e-46
2.0317776e-46
2.0317768e-46
2.0317779e-46
2.0317814e-46
2.0317906e-46
2.0320814e-46
2.0319103e-46
2.0318288e-46
2.031794e-46
2.031781e-46
2.0317768e-46
2.0317761e-46
2.0317771e-46
2.0317807e-46
2.0317899e-46
2.0320819e-46
2.031911e-46
2.0318297e-46
2.031795e-46
2.031782e-46
2.0317779e-46
2.0317771e-46
2.0317782e-46
2.0317818e-46
2.0317909e-46
2.0320839e-46
2.0319138e-46
2.0318329e-46
2.0317984e-46
2.0317855e-46
2.0317814e-46
2.0317807e-46
2.0317818e-46
2.0317853e-46
2.0317945e-46
2.0320897e-46
2.0319219e-46
2.0318418e-46
2.0318075e-46
2.0317947e-46
2.0317906e-46
2.0317899e-46
2.0317909e-46
2.0317945e-46
2.0318036e-46
8.7201259e-46
8.7194148e-46
8.7190749e-46
8.7189295e-46
8.718875e-46
8.7188573e-46
8.7188533e-46
8.7188554e-46
8.7188639e-46
8.7188874e-46
8.7194148e-46
8.718704e-46
8.7183641e-46
8.7182188e-46
8.7181643e-46
8.7181468e-46
8.7181431e-46
8.7181461e-46
8.7181578e-46
8.7181912e-46
8.7190749e-46
8.7183641e-46
8.7180243e-46
8.717879e-46
8.7178245e-46
8.7178071e-46
8.7178037e-46
8.7178076e-46
8.7178211e-46
8.7178575e-46
8.7189295e-46
8.7182188e-46
8.717879e-46
8.7177337e-46
8.7176793e-46
8.7176619e-46
8.7176587e-46
8.717663e-46
8.7176773e-46
8.7177147e-46
8.718875e-46
8.7181643e-46
8.7178245e-46
8.7176793e-46
8.7176249e-46
8.7176075e-46
8.7176043e-46
8.7176088e-46
8.7176235e-46
8.7176612e-46
8.7188573e-46
8.7181468e-46
8.7178071e-46
8.7176619e-46
8.7176075e-46
8.7175902e-46
8.717587e-46
8.7175916e-46
8.7176063e-46
8.7176441e-46
8.7188533e-46
8.7181431e-46
8.7178037e-46
8.7176587e-46
8.7176043e-46
8.717587e-46
8.7175839e-46
8.7175885e-46
8.7176032e-46
8.7176411e-46
8.7188554e-46
8.7181461e-46
8.7178076e-46
8.717663e-46
8.7176088e-46
8.7175916e-46
8.7175885e-46
8.7175931e-46
8.7176078e-46
8.7176457e-46
8.7188639e-46
8.7181578e-46
8.7178211e-46
8.7176773e-46
8.7176235e-46
8.7176063e-46
8.7176032e-46
8.7176078e-46
8.7176226e-46
8.7176605e-46
8.7188874e-46
8.7181912e-46
8.7178575e-46
8.7177147e-46
8.7176612e-46
8.7176441e-46
8.7176411e-46
8.7176457e-46
8.7176605e-46
8.7176983e-46
3.8169391e-45
3.8166381e-45
3.8164938e-45
3.816432e-45
3.8164088e-45
3.8164013e-45
3.8163996e-45
3.8164005e-45
3.8164042e-45
3.8164139e-45
3.8166381e-45
3.8163373e-45
3.816193e-45
3.8161312e-45
3.816108e-45
3.8161006e-45
3.816099e-45
3.8161003e-45
3.8161053e-45
3.8161193e-45
3.8164938e-45
3.816193e-45
3.8160487e-45
3.815987e-45
3.8159638e-45
3.8159564e-45
3.8159549e-45
3.8159566e-45
3.8159624e-45
3.8159777e-45
3.816432e-45
3.8161312e-45
3.815987e-45
3.8159252e-45
3.8159021e-45
3.8158947e-45
3.8158933e-45
3.8158952e-45
3.8159013e-45
3.815917e-45
3.8164088e-45
3.816108e-45
3.8159638e-45
3.8159021e-45
3.8158789e-45
3.8158715e-45
3.8158702e-45
3.8158721e-45
3.8158784e-45
3.8158943e-45
3.8164013e-45
3.8161006e-45
3.8159564e-45
3.8158947e-45
3.8158715e-45
3.8158642e-45
3.8158628e-45
3.8158648e-45
3.8158711e-45
3.815887e-45
3.8163996e-45
3.816099e-45
3.8159549e-45
3.8158933e-45
3.8158702e-45
3.8158628e-45
3.8158615e-45
3.8158635e-45
3.8158698e-45
3.8158857e-45
3.8164005e-45
3.8161003e-45
3.8159566e-45
3.8158952e-45
3.8158721e-45
3.8158648e-45
3.8158635e-45
3.8158655e-45
3.8158718e-45
3.8158877e-45
3.8164042e-45
3.8161053e-45
3.8159624e-45
3.8159013e-45
3.8158784e-45
3.8158711e-45
3.8158698e-45
3.8158718e-45
3.8158781e-45
3.815894e-45
3.8164139e-45
3.8161193e-45
3.8159777e-45
3.815917e-45
3.8158943e-45
3.815887e-45
3.8158857e-45
3.8158877e-45
3.815894e-45
3.81591e-45
1.7044105e-44
1.7042806e-44
1.7042182e-44
1.7041914e-44
1.7041814e-44
1.7041781e-44
1.7041774e-44
1.7041778e-44
1.7041793e-44
1.7041834e-44
1.7042806e-44
1.7041508e-44
1.7040883e-44
1.7040616e-44
1.7040515e-44
1.7040483e-44
1.7040476e-44
1.7040482e-44
1.7040503e-44
1.7040564e-44
1.7042182e-44
1.7040883e-44
1.7040259e-44
1.7039991e-44
1.7039891e-44
1.7039859e-44
1.7039853e-44
1.703986e-44
1.7039885e-44
1.7039951e-44
1.7041914e-44
1.7040616e-44
1.7039991e-44
1.7039724e-44
1.7039624e-44
1.7039591e-44
1.7039586e-44
1.7039594e-44
1.703962e-44
1.7039688e-44
1.7041814e-44
1.7040515e-44
1.7039891e-44
1.7039624e-44
1.7039523e-44
1.7039491e-44
1.7039485e-44
1.7039494e-44
1.7039521e-44
1.7039589e-44
1.7041781e-44
1.7040483e-44
1.7039859e-44
1.7039591e-44
1.7039491e-44
1.7039459e-44
1.7039454e-44
1.7039462e-44
1.7039489e-44
1.7039558e-44
1.7041774e-44
1.7040476e-44
1.7039853e-44
1.7039586e-44
1.7039485e-44
1.7039454e-44
1.7039448e-44
1.7039457e-44
1.7039484e-44
1.7039553e-44
1.7041778e-44
1.7040482e-44
1.703986e-44
1.7039594e-44
1.7039494e-44
1.7039462e-44
1.7039457e-44
1.7039465e-44
1.7039493e-44
1.7039561e-44
1.7041793e-44
1.7040503e-44
1.7039885e-44
1.703962e-44
1.7039521e-44
1.7039489e-44
1.7039484e-44
1.7039493e-44
1.703952e-44
1.7039589e-44
1.7041834e-44
1.7040564e-44
1.7039951e-44
1.7039688e-44
1.7039589e-44
1.7039558e-44
1.7039553e-44
1.7039561e-44
1.7039589e-44
1.7039657e-44
7.7639753e-44
7.7634037e-44
7.7631281e-44
7.7630099e-44
7.7629654e-44
7.762951e-44
7.7629478e-44
7.7629495e-44
7.7629564e-44
7.7629743e-44
7.7634037e-44
7.7628323e-44
7.7625568e-44
7.7624386e-44
7.7623942e-44
7.7623799e-44
7.7623769e-44
7.7623795e-44
7.762389e-44
7.7624153e-44
7.7631281e-44
7.7625568e-44
7.7622813e-44
7.7621631e-44
7.7621188e-44
7.7621045e-44
7.7621018e-44
7.7621051e-44
7.7621162e-44
7.7621451e-44
7.7630099e-44
7.7624386e-44
7.7621631e-44
7.7620449e-44
7.7620006e-44
7.7619864e-44
7.7619838e-44
7.7619875e-44
7.7619993e-44
7.762029e-44
7.7629654e-44
7.7623942e-44
7.7621188e-44
7.7620006e-44
7.7619562e-44
7.7619421e-44
7.7619396e-44
7.7619434e-44
7.7619554e-44
7.7619854e-44
7.762951e-44
7.7623799e-44
7.7621045e-44
7.7619864e-44
7.7619421e-44
7.761928e-44
7.7619255e-44
7.7619293e-44
7.7619415e-44
7.7619715e-44
7.7629478e-44
7.7623769e-44
7.7621018e-44
7.7619838e-44
7.7619396e-44
7.7619255e-44
7.761923e-44
7.7619269e-44
7.761939e-44
7.7619691e-44
7.7629495e-44
7.7623795e-44
7.7621051e-44
7.7619875e-44
7.7619434e-44
7.7619293e-44
7.7619269e-44
7.7619307e-44
7.7619429e-44
7.761973e-44
7.7629564e-44
7.762389e-44
7.7621162e-44
7.7619993e-44
7.7619554e-44
7.7619415e-44
7.761939e-44
7.7619429e-44
7.7619551e-44
7.7619852e-44
7.7629743e-44
7.7624153e-44
7.7621451e-44
7.762029e-44
7.7619854e-44
7.7619715e-44
7.7619691e-44
7.761973e-44
7.7619852e-44
7.7620153e-44
3.6076421e-43
3.6073857e-43
3.6072617e-43
3.6072085e-43
3.6071884e-43
3.607182e-43
3.6071805e-43
3.6071813e-43
3.6071844e-43
3.6071923e-43
3.6073857e-43
3.6071293e-43
3.6070054e-43
3.6069522e-43
3.6069322e-43
3.6069257e-43
3.6069244e-43
3.6069256e-43
3.6069299e-43
3.6069416e-43
3.6072617e-43
3.6070054e-43
3.6068815e-43
3.6068283e-43
3.6068083e-43
3.6068019e-43
3.6068007e-43
3.6068022e-43
3.6068072e-43
3.6068201e-43
3.6072085e-43
3.6069522e-43
3.6068283e-43
3.6067751e-43
3.6067551e-43
3.6067487e-43
3.6067475e-43
3.6067492e-43
3.6067546e-43
3.6067679e-43
3.6071884e-43
3.6069322e-43
3.6068083e-43
3.6067551e-43
3.6067351e-43
3.6067287e-43
3.6067276e-43
3.6067293e-43
3.6067348e-43
3.6067482e-43
3.607182e-43
3.6069257e-43
3.6068019e-43
3.6067487e-43
3.6067287e-43
3.6067224e-43
3.6067213e-43
3.606723e-43
3.6067285e-43
3.606742e-43
3.6071805e-43
3.6069244e-43
3.6068007e-43
3.6067475e-43
3.6067276e-43
3.6067213e-43
3.6067202e-43
3.6067219e-43
3.6067274e-43
3.6067409e-43
3.6071813e-43
3.6069256e-43
3.6068022e-43
3.6067492e-43
3.6067293e-43
3.606723e-43
3.6067219e-43
3.6067237e-43
3.6067292e-43
3.6067427e-43
3.6071844e-43
3.6069299e-43
3.6068072e-43
3.6067546e-43
3.6067348e-43
3.6067285e-43
3.6067274e-43
3.6067292e-43
3.6067347e-43
3.6067482e-43
3.6071923e-43
3.6069416e-43
3.6068201e-43
3.6067679e-43
3.6067482e-43
3.606742e-43
3.6067409e-43
3.6067427e-43
3.6067482e-43
3.6067617e-43
1.7098744e-42
1.7097572e-42
1.7097003e-42
1.7096759e-42
1.7096667e-42
1.7096637e-42
1.7096631e-42
1.7096634e-42
1.7096648e-42
1.7096684e-42
1.7097572e-42
1.7096399e-42
1.7095831e-42
1.7095587e-42
1.7095495e-42
1.7095465e-42
1.7095459e-42
1.7095465e-42
1.7095485e-42
1.7095538e-42
1.7097003e-42
1.7095831e-42
1.7095263e-42
1.7095019e-42
1.7094927e-42
1.7094898e-42
1.7094892e-42
1.7094899e-42
1.7094922e-42
1.7094981e-42
1.7096759e-42
1.7095587e-42
1.7095019e-42
1.7094775e-42
1.7094683e-42
1.7094654e-42
1.7094648e-42
1.7094656e-42
1.7094681e-42
1.7094742e-42
1.7096667e-42
1.7095495e-42
1.7094927e-42
1.7094683e-42
1.7094591e-42
1.7094562e-42
1.7094557e-42
1.7094565e-42
1.709459e-42
1.7094651e-42
1.7096637e-42
1.7095465e-42
1.7094898e-42
1.7094654e-42
1.7094562e-42
1.7094533e-42
1.7094528e-42
1.7094536e-42
1.7094561e-42
1.7094623e-42
1.7096631e-42
1.7095459e-42
1.7094892e-42
1.7094648e-42
1.7094557e-42
1.7094528e-42
1.7094523e-42
1.7094531e-42
1.7094556e-42
1.7094618e-42
1.7096634e-42
1.7095465e-42
1.7094899e-42
1.7094656e-42
1.7094565e-42
1.7094536e-42
1.7094531e-42
1.7094539e-42
1.7094564e-42
1.7094626e-42
1.7096648e-42
1.7095485e-42
1.7094922e-42
1.7094681e-42
1.709459e-42
1.7094561e-42
1.7094556e-42
1.7094564e-42
1.709459e-42
1.7094652e-42
1.7096684e-42
1.7095538e-42
1.7094981e-42
1.7094742e-42
1.7094651e-42
1.7094623e-42
1.7094618e-42
1.7094626e-42
1.7094652e-42
1.7094713e-42
8.2655544e-42
8.2650079e-42
8.2647423e-42
8.264628e-42
8.264585e-42
8.264571e-42
8.2645679e-42
8.2645697e-42
8.2645763e-42
8.2645926e-42
8.2650079e-42
8.2644616e-42
8.2641961e-42
8.2640818e-42
8.2640388e-42
8.2640249e-42
8.2640221e-42
8.2640247e-42
8.264034e-42
8.2640588e-42
8.2647423e-42
8.2641961e-42
8.2639307e-42
8.2638164e-42
8.2637734e-42
8.2637596e-42
8.263757e-42
8.2637603e-42
8.2637713e-42
8.2637988e-42
8.264628e-42
8.2640818e-42
8.2638164e-42
8.2637021e-42
8.2636591e-42
8.2636454e-42
8.263643e-42
8.2636466e-42
8.2636583e-42
8.2636866e-42
8.264585e-42
8.2640388e-42
8.2637734e-42
8.2636591e-42
8.2636162e-42
8.2636025e-42
8.2636001e-42
8.263604e-42
8.2636158e-42
8.2636444e-42
8.264571e-42
8.2640249e-42
8.2637596e-42
8.2636454e-42
8.2636025e-42
8.2635888e-42
8.2635865e-42
8.2635904e-42
8.2636023e-42
8.263631e-42
8.2645679e-42
8.2640221e-42
8.263757e-42
8.263643e-42
8.2636001e-42
8.2635865e-42
8.2635842e-42
8.2635881e-42
8.2636e-42
8.2636287e-42
8.2645697e-42
8.2640247e-42
8.2637603e-42
8.2636466e-42
8.263604e-42
8.2635904e-42
8.2635881e-42
8.263592e-42
8.263604e-42
8.2636327e-42
8.2645763e-42
8.264034e-42
8.2637713e-42
8.2636583e-42
8.2636158e-42
8.2636023e-42
8.2636e-42
8.263604e-42
8.2636159e-42
8.2636447e-42
8.2645926e-42
8.2640588e-42
8.2637988e-42
8.2636866e-42
8.2636444e-42
8.263631e-42
8.2636287e-42
8.2636327e-42
8.2636447e-42
8.2636734e-42
4.0747922e-41
4.0745325e-41
4.0744061e-41
4.0743516e-41
4.074331e-41
4.0743244e-41
4.0743229e-41
4.0743238e-41
4.0743269e-41
4.0743345e-41
4.0745325e-41
4.074273e-41
4.0741466e-41
4.0740921e-41
4.0740716e-41
4.074065e-41
4.0740636e-41
4.0740649e-41
4.0740694e-41
4.0740811e-41
4.0744061e-41
4.0741466e-41
4.0740202e-41
4.0739657e-41
4.0739452e-41
4.0739386e-41
4.0739374e-41
4.073939e-41
4.0739443e-41
4.0739573e-41
4.0743516e-41
4.0740921e-41
4.0739657e-41
4.0739112e-41
4.0738907e-41
4.0738842e-41
4.0738831e-41
4.0738848e-41
4.0738904e-41
4.0739039e-41
4.074331e-41
4.0740716e-41
4.0739452e-41
4.0738907e-41
4.0738703e-41
4.0738637e-41
4.0738626e-41
4.0738645e-41
4.0738702e-41
4.0738838e-41
4.0743244e-41
4.074065e-41
4.0739386e-41
4.0738842e-41
4.0738637e-41
4.0738572e-41
4.0738561e-41
4.073858e-41
4.0738637e-41
4.0738774e-41
4.0743229e-41
4.0740636e-41
4.0739374e-41
4.0738831e-41
4.0738626e-41
4.0738561e-41
4.073855e-41
4.0738569e-41
4.0738627e-41
4.0738763e-41
4.0743238e-41
4.0740649e-41
4.073939e-41
4.0738848e-41
4.0738645e-41
4.073858e-41
4.0738569e-41
4.0738588e-41
4.0738646e-41
4.0738782e-41
4.0743269e-41
4.0740694e-41
4.0739443e-41
4.0738904e-41
4.0738702e-41
4.0738637e-41
4.0738627e-41
4.0738646e-41
4.0738703e-41
4.073884e-41
4.0743345e-41
4.0740811e-41
4.0739573e-41
4.0739039e-41
4.0738838e-41
4.0738774e-41
4.0738763e-41
4.0738782e-41
4.073884e-41
4.0738976e-41
2.0484066e-40
2.0482809e-40
2.0482196e-40
2.0481931e-40
2.0481831e-40
2.0481799e-40
2.0481792e-40
2.0481796e-40
2.0481811e-40
2.0481848e-40
2.0482809e-40
2.0481553e-40
2.048094e-40
2.0480675e-40
2.0480575e-40
2.0480543e-40
2.0480537e-40
2.0480543e-40
2.0480565e-40
2.0480622e-40
2.0482196e-40
2.048094e-40
2.0480326e-40
2.0480062e-40
2.0479962e-40
2.047993e-40
2.0479924e-40
2.0479932e-40
2.0479958e-40
2.0480021e-40
2.0481931e-40
2.0480675e-40
2.0480062e-40
2.0479797e-40
2.0479698e-40
2.0479666e-40
2.047966e-40
2.0479669e-40
2.0479696e-40
2.0479762e-40
2.0481831e-40
2.0480575e-40
2.0479962e-40
2.0479698e-40
2.0479598e-40
2.0479566e-40
2.0479561e-40
2.047957e-40
2.0479598e-40
2.0479664e-40
2.0481799e-40
2.0480543e-40
2.047993e-40
2.0479666e-40
2.0479566e-40
2.0479535e-40
2.0479529e-40
2.0479539e-40
2.0479567e-40
2.0479633e-40
2.0481792e-40
2.0480537e-40
2.0479924e-40
2.047966e-40
2.0479561e-40
2.0479529e-40
2.0479524e-40
2.0479533e-40
2.0479562e-40
2.0479628e-40
2.0481796e-40
2.0480543e-40
2.0479932e-40
2.0479669e-40
2.047957e-40
2.0479539e-40
2.0479533e-40
2.0479543e-40
2.0479571e-40
2.0479637e-40
2.0481811e-40
2.0480565e-40
2.0479958e-40
2.0479696e-40
2.0479598e-40
2.0479567e-40
2.0479562e-40
2.0479571e-40
2.0479599e-40
2.0479665e-40
2.0481848e-40
2.0480622e-40
2.0480021e-40
2.0479762e-40
2.0479664e-40
2.0479633e-40
2.0479628e-40
2.0479637e-40
2.0479665e-40
2.0479732e-40
1.0499006e-39
1.0498386e-39
1.0498083e-39
1.0497952e-39
1.0497903e-39
1.0497887e-39
1.0497883e-39
1.0497885e-39
1.0497893e-39
1.0497911e-39
1.0498386e-39
1.0497767e-39
1.0497464e-39
1.0497333e-39
1.0497283e-39
1.0497267e-39
1.0497264e-39
1.0497267e-39
1.0497278e-39
1.0497306e-39
1.0498083e-39
1.0497464e-39
1.049716e-39
1.0497029e-39
1.049698e-39
1.0496964e-39
1.0496961e-39
1.0496965e-39
1.0496978e-39
1.0497009e-39
1.0497952e-39
1.0497333e-39
1.0497029e-39
1.0496898e-39
1.0496849e-39
1.0496833e-39
1.0496831e-39
1.0496835e-39
1.0496849e-39
1.0496881e-39
1.0497903e-39
1.0497283e-39
1.049698e-39
1.0496849e-39
1.04968e-39
1.0496784e-39
1.0496782e-39
1.0496786e-39
1.04968e-39
1.0496833e-39
1.0497887e-39
1.0497267e-39
1.0496964e-39
1.0496833e-39
1.0496784e-39
1.0496768e-39
1.0496766e-39
1.0496771e-39
1.0496785e-39
1.0496817e-39
1.0497883e-39
1.0497264e-39
1.0496961e-39
1.0496831e-39
1.0496782e-39
1.0496766e-39
1.0496763e-39
1.0496768e-39
1.0496782e-39
1.0496815e-39
1.0497885e-39
1.0497267e-39
1.0496965e-39
1.0496835e-39
1.0496786e-39
1.0496771e-39
1.0496768e-39
1.0496773e-39
1.0496787e-39
1.049682e-39
1.0497893e-39
1.0497278e-39
1.0496978e-39
1.0496849e-39
1.04968e-39
1.0496785e-39
1.0496782e-39
1.0496787e-39
1.0496801e-39
1.0496834e-39
1.0497911e-39
1.0497306e-39
1.0497009e-39
1.0496881e-39
1.0496833e-39
1.0496817e-39
1.0496815e-39
1.049682e-39