/*--------------------------------*- C++ -*----------------------------------*\
| =========                 |                                                 |
| \\      /  F ield         | OpenFOAM: The Open Source CFD Toolbox           |
|  \\    /   O peration     | Version:  dev                                   |
|   \\  /    A nd           | Web:      www.OpenFOAM.org                      |
|    \\/     M anipulation  |                                                 |
\*---------------------------------------------------------------------------*/
FoamFile
{
    version     2.0;
    format      ascii;
    class       volScalarField;
    location    "40.995";
    object      A_0;
}
// * * * * * * * * * * * * * * * * * * * * * * * * * * * * * * * * * * * * * //

dimensions      [0 0 0 0 1 0 0];

internalField   nonuniform List<scalar> 
10000
(
5.0535184e-37
5.042292e-37
5.0396072e-37
5.0390736e-37
5.0389747e-37
5.0389539e-37
5.0389561e-37
5.03901e-37
5.0393123e-37
5.0405277e-37
5.042292e-37
5.0311367e-37
5.0284669e-37
5.0279361e-37
5.0278377e-37
5.0278172e-37
5.0278205e-37
5.0278819e-37
5.0282263e-37
5.0296363e-37
5.0396072e-37
5.0284669e-37
5.0258015e-37
5.0252717e-37
5.0251735e-37
5.0251531e-37
5.0251571e-37
5.0252218e-37
5.0255806e-37
5.0270316e-37
5.0390736e-37
5.0279361e-37
5.0252717e-37
5.0247421e-37
5.024644e-37
5.0246236e-37
5.0246279e-37
5.0246935e-37
5.0250555e-37
5.0265137e-37
5.0389747e-37
5.0278377e-37
5.0251735e-37
5.024644e-37
5.0245459e-37
5.0245257e-37
5.02453e-37
5.0245958e-37
5.0249585e-37
5.0264178e-37
5.0389539e-37
5.0278172e-37
5.0251531e-37
5.0246236e-37
5.0245257e-37
5.0245055e-37
5.0245098e-37
5.0245758e-37
5.0249386e-37
5.026398e-37
5.0389561e-37
5.0278205e-37
5.0251571e-37
5.0246279e-37
5.02453e-37
5.0245098e-37
5.0245142e-37
5.0245802e-37
5.0249431e-37
5.0264026e-37
5.03901e-37
5.0278819e-37
5.0252218e-37
5.0246935e-37
5.0245958e-37
5.0245758e-37
5.0245802e-37
5.0246462e-37
5.0250092e-37
5.0264688e-37
5.0393123e-37
5.0282263e-37
5.0255806e-37
5.0250555e-37
5.0249585e-37
5.0249386e-37
5.0249431e-37
5.0250092e-37
5.0253724e-37
5.0268331e-37
5.0405277e-37
5.0296363e-37
5.0270316e-37
5.0265137e-37
5.0264178e-37
5.026398e-37
5.0264026e-37
5.0264688e-37
5.0268331e-37
5.0282988e-37
1.9222191e-36
1.9181278e-36
1.9171238e-36
1.9169237e-36
1.9168866e-36
1.9168787e-36
1.9168795e-36
1.9168996e-36
1.9170126e-36
1.9174912e-36
1.9181278e-36
1.914062e-36
1.9130635e-36
1.9128644e-36
1.9128275e-36
1.9128197e-36
1.912821e-36
1.9128438e-36
1.9129728e-36
1.9135258e-36
1.9171238e-36
1.9130635e-36
1.9120666e-36
1.9118679e-36
1.911831e-36
1.9118233e-36
1.9118248e-36
1.9118489e-36
1.9119834e-36
1.9125519e-36
1.9169237e-36
1.9128644e-36
1.9118679e-36
1.9116692e-36
1.9116324e-36
1.9116248e-36
1.9116263e-36
1.9116508e-36
1.9117865e-36
1.9123577e-36
1.9168866e-36
1.9128275e-36
1.911831e-36
1.9116324e-36
1.9115956e-36
1.911588e-36
1.9115896e-36
1.9116141e-36
1.9117501e-36
1.9123217e-36
1.9168787e-36
1.9128197e-36
1.9118233e-36
1.9116248e-36
1.911588e-36
1.9115804e-36
1.911582e-36
1.9116066e-36
1.9117426e-36
1.9123143e-36
1.9168795e-36
1.912821e-36
1.9118248e-36
1.9116263e-36
1.9115896e-36
1.911582e-36
1.9115836e-36
1.9116082e-36
1.9117442e-36
1.912316e-36
1.9168996e-36
1.9128438e-36
1.9118489e-36
1.9116508e-36
1.9116141e-36
1.9116066e-36
1.9116082e-36
1.9116329e-36
1.9117689e-36
1.9123407e-36
1.9170126e-36
1.9129728e-36
1.9119834e-36
1.9117865e-36
1.9117501e-36
1.9117426e-36
1.9117442e-36
1.9117689e-36
1.9119051e-36
1.9124773e-36
1.9174912e-36
1.9135258e-36
1.9125519e-36
1.9123577e-36
1.9123217e-36
1.9123143e-36
1.912316e-36
1.9123407e-36
1.9124773e-36
1.9130515e-36
4.9401049e-36
4.9299456e-36
4.9274309e-36
4.9269287e-36
4.9268354e-36
4.9268156e-36
4.9268174e-36
4.926867e-36
4.9271477e-36
4.9283783e-36
4.9299456e-36
4.9198489e-36
4.9173478e-36
4.9168481e-36
4.9167552e-36
4.9167357e-36
4.9167386e-36
4.9167955e-36
4.9171171e-36
4.9185382e-36
4.9274309e-36
4.9173478e-36
4.9148509e-36
4.914352e-36
4.9142593e-36
4.9142399e-36
4.9142435e-36
4.9143036e-36
4.9146392e-36
4.9161001e-36
4.9269287e-36
4.9168481e-36
4.914352e-36
4.9138534e-36
4.9137607e-36
4.9137415e-36
4.9137453e-36
4.9138062e-36
4.9141449e-36
4.9156128e-36
4.9268354e-36
4.9167552e-36
4.9142593e-36
4.9137607e-36
4.9136681e-36
4.9136489e-36
4.9136528e-36
4.913714e-36
4.9140533e-36
4.9155222e-36
4.9268156e-36
4.9167357e-36
4.9142399e-36
4.9137415e-36
4.9136489e-36
4.9136298e-36
4.9136337e-36
4.913695e-36
4.9140344e-36
4.9155035e-36
4.9268174e-36
4.9167386e-36
4.9142435e-36
4.9137453e-36
4.9136528e-36
4.9136337e-36
4.9136377e-36
4.913699e-36
4.9140385e-36
4.9155076e-36
4.926867e-36
4.9167955e-36
4.9143036e-36
4.9138062e-36
4.913714e-36
4.913695e-36
4.913699e-36
4.9137603e-36
4.9140999e-36
4.9155692e-36
4.9271477e-36
4.9171171e-36
4.9146392e-36
4.9141449e-36
4.9140533e-36
4.9140344e-36
4.9140385e-36
4.9140999e-36
4.9144398e-36
4.91591e-36
4.9283783e-36
4.9185382e-36
4.9161001e-36
4.9156128e-36
4.9155222e-36
4.9155035e-36
4.9155076e-36
4.9155692e-36
4.91591e-36
4.9173856e-36
1.2211437e-35
1.2187142e-35
1.2181106e-35
1.2179898e-35
1.2179673e-35
1.2179625e-35
1.2179629e-35
1.2179746e-35
1.2180409e-35
1.2183332e-35
1.2187142e-35
1.2162994e-35
1.215699e-35
1.2155788e-35
1.2155565e-35
1.2155517e-35
1.2155524e-35
1.2155659e-35
1.2156422e-35
1.2159814e-35
1.2181106e-35
1.215699e-35
1.2150996e-35
1.2149797e-35
1.2149573e-35
1.2149527e-35
1.2149535e-35
1.2149678e-35
1.2150475e-35
1.2153965e-35
1.2179898e-35
1.2155788e-35
1.2149797e-35
1.2148598e-35
1.2148374e-35
1.2148328e-35
1.2148337e-35
1.2148482e-35
1.2149287e-35
1.2152794e-35
1.2179673e-35
1.2155565e-35
1.2149573e-35
1.2148374e-35
1.2148151e-35
1.2148105e-35
1.2148114e-35
1.214826e-35
1.2149066e-35
1.2152576e-35
1.2179625e-35
1.2155517e-35
1.2149527e-35
1.2148328e-35
1.2148105e-35
1.2148059e-35
1.2148068e-35
1.2148214e-35
1.2149021e-35
1.215253e-35
1.2179629e-35
1.2155524e-35
1.2149535e-35
1.2148337e-35
1.2148114e-35
1.2148068e-35
1.2148077e-35
1.2148223e-35
1.214903e-35
1.215254e-35
1.2179746e-35
1.2155659e-35
1.2149678e-35
1.2148482e-35
1.214826e-35
1.2148214e-35
1.2148223e-35
1.2148369e-35
1.2149176e-35
1.2152687e-35
1.2180409e-35
1.2156422e-35
1.2150475e-35
1.2149287e-35
1.2149066e-35
1.2149021e-35
1.214903e-35
1.2149176e-35
1.2149985e-35
1.2153497e-35
1.2183332e-35
1.2159814e-35
1.2153965e-35
1.2152794e-35
1.2152576e-35
1.215253e-35
1.215254e-35
1.2152687e-35
1.2153497e-35
1.2157022e-35
3.0366906e-35
3.0308453e-35
3.0293898e-35
3.0290981e-35
3.0290437e-35
3.0290321e-35
3.029033e-35
3.0290607e-35
3.0292173e-35
3.0299066e-35
3.0308453e-35
3.0250353e-35
3.0235875e-35
3.0232972e-35
3.023243e-35
3.0232316e-35
3.0232331e-35
3.0232653e-35
3.0234468e-35
3.0242522e-35
3.0293898e-35
3.0235875e-35
3.022142e-35
3.0218522e-35
3.0217981e-35
3.0217868e-35
3.0217887e-35
3.0218228e-35
3.0220128e-35
3.0228424e-35
3.0290981e-35
3.0232972e-35
3.0218522e-35
3.0215626e-35
3.0215085e-35
3.0214972e-35
3.0214993e-35
3.0215339e-35
3.0217259e-35
3.0225597e-35
3.0290437e-35
3.023243e-35
3.0217981e-35
3.0215085e-35
3.0214545e-35
3.0214433e-35
3.0214454e-35
3.0214801e-35
3.0216725e-35
3.0225069e-35
3.0290321e-35
3.0232316e-35
3.0217868e-35
3.0214972e-35
3.0214433e-35
3.021432e-35
3.0214342e-35
3.021469e-35
3.0216614e-35
3.0224959e-35
3.029033e-35
3.0232331e-35
3.0217887e-35
3.0214993e-35
3.0214454e-35
3.0214342e-35
3.0214364e-35
3.0214712e-35
3.0216636e-35
3.0224982e-35
3.0290607e-35
3.0232653e-35
3.0218228e-35
3.0215339e-35
3.0214801e-35
3.021469e-35
3.0214712e-35
3.021506e-35
3.0216985e-35
3.0225332e-35
3.0292173e-35
3.0234468e-35
3.0220128e-35
3.0217259e-35
3.0216725e-35
3.0216614e-35
3.0216636e-35
3.0216985e-35
3.0218911e-35
3.0227264e-35
3.0299066e-35
3.0242522e-35
3.0228424e-35
3.0225597e-35
3.0225069e-35
3.0224959e-35
3.0224982e-35
3.0225332e-35
3.0227264e-35
3.0235646e-35
7.6536551e-35
7.6394064e-35
7.6358512e-35
7.6351377e-35
7.6350043e-35
7.6349758e-35
7.6349777e-35
7.6350441e-35
7.6354189e-35
7.6370604e-35
7.6394064e-35
7.6252428e-35
7.6217062e-35
7.6209962e-35
7.6208634e-35
7.6208352e-35
7.6208388e-35
7.6209163e-35
7.6213534e-35
7.6232861e-35
7.6358512e-35
7.6217062e-35
7.6181753e-35
7.6174664e-35
7.6173339e-35
7.6173059e-35
7.6173105e-35
7.6173928e-35
7.6178513e-35
7.6198447e-35
7.6351377e-35
7.6209962e-35
7.6174664e-35
7.6167578e-35
7.6166254e-35
7.6165976e-35
7.6166025e-35
7.6166862e-35
7.6171494e-35
7.6191534e-35
7.6350043e-35
7.6208634e-35
7.6173339e-35
7.6166254e-35
7.616493e-35
7.6164653e-35
7.6164704e-35
7.6165544e-35
7.6170185e-35
7.6190241e-35
7.6349758e-35
7.6208352e-35
7.6173059e-35
7.6165976e-35
7.6164653e-35
7.6164376e-35
7.6164428e-35
7.616527e-35
7.6169912e-35
7.6189971e-35
7.6349777e-35
7.6208388e-35
7.6173105e-35
7.6166025e-35
7.6164704e-35
7.6164428e-35
7.616448e-35
7.6165322e-35
7.6169966e-35
7.6190025e-35
7.6350441e-35
7.6209163e-35
7.6173928e-35
7.6166862e-35
7.6165544e-35
7.616527e-35
7.6165322e-35
7.6166165e-35
7.6170809e-35
7.6190871e-35
7.6354189e-35
7.6213534e-35
7.6178513e-35
7.6171494e-35
7.6170185e-35
7.6169912e-35
7.6169966e-35
7.6170809e-35
7.6175458e-35
7.6195532e-35
7.6370604e-35
7.6232861e-35
7.6198447e-35
7.6191534e-35
7.6190241e-35
7.6189971e-35
7.6190025e-35
7.6190871e-35
7.6195532e-35
7.6215678e-35
1.9576508e-34
1.9541274e-34
1.9532466e-34
1.9530695e-34
1.9530363e-34
1.9530292e-34
1.9530296e-34
1.9530458e-34
1.9531367e-34
1.953533e-34
1.9541274e-34
1.9506248e-34
1.9497485e-34
1.9495723e-34
1.9495393e-34
1.9495323e-34
1.9495331e-34
1.9495521e-34
1.9496588e-34
1.9501292e-34
1.9532466e-34
1.9497485e-34
1.9488736e-34
1.9486977e-34
1.9486648e-34
1.9486578e-34
1.9486589e-34
1.9486791e-34
1.9487913e-34
1.9492771e-34
1.9530695e-34
1.9495723e-34
1.9486977e-34
1.9485219e-34
1.948489e-34
1.948482e-34
1.9484832e-34
1.9485038e-34
1.9486171e-34
1.9491056e-34
1.9530363e-34
1.9495393e-34
1.9486648e-34
1.948489e-34
1.9484561e-34
1.9484492e-34
1.9484504e-34
1.948471e-34
1.9485846e-34
1.9490735e-34
1.9530292e-34
1.9495323e-34
1.9486578e-34
1.948482e-34
1.9484492e-34
1.9484423e-34
1.9484435e-34
1.9484642e-34
1.9485778e-34
1.9490668e-34
1.9530296e-34
1.9495331e-34
1.9486589e-34
1.9484832e-34
1.9484504e-34
1.9484435e-34
1.9484448e-34
1.9484654e-34
1.9485791e-34
1.9490681e-34
1.9530458e-34
1.9495521e-34
1.9486791e-34
1.9485038e-34
1.948471e-34
1.9484642e-34
1.9484654e-34
1.9484861e-34
1.9485998e-34
1.9490889e-34
1.9531367e-34
1.9496588e-34
1.9487913e-34
1.9486171e-34
1.9485846e-34
1.9485778e-34
1.9485791e-34
1.9485998e-34
1.9487136e-34
1.949203e-34
1.953533e-34
1.9501292e-34
1.9492771e-34
1.9491056e-34
1.9490735e-34
1.9490668e-34
1.9490681e-34
1.9490889e-34
1.949203e-34
1.949694e-34
5.082986e-34
5.0741453e-34
5.071931e-34
5.0714854e-34
5.0714017e-34
5.0713837e-34
5.0713846e-34
5.0714245e-34
5.0716482e-34
5.0726189e-34
5.0741453e-34
5.0653563e-34
5.0631534e-34
5.0627098e-34
5.0626265e-34
5.0626088e-34
5.0626108e-34
5.0626579e-34
5.0629225e-34
5.0640843e-34
5.071931e-34
5.0631534e-34
5.060954e-34
5.0605111e-34
5.060428e-34
5.0604103e-34
5.060413e-34
5.0604633e-34
5.0607419e-34
5.0619435e-34
5.0714854e-34
5.0627098e-34
5.0605111e-34
5.0600684e-34
5.0599854e-34
5.0599678e-34
5.0599707e-34
5.0600219e-34
5.0603035e-34
5.0615122e-34
5.0714017e-34
5.0626265e-34
5.060428e-34
5.0599854e-34
5.0599024e-34
5.0598849e-34
5.0598878e-34
5.0599392e-34
5.0602215e-34
5.0614312e-34
5.0713837e-34
5.0626088e-34
5.0604103e-34
5.0599678e-34
5.0598849e-34
5.0598674e-34
5.0598704e-34
5.0599219e-34
5.0602043e-34
5.0614141e-34
5.0713846e-34
5.0626108e-34
5.060413e-34
5.0599707e-34
5.0598878e-34
5.0598704e-34
5.0598735e-34
5.059925e-34
5.0602075e-34
5.0614173e-34
5.0714245e-34
5.0626579e-34
5.0604633e-34
5.0600219e-34
5.0599392e-34
5.0599219e-34
5.059925e-34
5.0599765e-34
5.0602591e-34
5.0614691e-34
5.0716482e-34
5.0629225e-34
5.0607419e-34
5.0603035e-34
5.0602215e-34
5.0602043e-34
5.0602075e-34
5.0602591e-34
5.0605418e-34
5.0617526e-34
5.0726189e-34
5.0640843e-34
5.0619435e-34
5.0615122e-34
5.0614312e-34
5.0614141e-34
5.0614173e-34
5.0614691e-34
5.0617526e-34
5.0629675e-34
1.3398776e-33
1.3376265e-33
1.3370617e-33
1.3369479e-33
1.3369264e-33
1.3369218e-33
1.336922e-33
1.336932e-33
1.3369879e-33
1.3372292e-33
1.3376265e-33
1.3353886e-33
1.3348266e-33
1.3347133e-33
1.334692e-33
1.3346874e-33
1.3346879e-33
1.3346998e-33
1.3347663e-33
1.3350577e-33
1.3370617e-33
1.3348266e-33
1.3342655e-33
1.3341524e-33
1.3341311e-33
1.3341266e-33
1.3341272e-33
1.3341399e-33
1.3342102e-33
1.3345119e-33
1.3369479e-33
1.3347133e-33
1.3341524e-33
1.3340393e-33
1.334018e-33
1.3340135e-33
1.3340142e-33
1.3340272e-33
1.3340982e-33
1.3344018e-33
1.3369264e-33
1.334692e-33
1.3341311e-33
1.334018e-33
1.3339968e-33
1.3339923e-33
1.333993e-33
1.334006e-33
1.3340772e-33
1.3343811e-33
1.3369218e-33
1.3346874e-33
1.3341266e-33
1.3340135e-33
1.3339923e-33
1.3339878e-33
1.3339885e-33
1.3340016e-33
1.3340728e-33
1.3343767e-33
1.336922e-33
1.3346879e-33
1.3341272e-33
1.3340142e-33
1.333993e-33
1.3339885e-33
1.3339893e-33
1.3340023e-33
1.3340736e-33
1.3343775e-33
1.336932e-33
1.3346998e-33
1.3341399e-33
1.3340272e-33
1.334006e-33
1.3340016e-33
1.3340023e-33
1.3340154e-33
1.3340866e-33
1.3343906e-33
1.3369879e-33
1.3347663e-33
1.3342102e-33
1.3340982e-33
1.3340772e-33
1.3340728e-33
1.3340736e-33
1.3340866e-33
1.334158e-33
1.3344621e-33
1.3372292e-33
1.3350577e-33
1.3345119e-33
1.3344018e-33
1.3343811e-33
1.3343767e-33
1.3343775e-33
1.3343906e-33
1.3344621e-33
1.3347672e-33
3.5859506e-33
3.580134e-33
3.5786719e-33
3.5783768e-33
3.5783212e-33
3.5783091e-33
3.5783095e-33
3.5783349e-33
3.5784766e-33
3.5790853e-33
3.580134e-33
3.5743508e-33
3.572896e-33
3.5726023e-33
3.5725469e-33
3.572535e-33
3.5725362e-33
3.5725666e-33
3.5727367e-33
3.5734783e-33
3.5786719e-33
3.572896e-33
3.5714435e-33
3.5711502e-33
3.5710949e-33
3.5710831e-33
3.5710847e-33
3.5711173e-33
3.5712971e-33
3.5720665e-33
3.5783768e-33
3.5726023e-33
3.5711502e-33
3.570857e-33
3.5708018e-33
3.57079e-33
3.5707918e-33
3.570825e-33
3.571007e-33
3.5717811e-33
3.5783212e-33
3.5725469e-33
3.5710949e-33
3.5708018e-33
3.5707466e-33
3.5707349e-33
3.5707367e-33
3.5707701e-33
3.5709525e-33
3.5717273e-33
3.5783091e-33
3.572535e-33
3.5710831e-33
3.57079e-33
3.5707349e-33
3.5707232e-33
3.5707251e-33
3.5707585e-33
3.570941e-33
3.571716e-33
3.5783095e-33
3.5725362e-33
3.5710847e-33
3.5707918e-33
3.5707367e-33
3.5707251e-33
3.570727e-33
3.5707605e-33
3.5709429e-33
3.571718e-33
3.5783349e-33
3.5725666e-33
3.5711173e-33
3.570825e-33
3.5707701e-33
3.5707585e-33
3.5707605e-33
3.5707939e-33
3.5709765e-33
3.5717516e-33
3.5784766e-33
3.5727367e-33
3.5712971e-33
3.571007e-33
3.5709525e-33
3.570941e-33
3.5709429e-33
3.5709765e-33
3.5711591e-33
3.5719347e-33
3.5790853e-33
3.5734783e-33
3.5720665e-33
3.5717811e-33
3.5717273e-33
3.571716e-33
3.571718e-33
3.5717516e-33
3.5719347e-33
3.5727129e-33
9.7445392e-33
9.7292855e-33
9.7254444e-33
9.7246681e-33
9.7245215e-33
9.7244896e-33
9.7244905e-33
9.724556e-33
9.7249208e-33
9.7264792e-33
9.7292855e-33
9.7141188e-33
9.7102967e-33
9.7095238e-33
9.7093779e-33
9.7093464e-33
9.7093494e-33
9.7094284e-33
9.7098696e-33
9.7117865e-33
9.7254444e-33
9.7102967e-33
9.7064804e-33
9.7057088e-33
9.7055631e-33
9.7055319e-33
9.7055361e-33
9.705621e-33
9.7060883e-33
9.7080799e-33
9.7246681e-33
9.7095238e-33
9.7057088e-33
9.7049375e-33
9.7047919e-33
9.7047609e-33
9.7047655e-33
9.704852e-33
9.7053252e-33
9.7073298e-33
9.7245215e-33
9.7093779e-33
9.7055631e-33
9.7047919e-33
9.7046465e-33
9.7046155e-33
9.7046203e-33
9.7047073e-33
9.7051815e-33
9.7071881e-33
9.7244896e-33
9.7093464e-33
9.7055319e-33
9.7047609e-33
9.7046155e-33
9.7045847e-33
9.7045895e-33
9.7046767e-33
9.7051511e-33
9.707158e-33
9.7244905e-33
9.7093494e-33
9.7055361e-33
9.7047655e-33
9.7046203e-33
9.7045895e-33
9.7045944e-33
9.7046816e-33
9.7051562e-33
9.7071631e-33
9.724556e-33
9.7094284e-33
9.705621e-33
9.704852e-33
9.7047073e-33
9.7046767e-33
9.7046816e-33
9.7047689e-33
9.7052436e-33
9.7072507e-33
9.7249208e-33
9.7098696e-33
9.7060883e-33
9.7053252e-33
9.7051815e-33
9.7051511e-33
9.7051562e-33
9.7052436e-33
9.7057186e-33
9.7077269e-33
9.7264792e-33
9.7117865e-33
9.7080799e-33
9.7073298e-33
9.7071881e-33
9.707158e-33
9.7071631e-33
9.7072507e-33
9.7077269e-33
9.7097419e-33
2.6887872e-32
2.6847274e-32
2.6837033e-32
2.683496e-32
2.6834568e-32
2.6834483e-32
2.6834484e-32
2.6834656e-32
2.6835609e-32
2.6839659e-32
2.6847274e-32
2.6806905e-32
2.6796714e-32
2.679465e-32
2.679426e-32
2.6794176e-32
2.6794183e-32
2.6794392e-32
2.6795554e-32
2.6800585e-32
2.6837033e-32
2.6796714e-32
2.6786538e-32
2.6784478e-32
2.6784089e-32
2.6784005e-32
2.6784016e-32
2.678424e-32
2.6785474e-32
2.6790709e-32
2.683496e-32
2.679465e-32
2.6784478e-32
2.6782419e-32
2.678203e-32
2.6781946e-32
2.6781958e-32
2.6782187e-32
2.6783437e-32
2.6788708e-32
2.6834568e-32
2.679426e-32
2.6784089e-32
2.678203e-32
2.6781641e-32
2.6781558e-32
2.678157e-32
2.67818e-32
2.6783052e-32
2.6788329e-32
2.6834483e-32
2.6794176e-32
2.6784005e-32
2.6781946e-32
2.6781558e-32
2.6781475e-32
2.6781487e-32
2.6781718e-32
2.6782971e-32
2.6788248e-32
2.6834484e-32
2.6794183e-32
2.6784016e-32
2.6781958e-32
2.678157e-32
2.6781487e-32
2.67815e-32
2.6781731e-32
2.6782984e-32
2.6788262e-32
2.6834656e-32
2.6794392e-32
2.678424e-32
2.6782187e-32
2.67818e-32
2.6781718e-32
2.6781731e-32
2.6781962e-32
2.6783216e-32
2.6788493e-32
2.6835609e-32
2.6795554e-32
2.6785474e-32
2.6783437e-32
2.6783052e-32
2.6782971e-32
2.6782984e-32
2.6783216e-32
2.678447e-32
2.6789751e-32
2.6839659e-32
2.6800585e-32
2.6790709e-32
2.6788708e-32
2.6788329e-32
2.6788248e-32
2.6788262e-32
2.6788493e-32
2.6789751e-32
2.6795049e-32
7.5336505e-32
7.5226836e-32
7.5199126e-32
7.519351e-32
7.5192446e-32
7.5192213e-32
7.5192217e-32
7.5192673e-32
7.51952e-32
7.5205884e-32
7.5226836e-32
7.5117782e-32
7.5090206e-32
7.5084614e-32
7.5083555e-32
7.5083325e-32
7.5083344e-32
7.5083903e-32
7.508701e-32
7.5100419e-32
7.5199126e-32
7.5090206e-32
7.5062671e-32
7.5057088e-32
7.5056031e-32
7.5055803e-32
7.5055831e-32
7.5056434e-32
7.505974e-32
7.5073715e-32
7.519351e-32
7.5084614e-32
7.5057088e-32
7.5051508e-32
7.5050451e-32
7.5050225e-32
7.5050256e-32
7.5050872e-32
7.5054222e-32
7.5068296e-32
7.5192446e-32
7.5083555e-32
7.5056031e-32
7.5050451e-32
7.5049395e-32
7.5049169e-32
7.5049202e-32
7.5049821e-32
7.5053179e-32
7.5067268e-32
7.5192213e-32
7.5083325e-32
7.5055803e-32
7.5050225e-32
7.5049169e-32
7.5048944e-32
7.5048977e-32
7.5049597e-32
7.5052957e-32
7.5067049e-32
7.5192217e-32
7.5083344e-32
7.5055831e-32
7.5050256e-32
7.5049202e-32
7.5048977e-32
7.5049011e-32
7.5049632e-32
7.5052992e-32
7.5067085e-32
7.5192673e-32
7.5083903e-32
7.5056434e-32
7.5050872e-32
7.5049821e-32
7.5049597e-32
7.5049632e-32
7.5050253e-32
7.5053614e-32
7.5067708e-32
7.51952e-32
7.508701e-32
7.505974e-32
7.5054222e-32
7.5053179e-32
7.5052957e-32
7.5052992e-32
7.5053614e-32
7.5056978e-32
7.507108e-32
7.5205884e-32
7.5100419e-32
7.5073715e-32
7.5068296e-32
7.5067268e-32
7.5067049e-32
7.5067085e-32
7.5067708e-32
7.507108e-32
7.5085226e-32
2.1434801e-31
2.1404733e-31
2.1397124e-31
2.1395579e-31
2.1395286e-31
2.1395222e-31
2.1395222e-31
2.1395346e-31
2.1396026e-31
2.1398887e-31
2.1404733e-31
2.1374833e-31
2.1367259e-31
2.1365722e-31
2.136543e-31
2.1365366e-31
2.1365371e-31
2.1365523e-31
2.1366367e-31
2.1369996e-31
2.1397124e-31
2.1367259e-31
2.1359697e-31
2.1358162e-31
2.1357871e-31
2.1357808e-31
2.1357815e-31
2.135798e-31
2.1358879e-31
2.1362668e-31
2.1395579e-31
2.1365722e-31
2.1358162e-31
2.1356627e-31
2.1356336e-31
2.1356274e-31
2.1356282e-31
2.135645e-31
2.1357362e-31
2.1361179e-31
2.1395286e-31
2.136543e-31
2.1357871e-31
2.1356336e-31
2.1356045e-31
2.1355983e-31
2.1355992e-31
2.1356161e-31
2.1357075e-31
2.1360896e-31
2.1395222e-31
2.1365366e-31
2.1357808e-31
2.1356274e-31
2.1355983e-31
2.1355921e-31
2.135593e-31
2.1356099e-31
2.1357014e-31
2.1360835e-31
2.1395222e-31
2.1365371e-31
2.1357815e-31
2.1356282e-31
2.1355992e-31
2.135593e-31
2.1355939e-31
2.1356108e-31
2.1357023e-31
2.1360845e-31
2.1395346e-31
2.1365523e-31
2.135798e-31
2.135645e-31
2.1356161e-31
2.1356099e-31
2.1356108e-31
2.1356278e-31
2.1357193e-31
2.1361015e-31
2.1396026e-31
2.1366367e-31
2.1358879e-31
2.1357362e-31
2.1357075e-31
2.1357014e-31
2.1357023e-31
2.1357193e-31
2.1358109e-31
2.1361933e-31
2.1398887e-31
2.1369996e-31
2.1362668e-31
2.1361179e-31
2.1360896e-31
2.1360835e-31
2.1360845e-31
2.1361015e-31
2.1361933e-31
2.1365769e-31
6.193048e-31
6.1846813e-31
6.1825603e-31
6.1821293e-31
6.1820474e-31
6.1820293e-31
6.1820294e-31
6.1820632e-31
6.1822491e-31
6.1830269e-31
6.1846813e-31
6.1763606e-31
6.1742497e-31
6.1738206e-31
6.1737389e-31
6.1737211e-31
6.1737225e-31
6.1737645e-31
6.1739972e-31
6.1749946e-31
6.1825603e-31
6.1742497e-31
6.1721418e-31
6.1717134e-31
6.1716319e-31
6.1716143e-31
6.1716163e-31
6.1716619e-31
6.1719106e-31
6.1729537e-31
6.1821293e-31
6.1738206e-31
6.1717134e-31
6.1712851e-31
6.1712037e-31
6.1711862e-31
6.1711884e-31
6.171235e-31
6.1714873e-31
6.1725384e-31
6.1820474e-31
6.1737389e-31
6.1716319e-31
6.1712037e-31
6.1711224e-31
6.1711049e-31
6.1711073e-31
6.1711541e-31
6.171407e-31
6.1724593e-31
6.1820293e-31
6.1737211e-31
6.1716143e-31
6.1711862e-31
6.1711049e-31
6.1710874e-31
6.1710899e-31
6.1711368e-31
6.1713898e-31
6.1724424e-31
6.1820294e-31
6.1737225e-31
6.1716163e-31
6.1711884e-31
6.1711073e-31
6.1710899e-31
6.1710924e-31
6.1711394e-31
6.1713924e-31
6.172445e-31
6.1820632e-31
6.1737645e-31
6.1716619e-31
6.171235e-31
6.1711541e-31
6.1711368e-31
6.1711394e-31
6.1711864e-31
6.1714395e-31
6.1724922e-31
6.1822491e-31
6.1739972e-31
6.1719106e-31
6.1714873e-31
6.171407e-31
6.1713898e-31
6.1713924e-31
6.1714395e-31
6.1716928e-31
6.1727461e-31
6.1830269e-31
6.1749946e-31
6.1729537e-31
6.1725384e-31
6.1724593e-31
6.1724424e-31
6.172445e-31
6.1724922e-31
6.1727461e-31
6.1738025e-31
1.8170265e-30
1.8146636e-30
1.8140636e-30
1.8139415e-30
1.8139183e-30
1.8139132e-30
1.8139131e-30
1.8139225e-30
1.8139741e-30
1.8141888e-30
1.8146636e-30
1.8123135e-30
1.8117164e-30
1.8115949e-30
1.8115717e-30
1.8115666e-30
1.811567e-30
1.8115788e-30
1.8116439e-30
1.8119224e-30
1.8140636e-30
1.8117164e-30
1.8111201e-30
1.8109988e-30
1.8109756e-30
1.8109706e-30
1.8109712e-30
1.810984e-30
1.8110538e-30
1.8113455e-30
1.8139415e-30
1.8115949e-30
1.8109988e-30
1.8108775e-30
1.8108544e-30
1.8108494e-30
1.81085e-30
1.8108631e-30
1.810934e-30
1.811228e-30
1.8139183e-30
1.8115717e-30
1.8109756e-30
1.8108544e-30
1.8108313e-30
1.8108263e-30
1.810827e-30
1.8108402e-30
1.8109112e-30
1.8112055e-30
1.8139132e-30
1.8115666e-30
1.8109706e-30
1.8108494e-30
1.8108263e-30
1.8108213e-30
1.810822e-30
1.8108352e-30
1.8109063e-30
1.8112007e-30
1.8139131e-30
1.811567e-30
1.8109712e-30
1.81085e-30
1.810827e-30
1.810822e-30
1.8108227e-30
1.810836e-30
1.810907e-30
1.8112014e-30
1.8139225e-30
1.8115788e-30
1.810984e-30
1.8108631e-30
1.8108402e-30
1.8108352e-30
1.810836e-30
1.8108492e-30
1.8109203e-30
1.8112147e-30
1.8139741e-30
1.8116439e-30
1.8110538e-30
1.810934e-30
1.8109112e-30
1.8109063e-30
1.810907e-30
1.8109203e-30
1.8109914e-30
1.811286e-30
1.8141888e-30
1.8119224e-30
1.8113455e-30
1.811228e-30
1.8112055e-30
1.8112007e-30
1.8112014e-30
1.8112147e-30
1.811286e-30
1.8115815e-30
5.4135876e-30
5.4068148e-30
5.4050926e-30
5.4047418e-30
5.4046748e-30
5.40466e-30
5.4046599e-30
5.4046864e-30
5.4048318e-30
5.4054332e-30
5.4068148e-30
5.4000788e-30
5.3983645e-30
5.3980151e-30
5.3979485e-30
5.3979338e-30
5.3979348e-30
5.3979684e-30
5.3981537e-30
5.398943e-30
5.4050926e-30
5.3983645e-30
5.3966527e-30
5.3963039e-30
5.3962373e-30
5.3962228e-30
5.3962244e-30
5.396261e-30
5.39646e-30
5.3972883e-30
5.4047418e-30
5.3980151e-30
5.3963039e-30
5.3959552e-30
5.3958887e-30
5.3958743e-30
5.3958761e-30
5.3959136e-30
5.3961156e-30
5.3969507e-30
5.4046748e-30
5.3979485e-30
5.3962373e-30
5.3958887e-30
5.3958222e-30
5.3958079e-30
5.3958097e-30
5.3958475e-30
5.39605e-30
5.3968862e-30
5.40466e-30
5.3979338e-30
5.3962228e-30
5.3958743e-30
5.3958079e-30
5.3957935e-30
5.3957955e-30
5.3958333e-30
5.396036e-30
5.3968723e-30
5.4046599e-30
5.3979348e-30
5.3962244e-30
5.3958761e-30
5.3958097e-30
5.3957955e-30
5.3957974e-30
5.3958353e-30
5.396038e-30
5.3968744e-30
5.4046864e-30
5.3979684e-30
5.396261e-30
5.3959136e-30
5.3958475e-30
5.3958333e-30
5.3958353e-30
5.3958731e-30
5.3960759e-30
5.3969124e-30
5.4048318e-30
5.3981537e-30
5.39646e-30
5.3961156e-30
5.39605e-30
5.396036e-30
5.396038e-30
5.3960759e-30
5.3962788e-30
5.3971157e-30
5.4054332e-30
5.398943e-30
5.3972883e-30
5.3969507e-30
5.3968862e-30
5.3968723e-30
5.3968744e-30
5.3969124e-30
5.3971157e-30
5.3979551e-30
1.6378181e-29
1.635848e-29
1.6353463e-29
1.635244e-29
1.6352244e-29
1.6352201e-29
1.63522e-29
1.6352276e-29
1.6352692e-29
1.6354402e-29
1.635848e-29
1.6338885e-29
1.6333891e-29
1.6332872e-29
1.6332677e-29
1.6332634e-29
1.6332637e-29
1.6332734e-29
1.6333269e-29
1.6335542e-29
1.6353463e-29
1.6333891e-29
1.6328904e-29
1.6327886e-29
1.6327692e-29
1.6327649e-29
1.6327654e-29
1.632776e-29
1.6328336e-29
1.6330725e-29
1.635244e-29
1.6332872e-29
1.6327886e-29
1.6326869e-29
1.6326675e-29
1.6326633e-29
1.6326638e-29
1.6326747e-29
1.6327332e-29
1.6329741e-29
1.6352244e-29
1.6332677e-29
1.6327692e-29
1.6326675e-29
1.6326481e-29
1.6326439e-29
1.6326444e-29
1.6326554e-29
1.632714e-29
1.6329553e-29
1.6352201e-29
1.6332634e-29
1.6327649e-29
1.6326633e-29
1.6326439e-29
1.6326397e-29
1.6326402e-29
1.6326512e-29
1.6327099e-29
1.6329512e-29
1.63522e-29
1.6332637e-29
1.6327654e-29
1.6326638e-29
1.6326444e-29
1.6326402e-29
1.6326408e-29
1.6326518e-29
1.6327105e-29
1.6329518e-29
1.6352276e-29
1.6332734e-29
1.632776e-29
1.6326747e-29
1.6326554e-29
1.6326512e-29
1.6326518e-29
1.6326628e-29
1.6327215e-29
1.6329628e-29
1.6352692e-29
1.6333269e-29
1.6328336e-29
1.6327332e-29
1.632714e-29
1.6327099e-29
1.6327105e-29
1.6327215e-29
1.6327803e-29
1.6330217e-29
1.6354402e-29
1.6335542e-29
1.6330725e-29
1.6329741e-29
1.6329553e-29
1.6329512e-29
1.6329518e-29
1.6329628e-29
1.6330217e-29
1.6332639e-29
5.0313683e-29
5.025553e-29
5.0240698e-29
5.0237669e-29
5.0237089e-29
5.023696e-29
5.0236958e-29
5.023718e-29
5.0238387e-29
5.0243326e-29
5.025553e-29
5.0197687e-29
5.0182922e-29
5.0179906e-29
5.0179328e-29
5.01792e-29
5.0179208e-29
5.0179494e-29
5.0181063e-29
5.0187706e-29
5.0240698e-29
5.0182922e-29
5.0168177e-29
5.0165166e-29
5.0164589e-29
5.0164463e-29
5.0164476e-29
5.0164789e-29
5.0166483e-29
5.017348e-29
5.0237669e-29
5.0179906e-29
5.0165166e-29
5.0162156e-29
5.0161579e-29
5.0161454e-29
5.0161469e-29
5.016179e-29
5.0163511e-29
5.017057e-29
5.0237089e-29
5.0179328e-29
5.0164589e-29
5.0161579e-29
5.0161004e-29
5.0160879e-29
5.0160894e-29
5.0161218e-29
5.0162943e-29
5.0170012e-29
5.023696e-29
5.01792e-29
5.0164463e-29
5.0161454e-29
5.0160879e-29
5.0160754e-29
5.016077e-29
5.0161094e-29
5.0162821e-29
5.0169891e-29
5.0236958e-29
5.0179208e-29
5.0164476e-29
5.0161469e-29
5.0160894e-29
5.016077e-29
5.0160787e-29
5.0161111e-29
5.0162838e-29
5.0169909e-29
5.023718e-29
5.0179494e-29
5.0164789e-29
5.016179e-29
5.0161218e-29
5.0161094e-29
5.0161111e-29
5.0161435e-29
5.0163163e-29
5.0170234e-29
5.0238387e-29
5.0181063e-29
5.0166483e-29
5.0163511e-29
5.0162943e-29
5.0162821e-29
5.0162838e-29
5.0163163e-29
5.0164892e-29
5.0171967e-29
5.0243326e-29
5.0187706e-29
5.017348e-29
5.017057e-29
5.0170012e-29
5.0169891e-29
5.0169909e-29
5.0170234e-29
5.0171967e-29
5.0179061e-29
1.5693631e-28
1.5676213e-28
1.5671764e-28
1.5670854e-28
1.567068e-28
1.5670641e-28
1.567064e-28
1.5670706e-28
1.5671062e-28
1.5672509e-28
1.5676213e-28
1.5658887e-28
1.5654457e-28
1.5653552e-28
1.5653378e-28
1.5653339e-28
1.5653342e-28
1.5653427e-28
1.5653894e-28
1.5655866e-28
1.5671764e-28
1.5654457e-28
1.5650034e-28
1.564913e-28
1.5648957e-28
1.5648919e-28
1.5648922e-28
1.5649016e-28
1.5649522e-28
1.5651603e-28
1.5670854e-28
1.5653552e-28
1.564913e-28
1.5648226e-28
1.5648053e-28
1.5648015e-28
1.5648019e-28
1.5648115e-28
1.5648629e-28
1.565073e-28
1.567068e-28
1.5653378e-28
1.5648957e-28
1.5648053e-28
1.5647879e-28
1.5647842e-28
1.5647846e-28
1.5647943e-28
1.5648459e-28
1.5650562e-28
1.5670641e-28
1.5653339e-28
1.5648919e-28
1.5648015e-28
1.5647842e-28
1.5647804e-28
1.5647809e-28
1.5647906e-28
1.5648422e-28
1.5650526e-28
1.567064e-28
1.5653342e-28
1.5648922e-28
1.5648019e-28
1.5647846e-28
1.5647809e-28
1.5647814e-28
1.5647911e-28
1.5648427e-28
1.5650531e-28
1.5670706e-28
1.5653427e-28
1.5649016e-28
1.5648115e-28
1.5647943e-28
1.5647906e-28
1.5647911e-28
1.5648008e-28
1.5648524e-28
1.5650628e-28
1.5671062e-28
1.5653894e-28
1.5649522e-28
1.5648629e-28
1.5648459e-28
1.5648422e-28
1.5648427e-28
1.5648524e-28
1.5649041e-28
1.5651146e-28
1.5672509e-28
1.5655866e-28
1.5651603e-28
1.565073e-28
1.5650562e-28
1.5650526e-28
1.5650531e-28
1.5650628e-28
1.5651146e-28
1.5653257e-28
4.969902e-28
4.9646085e-28
4.9632545e-28
4.9629774e-28
4.9629242e-28
4.9629123e-28
4.9629119e-28
4.9629316e-28
4.9630382e-28
4.9634687e-28
4.9646085e-28
4.9593427e-28
4.9579947e-28
4.9577187e-28
4.9576657e-28
4.9576539e-28
4.9576546e-28
4.9576804e-28
4.9578217e-28
4.9584163e-28
4.9632545e-28
4.9579947e-28
4.9566486e-28
4.956373e-28
4.9563201e-28
4.9563085e-28
4.9563096e-28
4.9563381e-28
4.9564913e-28
4.95712e-28
4.9629774e-28
4.9577187e-28
4.956373e-28
4.9560976e-28
4.9560447e-28
4.9560331e-28
4.9560344e-28
4.9560637e-28
4.9562195e-28
4.9568541e-28
4.9629242e-28
4.9576657e-28
4.9563201e-28
4.9560447e-28
4.9559918e-28
4.9559803e-28
4.9559817e-28
4.9560111e-28
4.9561675e-28
4.956803e-28
4.9629123e-28
4.9576539e-28
4.9563085e-28
4.9560331e-28
4.9559803e-28
4.9559688e-28
4.9559703e-28
4.9559997e-28
4.9561562e-28
4.9567918e-28
4.9629119e-28
4.9576546e-28
4.9563096e-28
4.9560344e-28
4.9559817e-28
4.9559703e-28
4.9559717e-28
4.9560013e-28
4.9561577e-28
4.9567934e-28
4.9629316e-28
4.9576804e-28
4.9563381e-28
4.9560637e-28
4.9560111e-28
4.9559997e-28
4.9560013e-28
4.9560308e-28
4.9561873e-28
4.956823e-28
4.9630382e-28
4.9578217e-28
4.9564913e-28
4.9562195e-28
4.9561675e-28
4.9561562e-28
4.9561577e-28
4.9561873e-28
4.9563439e-28
4.95698e-28
4.9634687e-28
4.9584163e-28
4.95712e-28
4.9568541e-28
4.956803e-28
4.9567918e-28
4.9567934e-28
4.956823e-28
4.95698e-28
4.9576178e-28