/*--------------------------------*- C++ -*----------------------------------*\
| =========                 |                                                 |
| \\      /  F ield         | OpenFOAM: The Open Source CFD Toolbox           |
|  \\    /   O peration     | Version:  dev                                   |
|   \\  /    A nd           | Web:      www.OpenFOAM.org                      |
|    \\/     M anipulation  |                                                 |
\*---------------------------------------------------------------------------*/
FoamFile
{
    version     2.0;
    format      ascii;
    class       volScalarField;
    location    "77.995";
    object      A;
}
// * * * * * * * * * * * * * * * * * * * * * * * * * * * * * * * * * * * * * //

dimensions      [0 0 0 0 1 0 0];

internalField   nonuniform List<scalar> 
10000
(
8.4739518e-25
8.4642338e-25
8.4590508e-25
8.4562232e-25
8.4547694e-25
8.4541277e-25
8.454007e-25
8.4543352e-25
8.4552671e-25
8.457158e-25
8.4642338e-25
8.4545553e-25
8.4493862e-25
8.4465649e-25
8.4451154e-25
8.4444787e-25
8.4443677e-25
8.4447185e-25
8.4457096e-25
8.4477705e-25
8.4590508e-25
8.4493862e-25
8.4442255e-25
8.4414095e-25
8.4399644e-25
8.4393338e-25
8.4392343e-25
8.4396074e-25
8.4406392e-25
8.4427586e-25
8.4562232e-25
8.4465649e-25
8.4414095e-25
8.4385976e-25
8.4371565e-25
8.4365314e-25
8.436441e-25
8.4368293e-25
8.4378832e-25
8.4400246e-25
8.4547694e-25
8.4451154e-25
8.4399644e-25
8.4371565e-25
8.4357191e-25
8.4350984e-25
8.4350141e-25
8.4354113e-25
8.4364762e-25
8.4386265e-25
8.4541277e-25
8.4444787e-25
8.4393338e-25
8.4365314e-25
8.4350984e-25
8.4344813e-25
8.4344011e-25
8.4348032e-25
8.4358734e-25
8.4380275e-25
8.454007e-25
8.4443677e-25
8.4392343e-25
8.436441e-25
8.4350141e-25
8.4344011e-25
8.434324e-25
8.4347289e-25
8.4358017e-25
8.4379576e-25
8.4543352e-25
8.4447185e-25
8.4396074e-25
8.4368293e-25
8.4354113e-25
8.4348032e-25
8.4347289e-25
8.4351359e-25
8.4362104e-25
8.4383676e-25
8.4552671e-25
8.4457096e-25
8.4406392e-25
8.4378832e-25
8.4364762e-25
8.4358734e-25
8.4358017e-25
8.4362104e-25
8.4372866e-25
8.439446e-25
8.457158e-25
8.4477705e-25
8.4427586e-25
8.4400246e-25
8.4386265e-25
8.4380275e-25
8.4379576e-25
8.4383676e-25
8.439446e-25
8.4416114e-25
2.836014e-24
2.8328858e-24
2.8311701e-24
2.830232e-24
2.8297493e-24
2.8295361e-24
2.8294958e-24
2.8296043e-24
2.8299131e-24
2.8305623e-24
2.8328858e-24
2.82977e-24
2.8280589e-24
2.8271228e-24
2.8266415e-24
2.8264299e-24
2.8263929e-24
2.8265089e-24
2.8268375e-24
2.8275439e-24
2.8311701e-24
2.8280589e-24
2.8263505e-24
2.8254162e-24
2.8249363e-24
2.8247269e-24
2.8246936e-24
2.8248171e-24
2.8251593e-24
2.8258852e-24
2.830232e-24
2.8271228e-24
2.8254162e-24
2.8244832e-24
2.8240047e-24
2.8237971e-24
2.8237669e-24
2.8238954e-24
2.8242449e-24
2.8249782e-24
2.8297493e-24
2.8266415e-24
2.8249363e-24
2.8240047e-24
2.8235275e-24
2.8233212e-24
2.8232931e-24
2.8234246e-24
2.8237778e-24
2.8245141e-24
2.8295361e-24
2.8264299e-24
2.8247269e-24
2.8237971e-24
2.8233212e-24
2.8231163e-24
2.8230895e-24
2.8232226e-24
2.8235776e-24
2.8243151e-24
2.8294958e-24
2.8263929e-24
2.8246936e-24
2.8237669e-24
2.8232931e-24
2.8230895e-24
2.8230637e-24
2.8231978e-24
2.8235537e-24
2.8242918e-24
2.8296043e-24
2.8265089e-24
2.8248171e-24
2.8238954e-24
2.8234246e-24
2.8232226e-24
2.8231978e-24
2.8233326e-24
2.823689e-24
2.8244275e-24
2.8299131e-24
2.8268375e-24
2.8251593e-24
2.8242449e-24
2.8237778e-24
2.8235776e-24
2.8235537e-24
2.823689e-24
2.824046e-24
2.8247852e-24
2.8305623e-24
2.8275439e-24
2.8258852e-24
2.8249782e-24
2.8245141e-24
2.8243151e-24
2.8242918e-24
2.8244275e-24
2.8247852e-24
2.8255267e-24
5.8313806e-24
5.8251597e-24
5.8216986e-24
5.8198005e-24
5.8188226e-24
5.8183901e-24
5.8183078e-24
5.8185255e-24
5.8191472e-24
5.820496e-24
5.8251597e-24
5.8189632e-24
5.815511e-24
5.813617e-24
5.8126419e-24
5.8122128e-24
5.8121371e-24
5.8123703e-24
5.8130326e-24
5.8144986e-24
5.8216986e-24
5.815511e-24
5.8120645e-24
5.810174e-24
5.8092018e-24
5.808777e-24
5.808709e-24
5.8089575e-24
5.8096476e-24
5.8111535e-24
5.8198005e-24
5.813617e-24
5.810174e-24
5.8082862e-24
5.8073168e-24
5.8068957e-24
5.8068339e-24
5.8070928e-24
5.8077979e-24
5.809319e-24
5.8188226e-24
5.8126419e-24
5.8092018e-24
5.8073168e-24
5.8063499e-24
5.8059317e-24
5.8058741e-24
5.8061391e-24
5.8068517e-24
5.8083788e-24
5.8183901e-24
5.8122128e-24
5.808777e-24
5.8068957e-24
5.8059317e-24
5.8055161e-24
5.8054613e-24
5.8057295e-24
5.8064458e-24
5.8079755e-24
5.8183078e-24
5.8121371e-24
5.808709e-24
5.8068339e-24
5.8058741e-24
5.8054613e-24
5.8054086e-24
5.8056788e-24
5.8063969e-24
5.8079277e-24
5.8185255e-24
5.8123703e-24
5.8089575e-24
5.8070928e-24
5.8061391e-24
5.8057295e-24
5.8056788e-24
5.8059504e-24
5.8066696e-24
5.8082013e-24
5.8191472e-24
5.8130326e-24
5.8096476e-24
5.8077979e-24
5.8068517e-24
5.8064458e-24
5.8063969e-24
5.8066696e-24
5.8073899e-24
5.8089232e-24
5.820496e-24
5.8144986e-24
5.8111535e-24
5.809319e-24
5.8083788e-24
5.8079755e-24
5.8079277e-24
5.8082013e-24
5.8089232e-24
5.810461e-24
1.0950894e-23
1.0939591e-23
1.0933248e-23
1.0929758e-23
1.0927957e-23
1.0927159e-23
1.0927006e-23
1.0927402e-23
1.0928534e-23
1.0931015e-23
1.0939591e-23
1.0928333e-23
1.0922005e-23
1.0918523e-23
1.0916727e-23
1.0915936e-23
1.0915795e-23
1.091622e-23
1.0917428e-23
1.0920127e-23
1.0933248e-23
1.0922005e-23
1.0915688e-23
1.0912212e-23
1.0910421e-23
1.0909638e-23
1.0909511e-23
1.0909965e-23
1.0911225e-23
1.0913999e-23
1.0929758e-23
1.0918523e-23
1.0912212e-23
1.0908741e-23
1.0906956e-23
1.0906179e-23
1.0906064e-23
1.0906537e-23
1.0907825e-23
1.0910627e-23
1.0927957e-23
1.0916727e-23
1.0910421e-23
1.0906956e-23
1.0905175e-23
1.0904404e-23
1.0904297e-23
1.0904781e-23
1.0906083e-23
1.0908897e-23
1.0927159e-23
1.0915936e-23
1.0909638e-23
1.0906179e-23
1.0904404e-23
1.0903638e-23
1.0903536e-23
1.0904026e-23
1.0905335e-23
1.0908153e-23
1.0927006e-23
1.0915795e-23
1.0909511e-23
1.0906064e-23
1.0904297e-23
1.0903536e-23
1.0903437e-23
1.0903931e-23
1.0905243e-23
1.0908064e-23
1.0927402e-23
1.091622e-23
1.0909965e-23
1.0906537e-23
1.0904781e-23
1.0904026e-23
1.0903931e-23
1.0904428e-23
1.0905742e-23
1.0908565e-23
1.0928534e-23
1.0917428e-23
1.0911225e-23
1.0907825e-23
1.0906083e-23
1.0905335e-23
1.0905243e-23
1.0905742e-23
1.0907058e-23
1.0909884e-23
1.0931015e-23
1.0920127e-23
1.0913999e-23
1.0910627e-23
1.0908897e-23
1.0908153e-23
1.0908064e-23
1.0908565e-23
1.0909884e-23
1.0912718e-23
2.0193939e-23
2.0173781e-23
2.0162397e-23
2.0156115e-23
2.0152867e-23
2.0151427e-23
2.0151147e-23
2.0151851e-23
2.0153863e-23
2.0158266e-23
2.0173781e-23
2.01537e-23
2.0142344e-23
2.0136076e-23
2.0132837e-23
2.0131408e-23
2.013115e-23
2.0131908e-23
2.0134059e-23
2.0138865e-23
2.0162397e-23
2.0142344e-23
2.0131006e-23
2.0124749e-23
2.0121521e-23
2.0120106e-23
2.0119875e-23
2.0120684e-23
2.012293e-23
2.0127873e-23
2.0156115e-23
2.0136076e-23
2.0124749e-23
2.0118502e-23
2.0115282e-23
2.011388e-23
2.011367e-23
2.0114515e-23
2.0116812e-23
2.0121807e-23
2.0152867e-23
2.0132837e-23
2.0121521e-23
2.0115282e-23
2.0112072e-23
2.011068e-23
2.0110483e-23
2.0111349e-23
2.0113672e-23
2.0118687e-23
2.0151427e-23
2.0131408e-23
2.0120106e-23
2.011388e-23
2.011068e-23
2.0109296e-23
2.010911e-23
2.0109986e-23
2.0112322e-23
2.0117346e-23
2.0151147e-23
2.013115e-23
2.0119875e-23
2.011367e-23
2.0110483e-23
2.010911e-23
2.010893e-23
2.0109813e-23
2.0112155e-23
2.0117183e-23
2.0151851e-23
2.0131908e-23
2.0120684e-23
2.0114515e-23
2.0111349e-23
2.0109986e-23
2.0109813e-23
2.0110702e-23
2.0113047e-23
2.0118078e-23
2.0153863e-23
2.0134059e-23
2.012293e-23
2.0116812e-23
2.0113672e-23
2.0112322e-23
2.0112155e-23
2.0113047e-23
2.0115396e-23
2.0120432e-23
2.0158266e-23
2.0138865e-23
2.0127873e-23
2.0121807e-23
2.0118687e-23
2.0117346e-23
2.0117183e-23
2.0118078e-23
2.0120432e-23
2.0125483e-23
3.7306483e-23
3.7270479e-23
3.7250043e-23
3.7238734e-23
3.7232876e-23
3.7230275e-23
3.7229762e-23
3.7231014e-23
3.7234583e-23
3.7242352e-23
3.7270479e-23
3.7234612e-23
3.7214226e-23
3.7202941e-23
3.71971e-23
3.7194519e-23
3.7194047e-23
3.7195396e-23
3.719922e-23
3.720773e-23
3.7250043e-23
3.7214226e-23
3.7193873e-23
3.7182608e-23
3.7176785e-23
3.717423e-23
3.7173807e-23
3.7175251e-23
3.717925e-23
3.7188011e-23
3.7238734e-23
3.7202941e-23
3.7182608e-23
3.717136e-23
3.7165553e-23
3.7163021e-23
3.7162637e-23
3.7164146e-23
3.7168238e-23
3.7177094e-23
3.7232876e-23
3.71971e-23
3.7176785e-23
3.7165553e-23
3.7159763e-23
3.7157249e-23
3.715689e-23
3.7158437e-23
3.7162577e-23
3.7171471e-23
3.7230275e-23
3.7194519e-23
3.717423e-23
3.7163021e-23
3.7157249e-23
3.7154751e-23
3.715441e-23
3.7155977e-23
3.7160139e-23
3.7169049e-23
3.7229762e-23
3.7194047e-23
3.7173807e-23
3.7162637e-23
3.715689e-23
3.715441e-23
3.7154082e-23
3.7155661e-23
3.7159834e-23
3.7168752e-23
3.7231014e-23
3.7195396e-23
3.7175251e-23
3.7164146e-23
3.7158437e-23
3.7155977e-23
3.7155661e-23
3.7157249e-23
3.7161429e-23
3.7170352e-23
3.7234583e-23
3.719922e-23
3.717925e-23
3.7168238e-23
3.7162577e-23
3.7160139e-23
3.7159834e-23
3.7161429e-23
3.7165616e-23
3.7174548e-23
3.7242352e-23
3.720773e-23
3.7188011e-23
3.7177094e-23
3.7171471e-23
3.7169049e-23
3.7168752e-23
3.7170352e-23
3.7174548e-23
3.7183506e-23
6.9464137e-23
6.9399351e-23
6.9362411e-23
6.934191e-23
6.9331273e-23
6.932654e-23
6.9325597e-23
6.9327836e-23
6.9334206e-23
6.9347973e-23
6.9399351e-23
6.9334809e-23
6.9297959e-23
6.92775e-23
6.9266893e-23
6.9262198e-23
6.926133e-23
6.9263749e-23
6.927059e-23
6.9285729e-23
6.9362411e-23
6.9297959e-23
6.9261167e-23
6.9240745e-23
6.9230171e-23
6.9225524e-23
6.9224745e-23
6.922734e-23
6.9234503e-23
6.9250107e-23
6.934191e-23
6.92775e-23
6.9240745e-23
6.9220354e-23
6.9209809e-23
6.9205205e-23
6.9204498e-23
6.9207211e-23
6.9214549e-23
6.9230327e-23
6.9331273e-23
6.9266893e-23
6.9230171e-23
6.9209809e-23
6.9199293e-23
6.9194722e-23
6.9194063e-23
6.9196847e-23
6.9204271e-23
6.922012e-23
6.932654e-23
6.9262198e-23
6.9225524e-23
6.9205205e-23
6.9194722e-23
6.919018e-23
6.9189553e-23
6.9192375e-23
6.919984e-23
6.9215719e-23
6.9325597e-23
6.926133e-23
6.9224745e-23
6.9204498e-23
6.9194063e-23
6.9189553e-23
6.918895e-23
6.9191794e-23
6.919928e-23
6.9215173e-23
6.9327836e-23
6.9263749e-23
6.922734e-23
6.9207211e-23
6.9196847e-23
6.9192375e-23
6.9191794e-23
6.9194653e-23
6.9202152e-23
6.9218054e-23
6.9334206e-23
6.927059e-23
6.9234503e-23
6.9214549e-23
6.9204271e-23
6.919984e-23
6.919928e-23
6.9202152e-23
6.9209663e-23
6.922558e-23
6.9347973e-23
6.9285729e-23
6.9250107e-23
6.9230327e-23
6.922012e-23
6.9215719e-23
6.9215173e-23
6.9218054e-23
6.922558e-23
6.9241544e-23
1.3060441e-22
1.3048674e-22
1.3041936e-22
1.3038186e-22
1.3036236e-22
1.3035368e-22
1.3035193e-22
1.3035597e-22
1.3036744e-22
1.3039204e-22
1.3048674e-22
1.3036952e-22
1.303023e-22
1.3026487e-22
1.3024543e-22
1.3023681e-22
1.302352e-22
1.3023958e-22
1.3025193e-22
1.3027909e-22
1.3041936e-22
1.303023e-22
1.3023518e-22
1.3019782e-22
1.3017844e-22
1.3016991e-22
1.3016847e-22
1.3017317e-22
1.3018613e-22
1.3021415e-22
1.3038186e-22
1.3026487e-22
1.3019782e-22
1.3016052e-22
1.301412e-22
1.3013275e-22
1.3013144e-22
1.3013636e-22
1.3014964e-22
1.3017799e-22
1.3036236e-22
1.3024543e-22
1.3017844e-22
1.301412e-22
1.3012193e-22
1.3011354e-22
1.3011232e-22
1.3011737e-22
1.3013081e-22
1.3015929e-22
1.3035368e-22
1.3023681e-22
1.3016991e-22
1.3013275e-22
1.3011354e-22
1.3010521e-22
1.3010404e-22
1.3010917e-22
1.3012268e-22
1.3015122e-22
1.3035193e-22
1.302352e-22
1.3016847e-22
1.3013144e-22
1.3011232e-22
1.3010404e-22
1.3010293e-22
1.3010809e-22
1.3012164e-22
1.3015021e-22
1.3035597e-22
1.3023958e-22
1.3017317e-22
1.3013636e-22
1.3011737e-22
1.3010917e-22
1.3010809e-22
1.3011329e-22
1.3012686e-22
1.3015545e-22
1.3036744e-22
1.3025193e-22
1.3018613e-22
1.3014964e-22
1.3013081e-22
1.3012268e-22
1.3012164e-22
1.3012686e-22
1.3014046e-22
1.3016907e-22
1.3039204e-22
1.3027909e-22
1.3021415e-22
1.3017799e-22
1.3015929e-22
1.3015122e-22
1.3015021e-22
1.3015545e-22
1.3016907e-22
1.3019776e-22
2.4810408e-22
2.4788826e-22
2.4776413e-22
2.4769486e-22
2.4765879e-22
2.4764269e-22
2.4763941e-22
2.4764678e-22
2.4766764e-22
2.4771201e-22
2.4788826e-22
2.4767323e-22
2.475494e-22
2.4748027e-22
2.4744429e-22
2.4742833e-22
2.4742531e-22
2.4743331e-22
2.4745583e-22
2.4750502e-22
2.4776413e-22
2.475494e-22
2.4742576e-22
2.4735675e-22
2.4732089e-22
2.4730509e-22
2.4730239e-22
2.47311e-22
2.4733465e-22
2.4738548e-22
2.4769486e-22
2.4748027e-22
2.4735675e-22
2.4728785e-22
2.4725209e-22
2.4723644e-22
2.4723398e-22
2.4724301e-22
2.4726727e-22
2.4731872e-22
2.4765879e-22
2.4744429e-22
2.4732089e-22
2.4725209e-22
2.4721643e-22
2.472009e-22
2.4719861e-22
2.4720789e-22
2.4723245e-22
2.4728414e-22
2.4764269e-22
2.4742833e-22
2.4730509e-22
2.4723644e-22
2.472009e-22
2.4718546e-22
2.4718329e-22
2.471927e-22
2.472174e-22
2.472692e-22
2.4763941e-22
2.4742531e-22
2.4730239e-22
2.4723398e-22
2.4719861e-22
2.4718329e-22
2.471812e-22
2.4719068e-22
2.4721546e-22
2.4726731e-22
2.4764678e-22
2.4743331e-22
2.47311e-22
2.4724301e-22
2.4720789e-22
2.471927e-22
2.4719068e-22
2.4720022e-22
2.4722505e-22
2.4727693e-22
2.4766764e-22
2.4745583e-22
2.4733465e-22
2.4726727e-22
2.4723245e-22
2.472174e-22
2.4721546e-22
2.4722505e-22
2.4724991e-22
2.4730184e-22
2.4771201e-22
2.4750502e-22
2.4738548e-22
2.4731872e-22
2.4728414e-22
2.472692e-22
2.4726731e-22
2.4727693e-22
2.4730184e-22
2.4735392e-22
4.763011e-22
4.7590121e-22
4.7567026e-22
4.7554102e-22
4.754736e-22
4.7544347e-22
4.7543728e-22
4.7545085e-22
4.7548917e-22
4.7557e-22
4.7590121e-22
4.7550279e-22
4.7527238e-22
4.7514339e-22
4.7507616e-22
4.7504628e-22
4.7504058e-22
4.7505535e-22
4.7509683e-22
4.7518686e-22
4.7567026e-22
4.7527238e-22
4.7504232e-22
4.7491357e-22
4.7484655e-22
4.7481698e-22
4.7481187e-22
4.7482781e-22
4.7487144e-22
4.7496459e-22
4.7554102e-22
4.7514339e-22
4.7491357e-22
4.7478501e-22
4.7471819e-22
4.7468889e-22
4.7468426e-22
4.7470099e-22
4.7474578e-22
4.748401e-22
4.754736e-22
4.7507616e-22
4.7484655e-22
4.7471819e-22
4.7465155e-22
4.7462248e-22
4.7461816e-22
4.7463536e-22
4.7468072e-22
4.7477552e-22
4.7544347e-22
4.7504628e-22
4.7481698e-22
4.7468889e-22
4.7462248e-22
4.745936e-22
4.745895e-22
4.7460695e-22
4.7465259e-22
4.7474758e-22
4.7543728e-22
4.7504058e-22
4.7481187e-22
4.7468426e-22
4.7461816e-22
4.745895e-22
4.7458556e-22
4.7460315e-22
4.7464893e-22
4.7474401e-22
4.7545085e-22
4.7505535e-22
4.7482781e-22
4.7470099e-22
4.7463536e-22
4.7460695e-22
4.7460315e-22
4.7462085e-22
4.7466671e-22
4.7476185e-22
4.7548917e-22
4.7509683e-22
4.7487144e-22
4.7474578e-22
4.7468072e-22
4.7465259e-22
4.7464893e-22
4.7466671e-22
4.7471264e-22
4.7480787e-22
4.7557e-22
4.7518686e-22
4.7496459e-22
4.748401e-22
4.7477552e-22
4.7474758e-22
4.7474401e-22
4.7476185e-22
4.7480787e-22
4.7490338e-22
9.241523e-22
9.2340378e-22
9.2296969e-22
9.2272613e-22
9.2259885e-22
9.2254189e-22
9.2253007e-22
9.2255532e-22
9.2262647e-22
9.2277525e-22
9.2340378e-22
9.2265799e-22
9.2222491e-22
9.2198182e-22
9.2185489e-22
9.2179839e-22
9.2178753e-22
9.2181509e-22
9.218923e-22
9.2205879e-22
9.2296969e-22
9.2222491e-22
9.2179249e-22
9.2154983e-22
9.214233e-22
9.2136741e-22
9.2135768e-22
9.2138749e-22
9.2146883e-22
9.2164131e-22
9.2272613e-22
9.2198182e-22
9.2154983e-22
9.2130754e-22
9.2118138e-22
9.2112602e-22
9.211172e-22
9.2114853e-22
9.212321e-22
9.2140683e-22
9.2259885e-22
9.2185489e-22
9.214233e-22
9.2118138e-22
9.2105559e-22
9.2100065e-22
9.2099244e-22
9.2102466e-22
9.2110933e-22
9.2128497e-22
9.2254189e-22
9.2179839e-22
9.2136741e-22
9.2112602e-22
9.2100065e-22
9.2094609e-22
9.2093828e-22
9.2097098e-22
9.2105618e-22
9.212322e-22
9.2253007e-22
9.2178753e-22
9.2135768e-22
9.211172e-22
9.2099244e-22
9.2093828e-22
9.2093077e-22
9.2096376e-22
9.2104922e-22
9.2122542e-22
9.2255532e-22
9.2181509e-22
9.2138749e-22
9.2114853e-22
9.2102466e-22
9.2097098e-22
9.2096376e-22
9.2099694e-22
9.2108256e-22
9.2125887e-22
9.2262647e-22
9.218923e-22
9.2146883e-22
9.212321e-22
9.2110933e-22
9.2105618e-22
9.2104922e-22
9.2108256e-22
9.2116832e-22
9.2134479e-22
9.2277525e-22
9.2205879e-22
9.2164131e-22
9.2140683e-22
9.2128497e-22
9.212322e-22
9.2122542e-22
9.2125887e-22
9.2134479e-22
9.2152176e-22
1.8123668e-21
1.8109513e-21
1.8101271e-21
1.8096634e-21
1.8094207e-21
1.8093119e-21
1.8092891e-21
1.8093366e-21
1.8094701e-21
1.8097468e-21
1.8109513e-21
1.809541e-21
1.8087186e-21
1.8082558e-21
1.8080137e-21
1.8079059e-21
1.8078849e-21
1.8079369e-21
1.8080822e-21
1.8083933e-21
1.8101271e-21
1.8087186e-21
1.8078975e-21
1.8074355e-21
1.8071942e-21
1.8070875e-21
1.8070688e-21
1.8071251e-21
1.8072784e-21
1.8076012e-21
1.8096634e-21
1.8082558e-21
1.8074355e-21
1.8069742e-21
1.8067337e-21
1.806628e-21
1.806611e-21
1.8066703e-21
1.8068279e-21
1.807155e-21
1.8094207e-21
1.8080137e-21
1.8071942e-21
1.8067337e-21
1.8064938e-21
1.8063889e-21
1.8063731e-21
1.8064341e-21
1.8065938e-21
1.8069228e-21
1.8093119e-21
1.8079059e-21
1.8070875e-21
1.806628e-21
1.8063889e-21
1.8062848e-21
1.8062698e-21
1.8063317e-21
1.8064924e-21
1.8068221e-21
1.8092891e-21
1.8078849e-21
1.8070688e-21
1.806611e-21
1.8063731e-21
1.8062698e-21
1.8062553e-21
1.8063178e-21
1.8064791e-21
1.8068091e-21
1.8093366e-21
1.8079369e-21
1.8071251e-21
1.8066703e-21
1.8064341e-21
1.8063317e-21
1.8063178e-21
1.8063807e-21
1.8065423e-21
1.8068725e-21
1.8094701e-21
1.8080822e-21
1.8072784e-21
1.8068279e-21
1.8065938e-21
1.8064924e-21
1.8064791e-21
1.8065423e-21
1.8067041e-21
1.8070346e-21
1.8097468e-21
1.8083933e-21
1.8076012e-21
1.807155e-21
1.8069228e-21
1.8068221e-21
1.8068091e-21
1.8068725e-21
1.8070346e-21
1.807366e-21
3.5925978e-21
3.5898935e-21
3.5883124e-21
3.5874206e-21
3.5869529e-21
3.5867431e-21
3.5866988e-21
3.5867892e-21
3.5870421e-21
3.5875621e-21
3.5898935e-21
3.5871988e-21
3.5856213e-21
3.5847312e-21
3.5842648e-21
3.5840568e-21
3.5840161e-21
3.5841152e-21
3.5843913e-21
3.5849789e-21
3.5883124e-21
3.5856213e-21
3.5840462e-21
3.5831576e-21
3.5826928e-21
3.582487e-21
3.5824506e-21
3.5825583e-21
3.5828501e-21
3.5834605e-21
3.5874206e-21
3.5847312e-21
3.5831576e-21
3.5822704e-21
3.581807e-21
3.5816032e-21
3.5815703e-21
3.5816837e-21
3.581984e-21
3.582603e-21
3.5869529e-21
3.5842648e-21
3.5826928e-21
3.581807e-21
3.5813449e-21
3.5811427e-21
3.5811121e-21
3.5812289e-21
3.5815333e-21
3.5821558e-21
3.5867431e-21
3.5840568e-21
3.582487e-21
3.5816032e-21
3.5811427e-21
3.5809419e-21
3.5809128e-21
3.5810314e-21
3.5813379e-21
3.5819619e-21
3.5866988e-21
3.5840161e-21
3.5824506e-21
3.5815703e-21
3.5811121e-21
3.5809128e-21
3.5808849e-21
3.5810046e-21
3.5813121e-21
3.5819367e-21
3.5867892e-21
3.5841152e-21
3.5825583e-21
3.5816837e-21
3.5812289e-21
3.5810314e-21
3.5810046e-21
3.581125e-21
3.5814331e-21
3.5820581e-21
3.5870421e-21
3.5843913e-21
3.5828501e-21
3.581984e-21
3.5815333e-21
3.5813379e-21
3.5813121e-21
3.5814331e-21
3.5817416e-21
3.5823672e-21
3.5875621e-21
3.5849789e-21
3.5834605e-21
3.582603e-21
3.5821558e-21
3.5819619e-21
3.5819367e-21
3.5820581e-21
3.5823672e-21
3.5829946e-21
7.1985646e-21
7.1933445e-21
7.1902805e-21
7.1885477e-21
7.1876376e-21
7.1872288e-21
7.1871418e-21
7.1873154e-21
7.1878e-21
7.1887874e-21
7.1933445e-21
7.188143e-21
7.1850858e-21
7.1833563e-21
7.1824487e-21
7.1820433e-21
7.1819635e-21
7.1821545e-21
7.1826849e-21
7.1838066e-21
7.1902805e-21
7.1850858e-21
7.1820331e-21
7.1803067e-21
7.179402e-21
7.179001e-21
7.1789298e-21
7.1791377e-21
7.1796993e-21
7.1808662e-21
7.1885477e-21
7.1833563e-21
7.1803067e-21
7.1785828e-21
7.1776809e-21
7.1772839e-21
7.1772195e-21
7.1774388e-21
7.1780171e-21
7.1792011e-21
7.1876376e-21
7.1824487e-21
7.179402e-21
7.1776809e-21
7.1767816e-21
7.1763878e-21
7.176328e-21
7.1765539e-21
7.1771406e-21
7.1783313e-21
7.1872288e-21
7.1820433e-21
7.179001e-21
7.1772839e-21
7.1763878e-21
7.1759968e-21
7.1759399e-21
7.1761695e-21
7.1767602e-21
7.1779538e-21
7.1871418e-21
7.1819635e-21
7.1789298e-21
7.1772195e-21
7.176328e-21
7.1759399e-21
7.1758854e-21
7.1761171e-21
7.1767097e-21
7.1779046e-21
7.1873154e-21
7.1821545e-21
7.1791377e-21
7.1774388e-21
7.1765539e-21
7.1761695e-21
7.1761171e-21
7.1763502e-21
7.176944e-21
7.1781397e-21
7.1878e-21
7.1826849e-21
7.1796993e-21
7.1780171e-21
7.1771406e-21
7.1767602e-21
7.1767097e-21
7.176944e-21
7.1775387e-21
7.1787356e-21
7.1887874e-21
7.1838066e-21
7.1808662e-21
7.1792011e-21
7.1783313e-21
7.1779538e-21
7.1779046e-21
7.1781397e-21
7.1787356e-21
7.1799357e-21
1.458038e-20
1.45702e-20
1.4564201e-20
1.45608e-20
1.4559011e-20
1.4558206e-20
1.4558034e-20
1.4558371e-20
1.4559309e-20
1.4561204e-20
1.45702e-20
1.4560056e-20
1.455407e-20
1.4550675e-20
1.4548891e-20
1.4548093e-20
1.4547935e-20
1.4548307e-20
1.4549337e-20
1.4551501e-20
1.4564201e-20
1.455407e-20
1.4548093e-20
1.4544704e-20
1.4542925e-20
1.4542136e-20
1.4541996e-20
1.4542401e-20
1.4543494e-20
1.4545748e-20
1.45608e-20
1.4550675e-20
1.4544704e-20
1.454132e-20
1.4539547e-20
1.4538766e-20
1.4538639e-20
1.4539067e-20
1.4540193e-20
1.4542482e-20
1.4559011e-20
1.4548891e-20
1.4542925e-20
1.4539547e-20
1.4537779e-20
1.4537005e-20
1.4536886e-20
1.4537328e-20
1.4538471e-20
1.4540773e-20
1.4558206e-20
1.4548093e-20
1.4542136e-20
1.4538766e-20
1.4537005e-20
1.4536235e-20
1.4536123e-20
1.4536572e-20
1.4537723e-20
1.4540031e-20
1.4558034e-20
1.4547935e-20
1.4541996e-20
1.4538639e-20
1.4536886e-20
1.4536123e-20
1.4536016e-20
1.4536469e-20
1.4537623e-20
1.4539934e-20
1.4558371e-20
1.4548307e-20
1.4542401e-20
1.4539067e-20
1.4537328e-20
1.4536572e-20
1.4536469e-20
1.4536925e-20
1.4538082e-20
1.4540394e-20
1.4559309e-20
1.4549337e-20
1.4543494e-20
1.4540193e-20
1.4538471e-20
1.4537723e-20
1.4537623e-20
1.4538082e-20
1.4539241e-20
1.4541555e-20
1.4561204e-20
1.4551501e-20
1.4545748e-20
1.4542482e-20
1.4540773e-20
1.4540031e-20
1.4539934e-20
1.4540394e-20
1.4541555e-20
1.4543876e-20
2.985274e-20
2.9832681e-20
2.9820815e-20
2.981407e-20
2.9810517e-20
2.9808917e-20
2.9808572e-20
2.9809234e-20
2.981107e-20
2.9814744e-20
2.9832681e-20
2.9812692e-20
2.9800852e-20
2.979412e-20
2.9790576e-20
2.9788989e-20
2.9788674e-20
2.9789406e-20
2.9791428e-20
2.9795647e-20
2.9820815e-20
2.9800852e-20
2.9789029e-20
2.9782309e-20
2.9778776e-20
2.9777208e-20
2.9776927e-20
2.9777727e-20
2.9779875e-20
2.9784278e-20
2.981407e-20
2.979412e-20
2.9782309e-20
2.9775599e-20
2.9772078e-20
2.9770525e-20
2.9770271e-20
2.9771118e-20
2.9773333e-20
2.9777805e-20
2.9810517e-20
2.9790576e-20
2.9778776e-20
2.9772078e-20
2.9768567e-20
2.9767027e-20
2.9766791e-20
2.9767665e-20
2.9769914e-20
2.9774414e-20
2.9808917e-20
2.9788989e-20
2.9777208e-20
2.9770525e-20
2.9767027e-20
2.9765498e-20
2.9765275e-20
2.9766163e-20
2.9768428e-20
2.977294e-20
2.9808572e-20
2.9788674e-20
2.9776927e-20
2.9770271e-20
2.9766791e-20
2.9765275e-20
2.9765061e-20
2.9765958e-20
2.9768231e-20
2.9772747e-20
2.9809234e-20
2.9789406e-20
2.9777727e-20
2.9771118e-20
2.9767665e-20
2.9766163e-20
2.9765958e-20
2.9766861e-20
2.9769138e-20
2.9773658e-20
2.981107e-20
2.9791428e-20
2.9779875e-20
2.9773333e-20
2.9769914e-20
2.9768428e-20
2.9768231e-20
2.9769138e-20
2.977142e-20
2.9775944e-20
2.9814744e-20
2.9795647e-20
2.9784278e-20
2.9777805e-20
2.9774414e-20
2.977294e-20
2.9772747e-20
2.9773658e-20
2.9775944e-20
2.9780479e-20
6.1786614e-20
6.1746682e-20
6.172297e-20
6.1709459e-20
6.170233e-20
6.1699116e-20
6.1698419e-20
6.1699733e-20
6.1703364e-20
6.1710565e-20
6.1746682e-20
6.1706889e-20
6.1683228e-20
6.1669742e-20
6.1662632e-20
6.1659446e-20
6.1658809e-20
6.1660266e-20
6.1664277e-20
6.1672593e-20
6.172297e-20
6.1683228e-20
6.1659602e-20
6.164614e-20
6.1639053e-20
6.1635903e-20
6.1635336e-20
6.1636933e-20
6.1641201e-20
6.1649893e-20
6.1709459e-20
6.1669742e-20
6.164614e-20
6.1632698e-20
6.1625633e-20
6.1622516e-20
6.1622005e-20
6.1623696e-20
6.1628103e-20
6.1636935e-20
6.170233e-20
6.1662632e-20
6.1639053e-20
6.1625633e-20
6.161859e-20
6.1615499e-20
6.1615025e-20
6.1616772e-20
6.1621247e-20
6.1630136e-20
6.1699116e-20
6.1659446e-20
6.1635903e-20
6.1622516e-20
6.1615499e-20
6.161243e-20
6.1611982e-20
6.1613758e-20
6.1618266e-20
6.1627179e-20
6.1698419e-20
6.1658809e-20
6.1635336e-20
6.1622005e-20
6.1615025e-20
6.1611982e-20
6.1611552e-20
6.1613346e-20
6.161787e-20
6.1626793e-20
6.1699733e-20
6.1660266e-20
6.1636933e-20
6.1623696e-20
6.1616772e-20
6.1613758e-20
6.1613346e-20
6.1615151e-20
6.1619684e-20
6.1628614e-20
6.1703364e-20
6.1664277e-20
6.1641201e-20
6.1628103e-20
6.1621247e-20
6.1618266e-20
6.161787e-20
6.1619684e-20
6.1624225e-20
6.1633163e-20
6.1710565e-20
6.1672593e-20
6.1649893e-20
6.1636935e-20
6.1630136e-20
6.1627179e-20
6.1626793e-20
6.1628614e-20
6.1633163e-20
6.1642125e-20
1.2926988e-19
1.2918957e-19
1.291417e-19
1.2911436e-19
1.2909991e-19
1.2909339e-19
1.2909197e-19
1.2909461e-19
1.2910187e-19
1.2911613e-19
1.2918957e-19
1.2910954e-19
1.2906177e-19
1.2903448e-19
1.2902007e-19
1.2901361e-19
1.2901231e-19
1.2901524e-19
1.2902328e-19
1.2903985e-19
1.291417e-19
1.2906177e-19
1.2901407e-19
1.2898683e-19
1.2897247e-19
1.2896608e-19
1.2896493e-19
1.2896815e-19
1.2897672e-19
1.2899406e-19
1.2911436e-19
1.2903448e-19
1.2898683e-19
1.2895963e-19
1.2894531e-19
1.2893899e-19
1.2893795e-19
1.2894137e-19
1.2895023e-19
1.2896786e-19
1.2909991e-19
1.2902007e-19
1.2897247e-19
1.2894531e-19
1.2893104e-19
1.2892477e-19
1.2892381e-19
1.2892734e-19
1.2893634e-19
1.2895409e-19
1.2909339e-19
1.2901361e-19
1.2896608e-19
1.2893899e-19
1.2892477e-19
1.2891855e-19
1.2891764e-19
1.2892123e-19
1.289303e-19
1.289481e-19
1.2909197e-19
1.2901231e-19
1.2896493e-19
1.2893795e-19
1.2892381e-19
1.2891764e-19
1.2891677e-19
1.2892039e-19
1.289295e-19
1.2894732e-19
1.2909461e-19
1.2901524e-19
1.2896815e-19
1.2894137e-19
1.2892734e-19
1.2892123e-19
1.2892039e-19
1.2892404e-19
1.2893316e-19
1.28951e-19
1.2910187e-19
1.2902328e-19
1.2897672e-19
1.2895023e-19
1.2893634e-19
1.289303e-19
1.289295e-19
1.2893316e-19
1.289423e-19
1.2896015e-19
1.2911613e-19
1.2903985e-19
1.2899406e-19
1.2896786e-19
1.2895409e-19
1.289481e-19
1.2894732e-19
1.28951e-19
1.2896015e-19
1.2897805e-19
2.7339222e-19
2.7322904e-19
2.7313142e-19
2.7307553e-19
2.7304595e-19
2.7303258e-19
2.7302966e-19
2.7303501e-19
2.7304967e-19
2.7307821e-19
2.7322904e-19
2.7306642e-19
2.7296901e-19
2.7291322e-19
2.7288371e-19
2.7287047e-19
2.728678e-19
2.7287377e-19
2.7289007e-19
2.7292342e-19
2.7313142e-19
2.7296901e-19
2.7287173e-19
2.7281604e-19
2.7278663e-19
2.7277355e-19
2.7277118e-19
2.7277775e-19
2.7279515e-19
2.7283013e-19
2.7307553e-19
2.7291322e-19
2.7281604e-19
2.7276043e-19
2.7273112e-19
2.7271817e-19
2.7271605e-19
2.7272302e-19
2.7274102e-19
2.727766e-19
2.7304595e-19
2.7288371e-19
2.7278663e-19
2.7273112e-19
2.727019e-19
2.7268907e-19
2.726871e-19
2.7269431e-19
2.727126e-19
2.7274843e-19
2.7303258e-19
2.7287047e-19
2.7277355e-19
2.7271817e-19
2.7268907e-19
2.7267633e-19
2.7267447e-19
2.726818e-19
2.7270024e-19
2.7273617e-19
2.7302966e-19
2.728678e-19
2.7277118e-19
2.7271605e-19
2.726871e-19
2.7267447e-19
2.7267269e-19
2.726801e-19
2.7269861e-19
2.7273458e-19
2.7303501e-19
2.7287377e-19
2.7277775e-19
2.7272302e-19
2.7269431e-19
2.726818e-19
2.726801e-19
2.7268756e-19
2.727061e-19
2.727421e-19
2.7304967e-19
2.7289007e-19
2.7279515e-19
2.7274102e-19
2.727126e-19
2.7270024e-19
2.7269861e-19
2.727061e-19
2.7272468e-19
2.7276071e-19
2.7307821e-19
2.7292342e-19
2.7283013e-19
2.727766e-19
2.7274843e-19
2.7273617e-19
2.7273458e-19
2.727421e-19
2.7276071e-19
2.7279684e-19
5.8445181e-19
5.8411688e-19
5.8391578e-19
5.8380037e-19
5.837392e-19
5.8371154e-19
5.8370548e-19
5.8371644e-19
5.8374637e-19
5.8380409e-19
5.8411688e-19
5.8378309e-19
5.8358241e-19
5.834672e-19
5.834062e-19
5.8337879e-19
5.8337326e-19
5.8338552e-19
5.834189e-19
5.8348678e-19
5.8391578e-19
5.8358241e-19
5.8338201e-19
5.8326701e-19
5.8320621e-19
5.8317913e-19
5.8317423e-19
5.8318775e-19
5.8322347e-19
5.8329476e-19
5.8380037e-19
5.834672e-19
5.8326701e-19
5.8315219e-19
5.8309158e-19
5.8306479e-19
5.830604e-19
5.8307478e-19
5.8311175e-19
5.8318432e-19
5.837392e-19
5.834062e-19
5.8320621e-19
5.8309158e-19
5.8303117e-19
5.8300461e-19
5.8300056e-19
5.8301543e-19
5.8305302e-19
5.8312611e-19
5.8371154e-19
5.8337879e-19
5.8317913e-19
5.8306479e-19
5.8300461e-19
5.8297826e-19
5.8297443e-19
5.8298958e-19
5.8302747e-19
5.8310077e-19
5.8370548e-19
5.8337326e-19
5.8317423e-19
5.830604e-19
5.8300056e-19
5.8297443e-19
5.8297077e-19
5.8298608e-19
5.8302411e-19
5.8309751e-19
5.8371644e-19
5.8338552e-19
5.8318775e-19
5.8307478e-19
5.8301543e-19
5.8298958e-19
5.8298608e-19
5.8300148e-19
5.830396e-19
5.8311305e-19
5.8374637e-19
5.834189e-19
5.8322347e-19
5.8311175e-19
5.8305302e-19
5.8302747e-19
5.8302411e-19
5.830396e-19
5.8307778e-19
5.831513e-19
5.8380409e-19
5.8348678e-19
5.8329476e-19
5.8318432e-19
5.8312611e-19
5.8310077e-19
5.8309751e-19
5.8311305e-19
5.831513e-19
5.83225e-19
1.2628958e-18
1.2622013e-18
1.2617829e-18
1.2615422e-18
1.2614144e-18
1.2613566e-18
1.2613439e-18
1.2613666e-18
1.2614284e-18
1.2615464e-18
1.2622013e-18
1.2615093e-18
1.2610917e-18
1.2608514e-18
1.260724e-18
1.2606667e-18
1.2606551e-18
1.2606806e-18
1.2607497e-18
1.2608893e-18
1.2617829e-18
1.2610917e-18
1.2606747e-18
1.2604348e-18
1.2603078e-18
1.2602512e-18
1.260241e-18
1.2602692e-18
1.2603432e-18
1.2604901e-18
1.2615422e-18
1.2608514e-18
1.2604348e-18
1.2601953e-18
1.2600688e-18
1.2600128e-18
1.2600036e-18
1.2600336e-18
1.2601104e-18
1.26026e-18
1.2614144e-18
1.260724e-18
1.2603078e-18
1.2600688e-18
1.2599426e-18
1.2598871e-18
1.2598787e-18
1.2599097e-18
1.2599878e-18
1.2601385e-18
1.2613566e-18
1.2606667e-18
1.2602512e-18
1.2600128e-18
1.2598871e-18
1.2598321e-18
1.2598241e-18
1.2598557e-18
1.2599344e-18
1.2600856e-18
1.2613439e-18
1.2606551e-18
1.260241e-18
1.2600036e-18
1.2598787e-18
1.2598241e-18
1.2598165e-18
1.2598485e-18
1.2599275e-18
1.2600788e-18
1.2613666e-18
1.2606806e-18
1.2602692e-18
1.2600336e-18
1.2599097e-18
1.2598557e-18
1.2598485e-18
1.2598806e-18
1.2599598e-18
1.2601113e-18
1.2614284e-18
1.2607497e-18
1.2603432e-18
1.2601104e-18
1.2599878e-18
1.2599344e-18
1.2599275e-18
1.2599598e-18
1.2600391e-18
1.2601908e-18
1.2615464e-18
1.2608893e-18
1.2604901e-18
1.26026e-18
1.2601385e-18
1.2600856e-18
1.2600788e-18
1.2601113e-18
1.2601908e-18