/*--------------------------------*- C++ -*----------------------------------*\
| =========                 |                                                 |
| \\      /  F ield         | OpenFOAM: The Open Source CFD Toolbox           |
|  \\    /   O peration     | Version:  dev                                   |
|   \\  /    A nd           | Web:      www.OpenFOAM.org                      |
|    \\/     M anipulation  |                                                 |
\*---------------------------------------------------------------------------*/
FoamFile
{
    version     2.0;
    format      ascii;
    class       volScalarField;
    location    "77.995";
    object      A_0;
}
// * * * * * * * * * * * * * * * * * * * * * * * * * * * * * * * * * * * * * //

dimensions      [0 0 0 0 1 0 0];

internalField   nonuniform List<scalar> 
10000
(
8.2679701e-25
8.2584787e-25
8.2534177e-25
8.2506574e-25
8.2492388e-25
8.2486129e-25
8.2484954e-25
8.2488157e-25
8.2497253e-25
8.2515711e-25
8.2584787e-25
8.249026e-25
8.2439785e-25
8.2412245e-25
8.23981e-25
8.239189e-25
8.2390809e-25
8.2394234e-25
8.2403907e-25
8.2424025e-25
8.2534177e-25
8.2439785e-25
8.2389392e-25
8.2361903e-25
8.2347802e-25
8.2341652e-25
8.2340682e-25
8.2344325e-25
8.2354396e-25
8.2375084e-25
8.2506574e-25
8.2412245e-25
8.2361903e-25
8.2334454e-25
8.2320392e-25
8.2314295e-25
8.2313415e-25
8.2317206e-25
8.2327492e-25
8.2348396e-25
8.2492388e-25
8.23981e-25
8.2347802e-25
8.2320392e-25
8.2306366e-25
8.2300311e-25
8.229949e-25
8.2303368e-25
8.2313761e-25
8.2334753e-25
8.2486129e-25
8.239189e-25
8.2341652e-25
8.2314295e-25
8.2300311e-25
8.2294293e-25
8.2293512e-25
8.2297437e-25
8.2307882e-25
8.232891e-25
8.2484954e-25
8.2390809e-25
8.2340682e-25
8.2313415e-25
8.229949e-25
8.2293512e-25
8.2292761e-25
8.2296714e-25
8.2307185e-25
8.2328231e-25
8.2488157e-25
8.2394234e-25
8.2344325e-25
8.2317206e-25
8.2303368e-25
8.2297437e-25
8.2296714e-25
8.2300687e-25
8.2311174e-25
8.2332232e-25
8.2497253e-25
8.2403907e-25
8.2354396e-25
8.2327492e-25
8.2313761e-25
8.2307882e-25
8.2307185e-25
8.2311174e-25
8.2321678e-25
8.2342758e-25
8.2515711e-25
8.2424025e-25
8.2375084e-25
8.2348396e-25
8.2334753e-25
8.232891e-25
8.2328231e-25
8.2332232e-25
8.2342758e-25
8.2363896e-25
2.767326e-24
2.7642705e-24
2.7625951e-24
2.7616792e-24
2.7612082e-24
2.7610002e-24
2.760961e-24
2.7610668e-24
2.7613682e-24
2.7620021e-24
2.7642705e-24
2.7612272e-24
2.7595561e-24
2.7586423e-24
2.7581726e-24
2.7579662e-24
2.7579301e-24
2.7580434e-24
2.7583641e-24
2.7590538e-24
2.7625951e-24
2.7595561e-24
2.7578878e-24
2.7569757e-24
2.7565074e-24
2.7563031e-24
2.7562707e-24
2.7563912e-24
2.7567252e-24
2.7574339e-24
2.7616792e-24
2.7586423e-24
2.7569757e-24
2.7560649e-24
2.7555979e-24
2.7553953e-24
2.7553659e-24
2.7554914e-24
2.7558326e-24
2.7565485e-24
2.7612082e-24
2.7581726e-24
2.7565074e-24
2.7555979e-24
2.7551321e-24
2.754931e-24
2.7549036e-24
2.7550319e-24
2.7553767e-24
2.7560955e-24
2.7610002e-24
2.7579662e-24
2.7563031e-24
2.7553953e-24
2.754931e-24
2.754731e-24
2.7547049e-24
2.7548349e-24
2.7551814e-24
2.7559014e-24
2.760961e-24
2.7579301e-24
2.7562707e-24
2.7553659e-24
2.7549036e-24
2.7547049e-24
2.7546799e-24
2.7548108e-24
2.7551581e-24
2.7558787e-24
2.7610668e-24
2.7580434e-24
2.7563912e-24
2.7554914e-24
2.7550319e-24
2.7548349e-24
2.7548108e-24
2.7549423e-24
2.7552902e-24
2.7560113e-24
2.7613682e-24
2.7583641e-24
2.7567252e-24
2.7558326e-24
2.7553767e-24
2.7551814e-24
2.7551581e-24
2.7552902e-24
2.7556387e-24
2.7563604e-24
2.7620021e-24
2.7590538e-24
2.7574339e-24
2.7565485e-24
2.7560955e-24
2.7559014e-24
2.7558787e-24
2.7560113e-24
2.7563604e-24
2.7570843e-24
5.6910921e-24
5.6850148e-24
5.6816343e-24
5.6797809e-24
5.6788264e-24
5.6784045e-24
5.6783243e-24
5.6785369e-24
5.6791438e-24
5.6804607e-24
5.6850148e-24
5.6789612e-24
5.6755895e-24
5.6737401e-24
5.6727883e-24
5.6723697e-24
5.6722959e-24
5.6725237e-24
5.6731702e-24
5.6746016e-24
5.6816343e-24
5.6755895e-24
5.6722232e-24
5.6703772e-24
5.6694283e-24
5.6690139e-24
5.6689477e-24
5.6691903e-24
5.669864e-24
5.6713345e-24
5.6797809e-24
5.6737401e-24
5.6703772e-24
5.668534e-24
5.6675878e-24
5.6671769e-24
5.6671168e-24
5.6673695e-24
5.668058e-24
5.6695431e-24
5.6788264e-24
5.6727883e-24
5.6694283e-24
5.6675878e-24
5.666644e-24
5.666236e-24
5.66618e-24
5.6664387e-24
5.6671344e-24
5.6686255e-24
5.6784045e-24
5.6723697e-24
5.6690139e-24
5.6671769e-24
5.666236e-24
5.6658305e-24
5.6657772e-24
5.6660391e-24
5.6667384e-24
5.668232e-24
5.6783243e-24
5.6722959e-24
5.6689477e-24
5.6671168e-24
5.66618e-24
5.6657772e-24
5.6657259e-24
5.6659897e-24
5.6666908e-24
5.6681855e-24
5.6785369e-24
5.6725237e-24
5.6691903e-24
5.6673695e-24
5.6664387e-24
5.6660391e-24
5.6659897e-24
5.6662549e-24
5.666957e-24
5.6684527e-24
5.6791438e-24
5.6731702e-24
5.669864e-24
5.668058e-24
5.6671344e-24
5.6667384e-24
5.6666908e-24
5.666957e-24
5.6676603e-24
5.6691574e-24
5.6804607e-24
5.6746016e-24
5.6713345e-24
5.6695431e-24
5.6686255e-24
5.668232e-24
5.6681855e-24
5.6684527e-24
5.6691574e-24
5.6706589e-24
1.0689773e-23
1.0678729e-23
1.0672531e-23
1.0669123e-23
1.0667365e-23
1.0666587e-23
1.0666437e-23
1.0666824e-23
1.0667929e-23
1.0670352e-23
1.0678729e-23
1.0667727e-23
1.0661546e-23
1.0658145e-23
1.0656392e-23
1.065562e-23
1.0655482e-23
1.0655897e-23
1.0657077e-23
1.0659713e-23
1.0672531e-23
1.0661546e-23
1.0655374e-23
1.0651979e-23
1.0650232e-23
1.0649467e-23
1.0649344e-23
1.0649787e-23
1.0651017e-23
1.0653726e-23
1.0669123e-23
1.0658145e-23
1.0651979e-23
1.064859e-23
1.0646847e-23
1.0646089e-23
1.0645977e-23
1.0646439e-23
1.0647696e-23
1.0650434e-23
1.0667365e-23
1.0656392e-23
1.0650232e-23
1.0646847e-23
1.0645108e-23
1.0644356e-23
1.0644252e-23
1.0644724e-23
1.0645996e-23
1.0648744e-23
1.0666587e-23
1.065562e-23
1.0649467e-23
1.0646089e-23
1.0644356e-23
1.0643608e-23
1.0643509e-23
1.0643988e-23
1.0645266e-23
1.0648019e-23
1.0666437e-23
1.0655482e-23
1.0649344e-23
1.0645977e-23
1.0644252e-23
1.0643509e-23
1.0643413e-23
1.0643896e-23
1.0645177e-23
1.0647932e-23
1.0666824e-23
1.0655897e-23
1.0649787e-23
1.0646439e-23
1.0644724e-23
1.0643988e-23
1.0643896e-23
1.0644381e-23
1.0645664e-23
1.064842e-23
1.0667929e-23
1.0657077e-23
1.0651017e-23
1.0647696e-23
1.0645996e-23
1.0645266e-23
1.0645177e-23
1.0645664e-23
1.0646949e-23
1.0649708e-23
1.0670352e-23
1.0659713e-23
1.0653726e-23
1.0650434e-23
1.0648744e-23
1.0648019e-23
1.0647932e-23
1.064842e-23
1.0649708e-23
1.0652476e-23
1.9717306e-23
1.9697604e-23
1.9686479e-23
1.9680343e-23
1.9677172e-23
1.9675766e-23
1.9675493e-23
1.9676181e-23
1.9678146e-23
1.9682447e-23
1.9697604e-23
1.9677977e-23
1.966688e-23
1.9660757e-23
1.9657595e-23
1.96562e-23
1.9655949e-23
1.9656688e-23
1.9658789e-23
1.9663484e-23
1.9686479e-23
1.966688e-23
1.9655801e-23
1.9649689e-23
1.9646537e-23
1.9645156e-23
1.964493e-23
1.9645721e-23
1.9647915e-23
1.9652743e-23
1.9680343e-23
1.9660757e-23
1.9649689e-23
1.9643586e-23
1.9640442e-23
1.9639074e-23
1.9638869e-23
1.9639694e-23
1.9641938e-23
1.9646817e-23
1.9677172e-23
1.9657595e-23
1.9646537e-23
1.9640442e-23
1.9637307e-23
1.9635948e-23
1.9635757e-23
1.9636603e-23
1.9638871e-23
1.9643771e-23
1.9675766e-23
1.96562e-23
1.9645156e-23
1.9639074e-23
1.9635948e-23
1.9634598e-23
1.9634416e-23
1.9635273e-23
1.9637554e-23
1.9642462e-23
1.9675493e-23
1.9655949e-23
1.964493e-23
1.9638869e-23
1.9635757e-23
1.9634416e-23
1.9634241e-23
1.9635104e-23
1.9637391e-23
1.9642303e-23
1.9676181e-23
1.9656688e-23
1.9645721e-23
1.9639694e-23
1.9636603e-23
1.9635273e-23
1.9635104e-23
1.9635972e-23
1.9638262e-23
1.9643177e-23
1.9678146e-23
1.9658789e-23
1.9647915e-23
1.9641938e-23
1.9638871e-23
1.9637554e-23
1.9637391e-23
1.9638262e-23
1.9640557e-23
1.9645476e-23
1.9682447e-23
1.9663484e-23
1.9652743e-23
1.9646817e-23
1.9643771e-23
1.9642462e-23
1.9642303e-23
1.9643177e-23
1.9645476e-23
1.9650411e-23
3.6435562e-23
3.6400363e-23
3.6380388e-23
3.6369337e-23
3.6363616e-23
3.6361076e-23
3.6360576e-23
3.6361799e-23
3.6365286e-23
3.6372877e-23
3.6400363e-23
3.6365297e-23
3.6345372e-23
3.6334344e-23
3.6328639e-23
3.6326119e-23
3.6325659e-23
3.6326978e-23
3.6330713e-23
3.6339028e-23
3.6380388e-23
3.6345372e-23
3.6325478e-23
3.6314471e-23
3.6308783e-23
3.6306289e-23
3.6305876e-23
3.6307287e-23
3.6311194e-23
3.6319754e-23
3.6369337e-23
3.6334344e-23
3.6314471e-23
3.6303479e-23
3.6297808e-23
3.6295336e-23
3.6294962e-23
3.6296436e-23
3.6300434e-23
3.6309087e-23
3.6363616e-23
3.6328639e-23
3.6308783e-23
3.6297808e-23
3.6292152e-23
3.6289698e-23
3.6289349e-23
3.629086e-23
3.6294904e-23
3.6303595e-23
3.6361076e-23
3.6326119e-23
3.6306289e-23
3.6295336e-23
3.6289698e-23
3.6287259e-23
3.6286927e-23
3.6288458e-23
3.6292524e-23
3.6301231e-23
3.6360576e-23
3.6325659e-23
3.6305876e-23
3.6294962e-23
3.6289349e-23
3.6286927e-23
3.6286607e-23
3.628815e-23
3.6292228e-23
3.6300941e-23
3.6361799e-23
3.6326978e-23
3.6307287e-23
3.6296436e-23
3.629086e-23
3.6288458e-23
3.628815e-23
3.6289702e-23
3.6293786e-23
3.6302505e-23
3.6365286e-23
3.6330713e-23
3.6311194e-23
3.6300434e-23
3.6294904e-23
3.6292524e-23
3.6292228e-23
3.6293786e-23
3.6297876e-23
3.6306603e-23
3.6372877e-23
3.6339028e-23
3.6319754e-23
3.6309087e-23
3.6303595e-23
3.6301231e-23
3.6300941e-23
3.6302505e-23
3.6306603e-23
3.6315356e-23
6.7861023e-23
6.7797668e-23
6.7761552e-23
6.7741514e-23
6.7731122e-23
6.77265e-23
6.772558e-23
6.7727768e-23
6.7733993e-23
6.7747448e-23
6.7797668e-23
6.7734552e-23
6.7698524e-23
6.7678527e-23
6.7668163e-23
6.7663579e-23
6.7662733e-23
6.7665096e-23
6.7671782e-23
6.7686578e-23
6.7761552e-23
6.7698524e-23
6.7662552e-23
6.7642592e-23
6.763226e-23
6.7627722e-23
6.7626964e-23
6.7629499e-23
6.76365e-23
6.765175e-23
6.7741514e-23
6.7678527e-23
6.7642592e-23
6.7622662e-23
6.7612359e-23
6.7607863e-23
6.7607173e-23
6.7609826e-23
6.7616997e-23
6.7632418e-23
6.7731122e-23
6.7668163e-23
6.763226e-23
6.7612359e-23
6.7602085e-23
6.7597621e-23
6.7596979e-23
6.7599699e-23
6.7606954e-23
6.7622445e-23
6.77265e-23
6.7663579e-23
6.7627722e-23
6.7607863e-23
6.7597621e-23
6.7593186e-23
6.7592574e-23
6.7595332e-23
6.7602628e-23
6.7618147e-23
6.772558e-23
6.7662733e-23
6.7626964e-23
6.7607173e-23
6.7596979e-23
6.7592574e-23
6.7591987e-23
6.7594766e-23
6.7602082e-23
6.7617615e-23
6.7727768e-23
6.7665096e-23
6.7629499e-23
6.7609826e-23
6.7599699e-23
6.7595332e-23
6.7594766e-23
6.7597561e-23
6.7604889e-23
6.7620431e-23
6.7733993e-23
6.7671782e-23
6.76365e-23
6.7616997e-23
6.7606954e-23
6.7602628e-23
6.7602082e-23
6.7604889e-23
6.7612229e-23
6.7627786e-23
6.7747448e-23
6.7686578e-23
6.765175e-23
6.7632418e-23
6.7622445e-23
6.7618147e-23
6.7617615e-23
6.7620431e-23
6.7627786e-23
6.7643389e-23
1.2762591e-22
1.2751081e-22
1.2744491e-22
1.2740825e-22
1.273892e-22
1.2738071e-22
1.27379e-22
1.2738296e-22
1.2739417e-22
1.2741821e-22
1.2751081e-22
1.2739614e-22
1.273304e-22
1.2729381e-22
1.2727481e-22
1.272664e-22
1.2726483e-22
1.2726911e-22
1.2728118e-22
1.2730773e-22
1.2744491e-22
1.273304e-22
1.2726476e-22
1.2722824e-22
1.272093e-22
1.2720097e-22
1.2719956e-22
1.2720416e-22
1.2721682e-22
1.2724422e-22
1.2740825e-22
1.2729381e-22
1.2722824e-22
1.2719177e-22
1.2717289e-22
1.2716463e-22
1.2716336e-22
1.2716817e-22
1.2718115e-22
1.2720887e-22
1.273892e-22
1.2727481e-22
1.272093e-22
1.2717289e-22
1.2715405e-22
1.2714586e-22
1.2714467e-22
1.2714961e-22
1.2716275e-22
1.271906e-22
1.2738071e-22
1.272664e-22
1.2720097e-22
1.2716463e-22
1.2714586e-22
1.2713772e-22
1.2713659e-22
1.271416e-22
1.2715481e-22
1.2718271e-22
1.27379e-22
1.2726483e-22
1.2719956e-22
1.2716336e-22
1.2714467e-22
1.2713659e-22
1.271355e-22
1.2714055e-22
1.271538e-22
1.2718173e-22
1.2738296e-22
1.2726911e-22
1.2720416e-22
1.2716817e-22
1.2714961e-22
1.271416e-22
1.2714055e-22
1.2714563e-22
1.271589e-22
1.2718685e-22
1.2739417e-22
1.2728118e-22
1.2721682e-22
1.2718115e-22
1.2716275e-22
1.2715481e-22
1.271538e-22
1.271589e-22
1.2717219e-22
1.2720016e-22
1.2741821e-22
1.2730773e-22
1.2724422e-22
1.2720887e-22
1.271906e-22
1.2718271e-22
1.2718173e-22
1.2718685e-22
1.2720016e-22
1.2722821e-22
2.4251485e-22
2.4230367e-22
2.4218225e-22
2.421145e-22
2.4207924e-22
2.4206351e-22
2.4206032e-22
2.4206752e-22
2.4208792e-22
2.421313e-22
2.4230367e-22
2.4209328e-22
2.4197214e-22
2.4190453e-22
2.4186937e-22
2.4185377e-22
2.4185082e-22
2.4185865e-22
2.4188066e-22
2.4192877e-22
2.4218225e-22
2.4197214e-22
2.4185119e-22
2.417837e-22
2.4174865e-22
2.4173321e-22
2.4173057e-22
2.41739e-22
2.4176212e-22
2.4181183e-22
2.421145e-22
2.4190453e-22
2.417837e-22
2.4171632e-22
2.4168137e-22
2.4166607e-22
2.4166368e-22
2.4167251e-22
2.4169623e-22
2.4174654e-22
2.4207924e-22
2.4186937e-22
2.4174865e-22
2.4168137e-22
2.4164651e-22
2.4163133e-22
2.416291e-22
2.4163817e-22
2.4166219e-22
2.4171274e-22
2.4206351e-22
2.4185377e-22
2.4173321e-22
2.4166607e-22
2.4163133e-22
2.4161624e-22
2.4161412e-22
2.4162333e-22
2.4164748e-22
2.4169814e-22
2.4206032e-22
2.4185082e-22
2.4173057e-22
2.4166368e-22
2.416291e-22
2.4161412e-22
2.4161209e-22
2.4162136e-22
2.4164559e-22
2.416963e-22
2.4206752e-22
2.4185865e-22
2.41739e-22
2.4167251e-22
2.4163817e-22
2.4162333e-22
2.4162136e-22
2.4163069e-22
2.4165496e-22
2.417057e-22
2.4208792e-22
2.4188066e-22
2.4176212e-22
2.4169623e-22
2.4166219e-22
2.4164748e-22
2.4164559e-22
2.4165496e-22
2.4167928e-22
2.4173006e-22
2.421313e-22
2.4192877e-22
2.4181183e-22
2.4174654e-22
2.4171274e-22
2.4169814e-22
2.416963e-22
2.417057e-22
2.4173006e-22
2.4178099e-22
4.6570555e-22
4.6531415e-22
4.6508816e-22
4.6496173e-22
4.6489581e-22
4.6486636e-22
4.6486031e-22
4.6487359e-22
4.6491107e-22
4.6499013e-22
4.6531415e-22
4.6492419e-22
4.6469873e-22
4.6457255e-22
4.6450681e-22
4.644776e-22
4.6447204e-22
4.6448649e-22
4.6452706e-22
4.6461513e-22
4.6508816e-22
4.6469873e-22
4.6447361e-22
4.6434766e-22
4.6428212e-22
4.6425322e-22
4.6424824e-22
4.6426384e-22
4.6430651e-22
4.6439763e-22
4.6496173e-22
4.6457255e-22
4.6434766e-22
4.642219e-22
4.6415656e-22
4.6412793e-22
4.6412341e-22
4.6413978e-22
4.6418359e-22
4.6427585e-22
4.6489581e-22
4.6450681e-22
4.6428212e-22
4.6415656e-22
4.6409139e-22
4.6406298e-22
4.6405877e-22
4.640756e-22
4.6411997e-22
4.6421269e-22
4.6486636e-22
4.644776e-22
4.6425322e-22
4.6412793e-22
4.6406298e-22
4.6403476e-22
4.6403076e-22
4.6404782e-22
4.6409246e-22
4.6418539e-22
4.6486031e-22
4.6447204e-22
4.6424824e-22
4.6412341e-22
4.6405877e-22
4.6403076e-22
4.6402691e-22
4.6404412e-22
4.640889e-22
4.6418191e-22
4.6487359e-22
4.6448649e-22
4.6426384e-22
4.6413978e-22
4.640756e-22
4.6404782e-22
4.6404412e-22
4.6406144e-22
4.6410629e-22
4.6419936e-22
4.6491107e-22
4.6452706e-22
4.6430651e-22
4.6418359e-22
4.6411997e-22
4.6409246e-22
4.640889e-22
4.6410629e-22
4.6415122e-22
4.6424437e-22
4.6499013e-22
4.6461513e-22
4.6439763e-22
4.6427585e-22
4.6421269e-22
4.6418539e-22
4.6418191e-22
4.6419936e-22
4.6424437e-22
4.6433779e-22
9.0385899e-22
9.0312615e-22
9.0270126e-22
9.0246292e-22
9.0233843e-22
9.0228274e-22
9.022712e-22
9.0229591e-22
9.0236552e-22
9.0251108e-22
9.0312615e-22
9.0239598e-22
9.0197207e-22
9.0173421e-22
9.0161005e-22
9.0155482e-22
9.0154421e-22
9.0157119e-22
9.0164673e-22
9.0180964e-22
9.0270126e-22
9.0197207e-22
9.0154881e-22
9.0131137e-22
9.0118761e-22
9.0113296e-22
9.0112347e-22
9.0115264e-22
9.0123222e-22
9.0140099e-22
9.0246292e-22
9.0173421e-22
9.0131137e-22
9.0107428e-22
9.0095089e-22
9.0089676e-22
9.0088816e-22
9.0091881e-22
9.0100057e-22
9.0117155e-22
9.0233843e-22
9.0161005e-22
9.0118761e-22
9.0095089e-22
9.0082784e-22
9.0077413e-22
9.0076612e-22
9.0079765e-22
9.0088048e-22
9.0105235e-22
9.0228274e-22
9.0155482e-22
9.0113296e-22
9.0089676e-22
9.0077413e-22
9.0072078e-22
9.0071316e-22
9.0074517e-22
9.0082852e-22
9.0100076e-22
9.022712e-22
9.0154421e-22
9.0112347e-22
9.0088816e-22
9.0076612e-22
9.0071316e-22
9.0070584e-22
9.0073812e-22
9.0082173e-22
9.0099414e-22
9.0229591e-22
9.0157119e-22
9.0115264e-22
9.0091881e-22
9.0079765e-22
9.0074517e-22
9.0073812e-22
9.0077059e-22
9.0085436e-22
9.0102688e-22
9.0236552e-22
9.0164673e-22
9.0123222e-22
9.0100057e-22
9.0088048e-22
9.0082852e-22
9.0082173e-22
9.0085436e-22
9.0093826e-22
9.0111094e-22
9.0251108e-22
9.0180964e-22
9.0140099e-22
9.0117155e-22
9.0105235e-22
9.0100076e-22
9.0099414e-22
9.0102688e-22
9.0111094e-22
9.0128411e-22
1.7730968e-21
1.7717105e-21
1.7709035e-21
1.7704496e-21
1.7702122e-21
1.7701058e-21
1.7700835e-21
1.77013e-21
1.7702606e-21
1.7705314e-21
1.7717105e-21
1.7703293e-21
1.7695241e-21
1.7690711e-21
1.7688343e-21
1.7687288e-21
1.7687084e-21
1.7687593e-21
1.7689014e-21
1.7692059e-21
1.7709035e-21
1.7695241e-21
1.7687202e-21
1.768268e-21
1.7680319e-21
1.7679275e-21
1.7679093e-21
1.7679644e-21
1.7681144e-21
1.7684303e-21
1.7704496e-21
1.7690711e-21
1.768268e-21
1.7678165e-21
1.7675811e-21
1.7674777e-21
1.7674612e-21
1.7675192e-21
1.7676734e-21
1.7679936e-21
1.7702122e-21
1.7688343e-21
1.7680319e-21
1.7675811e-21
1.7673464e-21
1.7672438e-21
1.7672284e-21
1.7672881e-21
1.7674444e-21
1.7677664e-21
1.7701058e-21
1.7687288e-21
1.7679275e-21
1.7674777e-21
1.7672438e-21
1.767142e-21
1.7671273e-21
1.767188e-21
1.7673453e-21
1.7676679e-21
1.7700835e-21
1.7687084e-21
1.7679093e-21
1.7674612e-21
1.7672284e-21
1.7671273e-21
1.7671133e-21
1.7671744e-21
1.7673322e-21
1.7676552e-21
1.77013e-21
1.7687593e-21
1.7679644e-21
1.7675192e-21
1.7672881e-21
1.767188e-21
1.7671744e-21
1.767236e-21
1.7673941e-21
1.7677173e-21
1.7702606e-21
1.7689014e-21
1.7681144e-21
1.7676734e-21
1.7674444e-21
1.7673453e-21
1.7673322e-21
1.7673941e-21
1.7675524e-21
1.7678759e-21
1.7705314e-21
1.7692059e-21
1.7684303e-21
1.7679936e-21
1.7677664e-21
1.7676679e-21
1.7676552e-21
1.7677173e-21
1.7678759e-21
1.7682003e-21
3.5158153e-21
3.513166e-21
3.5116175e-21
3.5107443e-21
3.5102866e-21
3.5100814e-21
3.5100381e-21
3.5101266e-21
3.5103742e-21
3.5108832e-21
3.513166e-21
3.5105262e-21
3.5089812e-21
3.5081097e-21
3.5076533e-21
3.5074497e-21
3.50741e-21
3.5075071e-21
3.5077773e-21
3.5083527e-21
3.5116175e-21
3.5089812e-21
3.5074385e-21
3.5065685e-21
3.5061136e-21
3.5059122e-21
3.5058767e-21
3.5059821e-21
3.5062678e-21
3.5068655e-21
3.5107443e-21
3.5081097e-21
3.5065685e-21
3.5056999e-21
3.5052463e-21
3.5050469e-21
3.5050148e-21
3.5051258e-21
3.5054198e-21
3.5060259e-21
3.5102866e-21
3.5076533e-21
3.5061136e-21
3.5052463e-21
3.504794e-21
3.5045962e-21
3.5045663e-21
3.5046807e-21
3.5049787e-21
3.5055882e-21
3.5100814e-21
3.5074497e-21
3.5059122e-21
3.5050469e-21
3.5045962e-21
3.5043998e-21
3.5043714e-21
3.5044875e-21
3.5047876e-21
3.5053985e-21
3.5100381e-21
3.50741e-21
3.5058767e-21
3.5050148e-21
3.5045663e-21
3.5043714e-21
3.5043441e-21
3.5044613e-21
3.5047623e-21
3.5053739e-21
3.5101266e-21
3.5075071e-21
3.5059821e-21
3.5051258e-21
3.5046807e-21
3.5044875e-21
3.5044613e-21
3.5045793e-21
3.5048808e-21
3.5054928e-21
3.5103742e-21
3.5077773e-21
3.5062678e-21
3.5054198e-21
3.5049787e-21
3.5047876e-21
3.5047623e-21
3.5048808e-21
3.5051829e-21
3.5057954e-21
3.5108832e-21
3.5083527e-21
3.5068655e-21
3.5060259e-21
3.5055882e-21
3.5053985e-21
3.5053739e-21
3.5054928e-21
3.5057954e-21
3.5064096e-21
7.0468718e-21
7.0417564e-21
7.0387545e-21
7.0370574e-21
7.0361665e-21
7.0357664e-21
7.0356814e-21
7.0358514e-21
7.036326e-21
7.0372929e-21
7.0417564e-21
7.0366592e-21
7.033664e-21
7.0319701e-21
7.0310816e-21
7.0306849e-21
7.0306069e-21
7.030794e-21
7.0313135e-21
7.0324119e-21
7.0387545e-21
7.033664e-21
7.0306733e-21
7.0289824e-21
7.0280967e-21
7.0277043e-21
7.0276348e-21
7.0278384e-21
7.0283883e-21
7.0295312e-21
7.0370574e-21
7.0319701e-21
7.0289824e-21
7.0272941e-21
7.0264111e-21
7.0260226e-21
7.0259597e-21
7.0261745e-21
7.0267408e-21
7.0279004e-21
7.0361665e-21
7.0310816e-21
7.0280967e-21
7.0264111e-21
7.0255307e-21
7.0251453e-21
7.0250868e-21
7.0253082e-21
7.0258827e-21
7.0270489e-21
7.0357664e-21
7.0306849e-21
7.0277043e-21
7.0260226e-21
7.0251453e-21
7.0247626e-21
7.0247071e-21
7.024932e-21
7.0255104e-21
7.0266794e-21
7.0356814e-21
7.0306069e-21
7.0276348e-21
7.0259597e-21
7.0250868e-21
7.0247071e-21
7.0246539e-21
7.0248808e-21
7.0254611e-21
7.0266314e-21
7.0358514e-21
7.030794e-21
7.0278384e-21
7.0261745e-21
7.0253082e-21
7.024932e-21
7.0248808e-21
7.0251092e-21
7.0256906e-21
7.0268617e-21
7.036326e-21
7.0313135e-21
7.0283883e-21
7.0267408e-21
7.0258827e-21
7.0255104e-21
7.0254611e-21
7.0256906e-21
7.026273e-21
7.0274452e-21
7.0372929e-21
7.0324119e-21
7.0295312e-21
7.0279004e-21
7.0270489e-21
7.0266794e-21
7.0266314e-21
7.0268617e-21
7.0274452e-21
7.0286206e-21
1.4277568e-20
1.4267589e-20
1.4261709e-20
1.4258377e-20
1.4256625e-20
1.4255837e-20
1.4255669e-20
1.4255999e-20
1.4256918e-20
1.4258774e-20
1.4267589e-20
1.4257645e-20
1.4251778e-20
1.4248452e-20
1.4246705e-20
1.4245924e-20
1.424577e-20
1.4246134e-20
1.4247143e-20
1.4249263e-20
1.4261709e-20
1.4251778e-20
1.4245921e-20
1.4242601e-20
1.4240859e-20
1.4240087e-20
1.4239949e-20
1.4240346e-20
1.4241417e-20
1.4243625e-20
1.4258377e-20
1.4248452e-20
1.4242601e-20
1.4239286e-20
1.4237549e-20
1.4236785e-20
1.423666e-20
1.423708e-20
1.4238183e-20
1.4240425e-20
1.4256625e-20
1.4246705e-20
1.4240859e-20
1.4237549e-20
1.4235818e-20
1.423506e-20
1.4234944e-20
1.4235377e-20
1.4236496e-20
1.4238752e-20
1.4255837e-20
1.4245924e-20
1.4240087e-20
1.4236785e-20
1.423506e-20
1.4234306e-20
1.4234197e-20
1.4234637e-20
1.4235764e-20
1.4238025e-20
1.4255669e-20
1.424577e-20
1.4239949e-20
1.423666e-20
1.4234944e-20
1.4234197e-20
1.4234092e-20
1.4234536e-20
1.4235667e-20
1.4237931e-20
1.4255999e-20
1.4246134e-20
1.4240346e-20
1.423708e-20
1.4235377e-20
1.4234637e-20
1.4234536e-20
1.4234983e-20
1.4236116e-20
1.4238382e-20
1.4256918e-20
1.4247143e-20
1.4241417e-20
1.4238183e-20
1.4236496e-20
1.4235764e-20
1.4235667e-20
1.4236116e-20
1.4237251e-20
1.4239519e-20
1.4258774e-20
1.4249263e-20
1.4243625e-20
1.4240425e-20
1.4238752e-20
1.4238025e-20
1.4237931e-20
1.4238382e-20
1.4239519e-20
1.4241792e-20
2.9241954e-20
2.9222285e-20
2.9210652e-20
2.9204043e-20
2.9200562e-20
2.9198995e-20
2.9198658e-20
2.9199306e-20
2.9201105e-20
2.9204706e-20
2.9222285e-20
2.9202685e-20
2.9191078e-20
2.918448e-20
2.9181008e-20
2.9179455e-20
2.9179146e-20
2.9179864e-20
2.9181845e-20
2.918598e-20
2.9210652e-20
2.9191078e-20
2.9179487e-20
2.9172902e-20
2.9169441e-20
2.9167905e-20
2.916763e-20
2.9168415e-20
2.917052e-20
2.9174835e-20
2.9204043e-20
2.918448e-20
2.9172902e-20
2.9166326e-20
2.9162876e-20
2.9161356e-20
2.9161108e-20
2.9161938e-20
2.9164109e-20
2.9168491e-20
2.9200562e-20
2.9181008e-20
2.9169441e-20
2.9162876e-20
2.9159437e-20
2.9157929e-20
2.9157699e-20
2.9158555e-20
2.9160759e-20
2.9165169e-20
2.9198995e-20
2.9179455e-20
2.9167905e-20
2.9161356e-20
2.9157929e-20
2.9156432e-20
2.9156214e-20
2.9157085e-20
2.9159304e-20
2.9163725e-20
2.9198658e-20
2.9179146e-20
2.916763e-20
2.9161108e-20
2.9157699e-20
2.9156214e-20
2.9156005e-20
2.9156884e-20
2.9159111e-20
2.9163537e-20
2.9199306e-20
2.9179864e-20
2.9168415e-20
2.9161938e-20
2.9158555e-20
2.9157085e-20
2.9156884e-20
2.9157769e-20
2.916e-20
2.916443e-20
2.9201105e-20
2.9181845e-20
2.917052e-20
2.9164109e-20
2.9160759e-20
2.9159304e-20
2.9159111e-20
2.916e-20
2.9162236e-20
2.916667e-20
2.9204706e-20
2.918598e-20
2.9174835e-20
2.9168491e-20
2.9165169e-20
2.9163725e-20
2.9163537e-20
2.916443e-20
2.916667e-20
2.9171115e-20
6.0541797e-20
6.0502629e-20
6.0479376e-20
6.0466131e-20
6.0459144e-20
6.0455996e-20
6.0455315e-20
6.0456604e-20
6.0460163e-20
6.0467221e-20
6.0502629e-20
6.0463597e-20
6.0440394e-20
6.0427174e-20
6.0420206e-20
6.0417085e-20
6.0416462e-20
6.0417891e-20
6.0421823e-20
6.0429975e-20
6.0479376e-20
6.0440394e-20
6.0417225e-20
6.0404028e-20
6.0397083e-20
6.0393998e-20
6.0393444e-20
6.0395009e-20
6.0399193e-20
6.0407714e-20
6.0466131e-20
6.0427174e-20
6.0404028e-20
6.0390851e-20
6.0383928e-20
6.0380874e-20
6.0380375e-20
6.0382033e-20
6.0386353e-20
6.0395011e-20
6.0459144e-20
6.0420206e-20
6.0397083e-20
6.0383928e-20
6.0377026e-20
6.0373998e-20
6.0373535e-20
6.0375247e-20
6.0379634e-20
6.0388348e-20
6.0455996e-20
6.0417085e-20
6.0393998e-20
6.0380874e-20
6.0373998e-20
6.0370992e-20
6.0370554e-20
6.0372295e-20
6.0376714e-20
6.0385451e-20
6.0455315e-20
6.0416462e-20
6.0393444e-20
6.0380375e-20
6.0373535e-20
6.0370554e-20
6.0370134e-20
6.0371892e-20
6.0376327e-20
6.0385075e-20
6.0456604e-20
6.0417891e-20
6.0395009e-20
6.0382033e-20
6.0375247e-20
6.0372295e-20
6.0371892e-20
6.0373662e-20
6.0378106e-20
6.038686e-20
6.0460163e-20
6.0421823e-20
6.0399193e-20
6.0386353e-20
6.0379634e-20
6.0376714e-20
6.0376327e-20
6.0378106e-20
6.0382557e-20
6.0391319e-20
6.0467221e-20
6.0429975e-20
6.0407714e-20
6.0395011e-20
6.0388348e-20
6.0385451e-20
6.0385075e-20
6.038686e-20
6.0391319e-20
6.0400104e-20
1.267065e-19
1.266277e-19
1.2658074e-19
1.2655393e-19
1.2653976e-19
1.2653337e-19
1.2653198e-19
1.2653457e-19
1.2654169e-19
1.2655567e-19
1.266277e-19
1.2654917e-19
1.2650231e-19
1.2647555e-19
1.2646142e-19
1.2645509e-19
1.2645382e-19
1.264567e-19
1.2646458e-19
1.2648083e-19
1.2658074e-19
1.2650231e-19
1.2645552e-19
1.2642881e-19
1.2641473e-19
1.2640847e-19
1.2640734e-19
1.264105e-19
1.264189e-19
1.2643591e-19
1.2655393e-19
1.2647555e-19
1.2642881e-19
1.2640213e-19
1.2638809e-19
1.263819e-19
1.2638089e-19
1.2638424e-19
1.2639292e-19
1.2641021e-19
1.2653976e-19
1.2646142e-19
1.2641473e-19
1.2638809e-19
1.263741e-19
1.2636796e-19
1.2636702e-19
1.2637048e-19
1.2637931e-19
1.2639671e-19
1.2653337e-19
1.2645509e-19
1.2640847e-19
1.263819e-19
1.2636796e-19
1.2636187e-19
1.2636098e-19
1.263645e-19
1.2637339e-19
1.2639084e-19
1.2653198e-19
1.2645382e-19
1.2640734e-19
1.2638089e-19
1.2636702e-19
1.2636098e-19
1.2636013e-19
1.2636368e-19
1.2637261e-19
1.2639008e-19
1.2653457e-19
1.264567e-19
1.264105e-19
1.2638424e-19
1.2637048e-19
1.263645e-19
1.2636368e-19
1.2636726e-19
1.263762e-19
1.2639369e-19
1.2654169e-19
1.2646458e-19
1.264189e-19
1.2639292e-19
1.2637931e-19
1.2637339e-19
1.2637261e-19
1.263762e-19
1.2638516e-19
1.2640267e-19
1.2655567e-19
1.2648083e-19
1.2643591e-19
1.2641021e-19
1.2639671e-19
1.2639084e-19
1.2639008e-19
1.2639369e-19
1.2640267e-19
1.2642022e-19
2.6805887e-19
2.6789871e-19
2.6780292e-19
2.6774809e-19
2.6771909e-19
2.6770599e-19
2.6770313e-19
2.6770838e-19
2.6772275e-19
2.6775075e-19
2.6789871e-19
2.677391e-19
2.6764351e-19
2.6758878e-19
2.6755985e-19
2.6754687e-19
2.6754426e-19
2.6755011e-19
2.675661e-19
2.6759882e-19
2.6780292e-19
2.6764351e-19
2.6754806e-19
2.6749342e-19
2.6746459e-19
2.6745176e-19
2.6744945e-19
2.6745589e-19
2.6747296e-19
2.6750727e-19
2.6774809e-19
2.6758878e-19
2.6749342e-19
2.6743887e-19
2.6741013e-19
2.6739744e-19
2.6739536e-19
2.674022e-19
2.6741986e-19
2.6745476e-19
2.6771909e-19
2.6755985e-19
2.6746459e-19
2.6741013e-19
2.6738148e-19
2.673689e-19
2.6736698e-19
2.6737405e-19
2.6739199e-19
2.6742714e-19
2.6770599e-19
2.6754687e-19
2.6745176e-19
2.6739744e-19
2.673689e-19
2.6735641e-19
2.673546e-19
2.6736179e-19
2.6737987e-19
2.6741512e-19
2.6770313e-19
2.6754426e-19
2.6744945e-19
2.6739536e-19
2.6736698e-19
2.673546e-19
2.6735286e-19
2.6736013e-19
2.6737828e-19
2.6741357e-19
2.6770838e-19
2.6755011e-19
2.6745589e-19
2.674022e-19
2.6737405e-19
2.6736179e-19
2.6736013e-19
2.6736744e-19
2.6738563e-19
2.6742095e-19
2.6772275e-19
2.675661e-19
2.6747296e-19
2.6741986e-19
2.6739199e-19
2.6737987e-19
2.6737828e-19
2.6738563e-19
2.6740385e-19
2.674392e-19
2.6775075e-19
2.6759882e-19
2.6750727e-19
2.6745476e-19
2.6742714e-19
2.6741512e-19
2.6741357e-19
2.6742095e-19
2.674392e-19
2.6747464e-19
5.7324088e-19
5.7291203e-19
5.7271463e-19
5.7260138e-19
5.7254137e-19
5.7251426e-19
5.7250832e-19
5.7251908e-19
5.7254844e-19
5.7260508e-19
5.7291203e-19
5.725843e-19
5.7238731e-19
5.7227426e-19
5.7221441e-19
5.7218754e-19
5.7218213e-19
5.7219416e-19
5.7222692e-19
5.7229352e-19
5.7271463e-19
5.7238731e-19
5.721906e-19
5.7207775e-19
5.720181e-19
5.7199155e-19
5.7198676e-19
5.7200003e-19
5.7203508e-19
5.7210504e-19
5.7260138e-19
5.7227426e-19
5.7207775e-19
5.7196507e-19
5.7190562e-19
5.7187936e-19
5.7187506e-19
5.7188917e-19
5.7192545e-19
5.7199666e-19
5.7254137e-19
5.7221441e-19
5.720181e-19
5.7190562e-19
5.7184636e-19
5.7182033e-19
5.7181636e-19
5.7183096e-19
5.7186784e-19
5.7193956e-19
5.7251426e-19
5.7218754e-19
5.7199155e-19
5.7187936e-19
5.7182033e-19
5.7179449e-19
5.7179075e-19
5.7180561e-19
5.7184278e-19
5.7191472e-19
5.7250832e-19
5.7218213e-19
5.7198676e-19
5.7187506e-19
5.7181636e-19
5.7179075e-19
5.7178717e-19
5.7180218e-19
5.718395e-19
5.7191153e-19
5.7251908e-19
5.7219416e-19
5.7200003e-19
5.7188917e-19
5.7183096e-19
5.7180561e-19
5.7180218e-19
5.718173e-19
5.718547e-19
5.7192678e-19
5.7254844e-19
5.7222692e-19
5.7203508e-19
5.7192545e-19
5.7186784e-19
5.7184278e-19
5.718395e-19
5.718547e-19
5.7189216e-19
5.7196431e-19
5.7260508e-19
5.7229352e-19
5.7210504e-19
5.7199666e-19
5.7193956e-19
5.7191472e-19
5.7191153e-19
5.7192678e-19
5.7196431e-19
5.7203663e-19
1.2390883e-18
1.2384062e-18
1.2379953e-18
1.237759e-18
1.2376337e-18
1.237577e-18
1.2375645e-18
1.2375868e-18
1.2376474e-18
1.2377632e-18
1.2384062e-18
1.2377264e-18
1.2373164e-18
1.2370805e-18
1.2369555e-18
1.2368993e-18
1.236888e-18
1.236913e-18
1.2369808e-18
1.2371179e-18
1.2379953e-18
1.2373164e-18
1.2369069e-18
1.2366715e-18
1.2365469e-18
1.2364914e-18
1.2364814e-18
1.236509e-18
1.2365817e-18
1.2367259e-18
1.237759e-18
1.2370805e-18
1.2366715e-18
1.2364364e-18
1.2363122e-18
1.2362573e-18
1.2362484e-18
1.2362778e-18
1.2363531e-18
1.2365e-18
1.2376337e-18
1.2369555e-18
1.2365469e-18
1.2363122e-18
1.2361884e-18
1.236134e-18
1.2361257e-18
1.2361562e-18
1.2362328e-18
1.2363808e-18
1.237577e-18
1.2368993e-18
1.2364914e-18
1.2362573e-18
1.236134e-18
1.23608e-18
1.2360722e-18
1.2361033e-18
1.2361805e-18
1.2363289e-18
1.2375645e-18
1.236888e-18
1.2364814e-18
1.2362484e-18
1.2361257e-18
1.2360722e-18
1.2360648e-18
1.2360962e-18
1.2361737e-18
1.2363223e-18
1.2375868e-18
1.236913e-18
1.236509e-18
1.2362778e-18
1.2361562e-18
1.2361033e-18
1.2360962e-18
1.2361277e-18
1.2362055e-18
1.2363542e-18
1.2376474e-18
1.2369808e-18
1.2365817e-18
1.2363531e-18
1.2362328e-18
1.2361805e-18
1.2361737e-18
1.2362055e-18
1.2362833e-18
1.2364321e-18
1.2377632e-18
1.2371179e-18
1.2367259e-18
1.2365e-18
1.2363808e-18
1.2363289e-18
1.2363223e-18