/*--------------------------------*- C++ -*----------------------------------*\
| =========                 |                                                 |
| \\      /  F ield         | OpenFOAM: The Open Source CFD Toolbox           |
|  \\    /   O peration     | Version:  dev                                   |
|   \\  /    A nd           | Web:      www.OpenFOAM.org                      |
|    \\/     M anipulation  |                                                 |
\*---------------------------------------------------------------------------*/
FoamFile
{
    version     2.0;
    format      ascii;
    class       volScalarField;
    location    "86.995";
    object      A;
}
// * * * * * * * * * * * * * * * * * * * * * * * * * * * * * * * * * * * * * //

dimensions      [0 0 0 0 1 0 0];

internalField   nonuniform List<scalar> 
10000
(
5.0417434e-23
5.0368817e-23
5.0342105e-23
5.0326859e-23
5.0318565e-23
5.0314648e-23
5.031375e-23
5.0315525e-23
5.0320744e-23
5.0331077e-23
5.0368817e-23
5.0320389e-23
5.0293743e-23
5.0278529e-23
5.0270258e-23
5.026637e-23
5.0265524e-23
5.0267419e-23
5.0272942e-23
5.0284141e-23
5.0342105e-23
5.0293743e-23
5.0267139e-23
5.0251954e-23
5.024371e-23
5.0239858e-23
5.0239077e-23
5.0241092e-23
5.0246828e-23
5.0258328e-23
5.0326859e-23
5.0278529e-23
5.0251954e-23
5.0236794e-23
5.0228576e-23
5.0224759e-23
5.0224032e-23
5.0226133e-23
5.0231987e-23
5.0243603e-23
5.0318565e-23
5.0270258e-23
5.024371e-23
5.0228576e-23
5.0220384e-23
5.0216597e-23
5.0215909e-23
5.0218062e-23
5.0223978e-23
5.0235644e-23
5.0314648e-23
5.026637e-23
5.0239858e-23
5.0224759e-23
5.0216597e-23
5.0212836e-23
5.0212177e-23
5.0214362e-23
5.022031e-23
5.0231997e-23
5.031375e-23
5.0265524e-23
5.0239077e-23
5.0224032e-23
5.0215909e-23
5.0212177e-23
5.0211539e-23
5.0213745e-23
5.021971e-23
5.0231409e-23
5.0315525e-23
5.0267419e-23
5.0241092e-23
5.0226133e-23
5.0218062e-23
5.0214362e-23
5.0213745e-23
5.0215964e-23
5.0221942e-23
5.0233649e-23
5.0320744e-23
5.0272942e-23
5.0246828e-23
5.0231987e-23
5.0223978e-23
5.022031e-23
5.021971e-23
5.0221942e-23
5.0227931e-23
5.0239651e-23
5.0331077e-23
5.0284141e-23
5.0258328e-23
5.0243603e-23
5.0235644e-23
5.0231997e-23
5.0231409e-23
5.0233649e-23
5.0239651e-23
5.0251403e-23
1.6632088e-22
1.6616673e-22
1.6607953e-22
1.6602964e-22
1.6600248e-22
1.6598965e-22
1.6598669e-22
1.6599248e-22
1.6600954e-22
1.6604452e-22
1.6616673e-22
1.6601315e-22
1.6592617e-22
1.6587638e-22
1.658493e-22
1.6583656e-22
1.6583378e-22
1.6583996e-22
1.6585802e-22
1.6589587e-22
1.6607953e-22
1.6592617e-22
1.6583932e-22
1.6578963e-22
1.6576263e-22
1.6575001e-22
1.6574745e-22
1.6575402e-22
1.6577278e-22
1.6581162e-22
1.6602964e-22
1.6587638e-22
1.6578963e-22
1.6574002e-22
1.6571311e-22
1.6570061e-22
1.6569822e-22
1.6570507e-22
1.6572422e-22
1.6576345e-22
1.6600248e-22
1.658493e-22
1.6576263e-22
1.6571311e-22
1.6568629e-22
1.6567388e-22
1.6567162e-22
1.6567865e-22
1.65698e-22
1.6573739e-22
1.6598965e-22
1.6583656e-22
1.6575001e-22
1.6570061e-22
1.6567388e-22
1.6566156e-22
1.6565939e-22
1.6566652e-22
1.6568598e-22
1.6572544e-22
1.6598669e-22
1.6583378e-22
1.6574745e-22
1.6569822e-22
1.6567162e-22
1.6565939e-22
1.6565729e-22
1.6566449e-22
1.6568401e-22
1.6572351e-22
1.6599248e-22
1.6583996e-22
1.6575402e-22
1.6570507e-22
1.6567865e-22
1.6566652e-22
1.6566449e-22
1.6567174e-22
1.656913e-22
1.6573082e-22
1.6600954e-22
1.6585802e-22
1.6577278e-22
1.6572422e-22
1.65698e-22
1.6568598e-22
1.6568401e-22
1.656913e-22
1.657109e-22
1.6575046e-22
1.6604452e-22
1.6589587e-22
1.6581162e-22
1.6576345e-22
1.6573739e-22
1.6572544e-22
1.6572351e-22
1.6573082e-22
1.6575046e-22
1.6579014e-22
3.3292428e-22
3.3262599e-22
3.3245463e-22
3.3235629e-22
3.3230267e-22
3.3227731e-22
3.3227143e-22
3.3228274e-22
3.3231623e-22
3.3238713e-22
3.3262599e-22
3.323288e-22
3.3215785e-22
3.3205971e-22
3.3200625e-22
3.3198107e-22
3.3197553e-22
3.3198763e-22
3.3202312e-22
3.3209975e-22
3.3245463e-22
3.3215785e-22
3.3198717e-22
3.3188922e-22
3.3183593e-22
3.3181099e-22
3.3180588e-22
3.3181876e-22
3.3185565e-22
3.3193425e-22
3.3235629e-22
3.3205971e-22
3.3188922e-22
3.3179143e-22
3.317383e-22
3.3171359e-22
3.3170884e-22
3.3172228e-22
3.3175994e-22
3.3183931e-22
3.3230267e-22
3.3200625e-22
3.3183593e-22
3.317383e-22
3.3168535e-22
3.3166083e-22
3.3165633e-22
3.3167012e-22
3.3170819e-22
3.3178788e-22
3.3227731e-22
3.3198107e-22
3.3181099e-22
3.3171359e-22
3.3166083e-22
3.3163649e-22
3.3163217e-22
3.3164617e-22
3.3168445e-22
3.3176428e-22
3.3227143e-22
3.3197553e-22
3.3180588e-22
3.3170884e-22
3.3165633e-22
3.3163217e-22
3.31628e-22
3.3164213e-22
3.3168053e-22
3.3176043e-22
3.3228274e-22
3.3198763e-22
3.3181876e-22
3.3172228e-22
3.3167012e-22
3.3164617e-22
3.3164213e-22
3.3165636e-22
3.3169483e-22
3.3177479e-22
3.3231623e-22
3.3202312e-22
3.3185565e-22
3.3175994e-22
3.3170819e-22
3.3168445e-22
3.3168053e-22
3.3169483e-22
3.3173337e-22
3.3181342e-22
3.3238713e-22
3.3209975e-22
3.3193425e-22
3.3183931e-22
3.3178788e-22
3.3176428e-22
3.3176043e-22
3.3177479e-22
3.3181342e-22
3.318937e-22
6.033964e-22
6.0287358e-22
6.0257029e-22
6.0239567e-22
6.0230031e-22
6.0225512e-22
6.0224455e-22
6.0226442e-22
6.0232336e-22
6.0244959e-22
6.0287358e-22
6.0235268e-22
6.0205011e-22
6.0187584e-22
6.0178073e-22
6.0173588e-22
6.0172593e-22
6.0174721e-22
6.0180976e-22
6.0194635e-22
6.0257029e-22
6.0205011e-22
6.0174802e-22
6.0157408e-22
6.0147928e-22
6.0143486e-22
6.0142567e-22
6.0144837e-22
6.0151343e-22
6.0165358e-22
6.0239567e-22
6.0187584e-22
6.0157408e-22
6.0140042e-22
6.0130593e-22
6.0126192e-22
6.0125337e-22
6.0127707e-22
6.0134354e-22
6.0148506e-22
6.0230031e-22
6.0178073e-22
6.0147928e-22
6.0130593e-22
6.0121174e-22
6.0116808e-22
6.0115999e-22
6.0118431e-22
6.0125151e-22
6.0139362e-22
6.0225512e-22
6.0173588e-22
6.0143486e-22
6.0126192e-22
6.0116808e-22
6.0112473e-22
6.0111697e-22
6.0114167e-22
6.0120925e-22
6.0135161e-22
6.0224455e-22
6.0172593e-22
6.0142567e-22
6.0125337e-22
6.0115999e-22
6.0111697e-22
6.0110948e-22
6.0113441e-22
6.012022e-22
6.0134469e-22
6.0226442e-22
6.0174721e-22
6.0144837e-22
6.0127707e-22
6.0118431e-22
6.0114167e-22
6.0113441e-22
6.0115951e-22
6.0122744e-22
6.0137003e-22
6.0232336e-22
6.0180976e-22
6.0151343e-22
6.0134354e-22
6.0125151e-22
6.0120925e-22
6.012022e-22
6.0122744e-22
6.0129549e-22
6.0143823e-22
6.0244959e-22
6.0194635e-22
6.0165358e-22
6.0148506e-22
6.0139362e-22
6.0135161e-22
6.0134469e-22
6.0137003e-22
6.0143823e-22
6.015814e-22
1.0683256e-21
1.0674307e-21
1.066908e-21
1.0666061e-21
1.0664409e-21
1.0663625e-21
1.066344e-21
1.0663779e-21
1.0664785e-21
1.0666942e-21
1.0674307e-21
1.0665391e-21
1.0660176e-21
1.0657163e-21
1.0655515e-21
1.0654737e-21
1.0654563e-21
1.0654926e-21
1.0655996e-21
1.0658336e-21
1.066908e-21
1.0660176e-21
1.065497e-21
1.0651962e-21
1.065032e-21
1.0649549e-21
1.0649388e-21
1.0649777e-21
1.0650891e-21
1.0653293e-21
1.0666061e-21
1.0657163e-21
1.0651962e-21
1.0648959e-21
1.0647322e-21
1.0646559e-21
1.0646409e-21
1.0646815e-21
1.0647954e-21
1.0650381e-21
1.0664409e-21
1.0655515e-21
1.065032e-21
1.0647322e-21
1.0645691e-21
1.0644933e-21
1.0644792e-21
1.0645209e-21
1.0646361e-21
1.0648798e-21
1.0663625e-21
1.0654737e-21
1.0649549e-21
1.0646559e-21
1.0644933e-21
1.0644181e-21
1.0644046e-21
1.0644469e-21
1.0645628e-21
1.0648069e-21
1.066344e-21
1.0654563e-21
1.0649388e-21
1.0646409e-21
1.0644792e-21
1.0644046e-21
1.0643914e-21
1.0644342e-21
1.0645504e-21
1.0647948e-21
1.0663779e-21
1.0654926e-21
1.0649777e-21
1.0646815e-21
1.0645209e-21
1.0644469e-21
1.0644342e-21
1.0644773e-21
1.0645937e-21
1.0648383e-21
1.0664785e-21
1.0655996e-21
1.0650891e-21
1.0647954e-21
1.0646361e-21
1.0645628e-21
1.0645504e-21
1.0645937e-21
1.0647104e-21
1.0649552e-21
1.0666942e-21
1.0658336e-21
1.0653293e-21
1.0650381e-21
1.0648798e-21
1.0648069e-21
1.0647948e-21
1.0648383e-21
1.0649552e-21
1.0652008e-21
1.8894907e-21
1.8879612e-21
1.8870629e-21
1.8865424e-21
1.886257e-21
1.8861214e-21
1.886089e-21
1.8861465e-21
1.8863175e-21
1.8866825e-21
1.8879612e-21
1.8864371e-21
1.8855409e-21
1.8850214e-21
1.8847368e-21
1.8846022e-21
1.8845717e-21
1.8846336e-21
1.8848158e-21
1.8852129e-21
1.8870629e-21
1.8855409e-21
1.8846461e-21
1.8841276e-21
1.883844e-21
1.8837106e-21
1.8836825e-21
1.8837487e-21
1.8839387e-21
1.8843468e-21
1.8865424e-21
1.8850214e-21
1.8841276e-21
1.88361e-21
1.8833272e-21
1.8831951e-21
1.883169e-21
1.8832383e-21
1.8834326e-21
1.883845e-21
1.886257e-21
1.8847368e-21
1.883844e-21
1.8833272e-21
1.8830454e-21
1.8829144e-21
1.8828896e-21
1.8829609e-21
1.8831574e-21
1.8835716e-21
1.8861214e-21
1.8846022e-21
1.8837106e-21
1.8831951e-21
1.8829144e-21
1.8827843e-21
1.8827606e-21
1.882833e-21
1.8830307e-21
1.8834457e-21
1.886089e-21
1.8845717e-21
1.8836825e-21
1.883169e-21
1.8828896e-21
1.8827606e-21
1.8827376e-21
1.8828108e-21
1.8830091e-21
1.8834245e-21
1.8861465e-21
1.8846336e-21
1.8837487e-21
1.8832383e-21
1.8829609e-21
1.882833e-21
1.8828108e-21
1.8828845e-21
1.8830832e-21
1.8834989e-21
1.8863175e-21
1.8848158e-21
1.8839387e-21
1.8834326e-21
1.8831574e-21
1.8830307e-21
1.8830091e-21
1.8830832e-21
1.8832823e-21
1.8836984e-21
1.8866825e-21
1.8852129e-21
1.8843468e-21
1.883845e-21
1.8835716e-21
1.8834457e-21
1.8834245e-21
1.8834989e-21
1.8836984e-21
1.8841158e-21
3.3626388e-21
3.3600093e-21
3.3584576e-21
3.3575557e-21
3.3570603e-21
3.3568243e-21
3.3567674e-21
3.3568656e-21
3.3571573e-21
3.3577759e-21
3.3600093e-21
3.3573892e-21
3.3558411e-21
3.3549409e-21
3.3544468e-21
3.3542126e-21
3.354159e-21
3.3542649e-21
3.3545764e-21
3.355252e-21
3.3584576e-21
3.3558411e-21
3.3542953e-21
3.3533969e-21
3.3529044e-21
3.3526725e-21
3.3526231e-21
3.3527366e-21
3.3530618e-21
3.3537568e-21
3.3575557e-21
3.3549409e-21
3.3533969e-21
3.3524999e-21
3.3520091e-21
3.3517794e-21
3.3517334e-21
3.3518524e-21
3.3521852e-21
3.3528877e-21
3.3570603e-21
3.3544468e-21
3.3529044e-21
3.3520091e-21
3.3515198e-21
3.351292e-21
3.3512485e-21
3.3513709e-21
3.3517077e-21
3.3524134e-21
3.3568243e-21
3.3542126e-21
3.3526725e-21
3.3517794e-21
3.351292e-21
3.3510659e-21
3.3510242e-21
3.3511486e-21
3.3514874e-21
3.3521946e-21
3.3567674e-21
3.354159e-21
3.3526231e-21
3.3517334e-21
3.3512485e-21
3.3510242e-21
3.3509839e-21
3.3511096e-21
3.3514495e-21
3.3521574e-21
3.3568656e-21
3.3542649e-21
3.3527366e-21
3.3518524e-21
3.3513709e-21
3.3511486e-21
3.3511096e-21
3.3512362e-21
3.3515769e-21
3.3522852e-21
3.3571573e-21
3.3545764e-21
3.3530618e-21
3.3521852e-21
3.3517077e-21
3.3514874e-21
3.3514495e-21
3.3515769e-21
3.3519182e-21
3.3526273e-21
3.3577759e-21
3.355252e-21
3.3537568e-21
3.3528877e-21
3.3524134e-21
3.3521946e-21
3.3521574e-21
3.3522852e-21
3.3526273e-21
3.3533385e-21
6.0361807e-21
6.0316231e-21
6.0289214e-21
6.0273463e-21
6.0264793e-21
6.0260657e-21
6.0259649e-21
6.0261337e-21
6.0266351e-21
6.0276908e-21
6.0316231e-21
6.0270818e-21
6.0243861e-21
6.022814e-21
6.0219494e-21
6.0215389e-21
6.0214441e-21
6.0216266e-21
6.0221631e-21
6.0233203e-21
6.0289214e-21
6.0243861e-21
6.0216946e-21
6.0201254e-21
6.0192637e-21
6.0188573e-21
6.0187698e-21
6.018966e-21
6.0195269e-21
6.0207188e-21
6.0273463e-21
6.022814e-21
6.0201254e-21
6.018559e-21
6.0177001e-21
6.0172976e-21
6.0172162e-21
6.0174221e-21
6.0179965e-21
6.0192019e-21
6.0264793e-21
6.0219494e-21
6.0192637e-21
6.0177001e-21
6.016844e-21
6.0164448e-21
6.0163679e-21
6.0165798e-21
6.0171613e-21
6.0183722e-21
6.0260657e-21
6.0215389e-21
6.0188573e-21
6.0172976e-21
6.0164448e-21
6.0160486e-21
6.0159749e-21
6.0161904e-21
6.0167755e-21
6.017989e-21
6.0259649e-21
6.0214441e-21
6.0187698e-21
6.0172162e-21
6.0163679e-21
6.0159749e-21
6.0159037e-21
6.0161214e-21
6.0167086e-21
6.0179233e-21
6.0261337e-21
6.0216266e-21
6.018966e-21
6.0174221e-21
6.0165798e-21
6.0161904e-21
6.0161214e-21
6.0163407e-21
6.0169292e-21
6.0181448e-21
6.0266351e-21
6.0221631e-21
6.0195269e-21
6.0179965e-21
6.0171613e-21
6.0167755e-21
6.0167086e-21
6.0169292e-21
6.0175188e-21
6.0187357e-21
6.0276908e-21
6.0233203e-21
6.0207188e-21
6.0192019e-21
6.0183722e-21
6.017989e-21
6.0179233e-21
6.0181448e-21
6.0187357e-21
6.0199561e-21
1.0938279e-20
1.0930308e-20
1.0925562e-20
1.0922787e-20
1.0921256e-20
1.0920525e-20
1.0920345e-20
1.0920638e-20
1.0921507e-20
1.0923324e-20
1.0930308e-20
1.0922365e-20
1.091763e-20
1.091486e-20
1.0913333e-20
1.0912607e-20
1.0912438e-20
1.0912756e-20
1.0913688e-20
1.0915688e-20
1.0925562e-20
1.091763e-20
1.0912901e-20
1.0910136e-20
1.0908615e-20
1.0907896e-20
1.090774e-20
1.0908082e-20
1.0909059e-20
1.0911121e-20
1.0922787e-20
1.091486e-20
1.0910136e-20
1.0907376e-20
1.090586e-20
1.0905148e-20
1.0905003e-20
1.0905363e-20
1.0906363e-20
1.0908449e-20
1.0921256e-20
1.0913333e-20
1.0908615e-20
1.090586e-20
1.0904349e-20
1.0903643e-20
1.0903506e-20
1.0903876e-20
1.090489e-20
1.0906986e-20
1.0920525e-20
1.0912607e-20
1.0907896e-20
1.0905148e-20
1.0903643e-20
1.0902943e-20
1.0902812e-20
1.0903188e-20
1.0904208e-20
1.0906309e-20
1.0920345e-20
1.0912438e-20
1.090774e-20
1.0905003e-20
1.0903506e-20
1.0902812e-20
1.0902685e-20
1.0903065e-20
1.0904089e-20
1.0906191e-20
1.0920638e-20
1.0912756e-20
1.0908082e-20
1.0905363e-20
1.0903876e-20
1.0903188e-20
1.0903065e-20
1.0903449e-20
1.0904474e-20
1.0906579e-20
1.0921507e-20
1.0913688e-20
1.0909059e-20
1.0906363e-20
1.090489e-20
1.0904208e-20
1.0904089e-20
1.0904474e-20
1.0905502e-20
1.0907609e-20
1.0923324e-20
1.0915688e-20
1.0911121e-20
1.0908449e-20
1.0906986e-20
1.0906309e-20
1.0906191e-20
1.0906579e-20
1.0907609e-20
1.0909721e-20
2.001569e-20
2.0001619e-20
1.9993203e-20
1.9988268e-20
1.9985542e-20
1.9984236e-20
1.9983912e-20
1.9984425e-20
1.9985947e-20
1.9989102e-20
2.0001619e-20
1.9987597e-20
1.99792e-20
1.9974274e-20
1.9971555e-20
1.9970259e-20
1.9969955e-20
1.9970512e-20
1.9972148e-20
1.9975635e-20
1.9993203e-20
1.99792e-20
1.9970816e-20
1.9965899e-20
1.9963189e-20
1.9961907e-20
1.9961626e-20
1.9962228e-20
1.9963943e-20
1.9967543e-20
1.9988268e-20
1.9974274e-20
1.9965899e-20
1.9960991e-20
1.995829e-20
1.995702e-20
1.9956759e-20
1.9957393e-20
1.9959152e-20
1.9962796e-20
1.9985542e-20
1.9971555e-20
1.9963189e-20
1.995829e-20
1.9955598e-20
1.9954339e-20
1.9954092e-20
1.9954745e-20
1.9956527e-20
1.996019e-20
1.9984236e-20
1.9970259e-20
1.9961907e-20
1.995702e-20
1.9954339e-20
1.995309e-20
1.9952853e-20
1.9953518e-20
1.9955312e-20
1.9958983e-20
1.9983912e-20
1.9969955e-20
1.9961626e-20
1.9956759e-20
1.9954092e-20
1.9952853e-20
1.9952625e-20
1.9953297e-20
1.9955098e-20
1.9958772e-20
1.9984425e-20
1.9970512e-20
1.9962228e-20
1.9957393e-20
1.9954745e-20
1.9953518e-20
1.9953297e-20
1.9953974e-20
1.9955779e-20
1.9959456e-20
1.9985947e-20
1.9972148e-20
1.9963943e-20
1.9959152e-20
1.9956527e-20
1.9955312e-20
1.9955098e-20
1.9955779e-20
1.9957587e-20
1.9961269e-20
1.9989102e-20
1.9975635e-20
1.9967543e-20
1.9962796e-20
1.996019e-20
1.9958983e-20
1.9958772e-20
1.9959456e-20
1.9961269e-20
1.9964961e-20
3.6989822e-20
3.6964746e-20
3.6949685e-20
3.6940827e-20
3.6935923e-20
3.6933572e-20
3.6932983e-20
3.693389e-20
3.6936578e-20
3.6942111e-20
3.6964746e-20
3.6939757e-20
3.6924728e-20
3.6915887e-20
3.6910996e-20
3.6908663e-20
3.690811e-20
3.6909098e-20
3.6911996e-20
3.6918137e-20
3.6949685e-20
3.6924728e-20
3.6909722e-20
3.6900897e-20
3.6896023e-20
3.6893714e-20
3.6893204e-20
3.6894274e-20
3.6897317e-20
3.6903665e-20
3.6940827e-20
3.6915887e-20
3.6900897e-20
3.6892087e-20
3.688723e-20
3.6884944e-20
3.688447e-20
3.6885598e-20
3.6888721e-20
3.6895149e-20
3.6935923e-20
3.6910996e-20
3.6896023e-20
3.688723e-20
3.6882389e-20
3.6880123e-20
3.6879675e-20
3.6880838e-20
3.6884004e-20
3.6890465e-20
3.6933572e-20
3.6908663e-20
3.6893714e-20
3.6884944e-20
3.6880123e-20
3.6877874e-20
3.6877445e-20
3.6878629e-20
3.6881817e-20
3.6888293e-20
3.6932983e-20
3.690811e-20
3.6893204e-20
3.688447e-20
3.6879675e-20
3.6877445e-20
3.6877032e-20
3.6878229e-20
3.6881428e-20
3.6887912e-20
3.693389e-20
3.6909098e-20
3.6894274e-20
3.6885598e-20
3.6880838e-20
3.6878629e-20
3.6878229e-20
3.6879436e-20
3.6882643e-20
3.6889132e-20
3.6936578e-20
3.6911996e-20
3.6897317e-20
3.6888721e-20
3.6884004e-20
3.6881817e-20
3.6881428e-20
3.6882643e-20
3.6885856e-20
3.6892352e-20
3.6942111e-20
3.6918137e-20
3.6903665e-20
3.6895149e-20
3.6890465e-20
3.6888293e-20
3.6887912e-20
3.6889132e-20
3.6892352e-20
3.6898866e-20
6.9042104e-20
6.899699e-20
6.8969777e-20
6.8953728e-20
6.8944826e-20
6.8940552e-20
6.8939473e-20
6.8941093e-20
6.8945889e-20
6.8955682e-20
6.899699e-20
6.8952032e-20
6.8924878e-20
6.8908858e-20
6.889998e-20
6.8895739e-20
6.8894725e-20
6.8896495e-20
6.890168e-20
6.8912598e-20
6.8969777e-20
6.8924878e-20
6.8897764e-20
6.8881774e-20
6.8872927e-20
6.886873e-20
6.8867796e-20
6.8869717e-20
6.8875169e-20
6.8886471e-20
6.8953728e-20
6.8908858e-20
6.8881774e-20
6.8865812e-20
6.8856995e-20
6.885284e-20
6.8851974e-20
6.8854e-20
6.8859601e-20
6.8871051e-20
6.8944826e-20
6.889998e-20
6.8872927e-20
6.8856995e-20
6.8848209e-20
6.884409e-20
6.8843272e-20
6.8845363e-20
6.8851042e-20
6.8862554e-20
6.8940552e-20
6.8895739e-20
6.886873e-20
6.885284e-20
6.884409e-20
6.8840004e-20
6.883922e-20
6.8841351e-20
6.884707e-20
6.8858609e-20
6.8939473e-20
6.8894725e-20
6.8867796e-20
6.8851974e-20
6.8843272e-20
6.883922e-20
6.8838464e-20
6.8840619e-20
6.884636e-20
6.8857913e-20
6.8941093e-20
6.8896495e-20
6.8869717e-20
6.8854e-20
6.8845363e-20
6.8841351e-20
6.8840619e-20
6.8842792e-20
6.8848547e-20
6.8860109e-20
6.8945889e-20
6.890168e-20
6.8875169e-20
6.8859601e-20
6.8851042e-20
6.884707e-20
6.884636e-20
6.8848547e-20
6.8854313e-20
6.8865887e-20
6.8955682e-20
6.8912598e-20
6.8886471e-20
6.8871051e-20
6.8862554e-20
6.8858609e-20
6.8857913e-20
6.8860109e-20
6.8865887e-20
6.8877493e-20
1.3016253e-19
1.3008059e-19
1.3003095e-19
1.300016e-19
1.2998529e-19
1.2997744e-19
1.2997545e-19
1.2997837e-19
1.2998701e-19
1.3000451e-19
1.3008059e-19
1.2999893e-19
1.299494e-19
1.299201e-19
1.2990383e-19
1.2989605e-19
1.2989417e-19
1.2989738e-19
1.2990674e-19
1.2992635e-19
1.3003095e-19
1.299494e-19
1.2989995e-19
1.298707e-19
1.2985449e-19
1.2984679e-19
1.2984506e-19
1.2984854e-19
1.2985841e-19
1.2987873e-19
1.300016e-19
1.299201e-19
1.298707e-19
1.298415e-19
1.2982535e-19
1.2981773e-19
1.2981613e-19
1.298198e-19
1.2982995e-19
1.2985054e-19
1.2998529e-19
1.2990383e-19
1.2985449e-19
1.2982535e-19
1.2980925e-19
1.2980169e-19
1.2980018e-19
1.2980398e-19
1.2981427e-19
1.2983498e-19
1.2997744e-19
1.2989605e-19
1.2984679e-19
1.2981773e-19
1.2980169e-19
1.297942e-19
1.2979275e-19
1.2979663e-19
1.2980699e-19
1.2982775e-19
1.2997545e-19
1.2989417e-19
1.2984506e-19
1.2981613e-19
1.2980018e-19
1.2979275e-19
1.2979136e-19
1.2979528e-19
1.2980568e-19
1.2982647e-19
1.2997837e-19
1.2989738e-19
1.2984854e-19
1.298198e-19
1.2980398e-19
1.2979663e-19
1.2979528e-19
1.2979923e-19
1.2980966e-19
1.2983046e-19
1.2998701e-19
1.2990674e-19
1.2985841e-19
1.2982995e-19
1.2981427e-19
1.2980699e-19
1.2980568e-19
1.2980966e-19
1.2982011e-19
1.2984093e-19
1.3000451e-19
1.2992635e-19
1.2987873e-19
1.2985054e-19
1.2983498e-19
1.2982775e-19
1.2982647e-19
1.2983046e-19
1.2984093e-19
1.2986182e-19
2.4786367e-19
2.4771341e-19
2.4762202e-19
2.4756782e-19
2.4753765e-19
2.4752311e-19
2.4751939e-19
2.4752472e-19
2.4754044e-19
2.4757202e-19
2.4771341e-19
2.4756367e-19
2.4747247e-19
2.4741837e-19
2.4738827e-19
2.4737386e-19
2.4737037e-19
2.4737622e-19
2.473933e-19
2.4742885e-19
2.4762202e-19
2.4747247e-19
2.473814e-19
2.473274e-19
2.4729741e-19
2.4728315e-19
2.4727994e-19
2.4728632e-19
2.4730434e-19
2.4734124e-19
2.4756782e-19
2.4741837e-19
2.473274e-19
2.4727349e-19
2.4724361e-19
2.472295e-19
2.4722652e-19
2.4723327e-19
2.4725181e-19
2.4728923e-19
2.4753765e-19
2.4738827e-19
2.4729741e-19
2.4724361e-19
2.4721384e-19
2.4719985e-19
2.4719704e-19
2.4720401e-19
2.4722283e-19
2.4726047e-19
2.4752311e-19
2.4737386e-19
2.4728315e-19
2.472295e-19
2.4719985e-19
2.4718597e-19
2.4718328e-19
2.471904e-19
2.4720936e-19
2.4724709e-19
2.4751939e-19
2.4737037e-19
2.4727994e-19
2.4722652e-19
2.4719704e-19
2.4718328e-19
2.4718069e-19
2.4718789e-19
2.4720693e-19
2.4724471e-19
2.4752472e-19
2.4737622e-19
2.4728632e-19
2.4723327e-19
2.4720401e-19
2.471904e-19
2.4718789e-19
2.4719515e-19
2.4721423e-19
2.4725205e-19
2.4754044e-19
2.473933e-19
2.4730434e-19
2.4725181e-19
2.4722283e-19
2.4720936e-19
2.4720693e-19
2.4721423e-19
2.4723336e-19
2.4727121e-19
2.4757202e-19
2.4742885e-19
2.4734124e-19
2.4728923e-19
2.4726047e-19
2.4724709e-19
2.4724471e-19
2.4725205e-19
2.4727121e-19
2.4730916e-19
4.7676605e-19
4.7648788e-19
4.7631799e-19
4.7621696e-19
4.7616062e-19
4.7613345e-19
4.7612645e-19
4.7613624e-19
4.7616512e-19
4.7622268e-19
4.7648788e-19
4.7621066e-19
4.7604112e-19
4.7594027e-19
4.7588408e-19
4.7585713e-19
4.7585056e-19
4.7586135e-19
4.7589283e-19
4.7595794e-19
4.7631799e-19
4.7604112e-19
4.7587183e-19
4.7577117e-19
4.7571518e-19
4.7568852e-19
4.7568248e-19
4.7569427e-19
4.7572754e-19
4.7579521e-19
4.7621696e-19
4.7594027e-19
4.7577117e-19
4.7567069e-19
4.7561489e-19
4.7558851e-19
4.7558292e-19
4.7559542e-19
4.7562968e-19
4.7569833e-19
4.7616062e-19
4.7588408e-19
4.7571518e-19
4.7561489e-19
4.755593e-19
4.7553316e-19
4.7552788e-19
4.7554082e-19
4.7557559e-19
4.7564467e-19
4.7613345e-19
4.7585713e-19
4.7568852e-19
4.7558851e-19
4.7553316e-19
4.7550723e-19
4.7550219e-19
4.7551538e-19
4.7555042e-19
4.7561968e-19
4.7612645e-19
4.7585056e-19
4.7568248e-19
4.7558292e-19
4.7552788e-19
4.7550219e-19
4.7549732e-19
4.7551068e-19
4.7554587e-19
4.7561521e-19
4.7613624e-19
4.7586135e-19
4.7569427e-19
4.7559542e-19
4.7554082e-19
4.7551538e-19
4.7551068e-19
4.7552415e-19
4.7555943e-19
4.7562883e-19
4.7616512e-19
4.7589283e-19
4.7572754e-19
4.7562968e-19
4.7557559e-19
4.7555042e-19
4.7554587e-19
4.7555943e-19
4.7559478e-19
4.7566426e-19
4.7622268e-19
4.7595794e-19
4.7579521e-19
4.7569833e-19
4.7564467e-19
4.7561968e-19
4.7561521e-19
4.7562883e-19
4.7566426e-19
4.7573392e-19
9.2633905e-19
9.2581914e-19
9.2550031e-19
9.253102e-19
9.25204e-19
9.2515272e-19
9.2513943e-19
9.2515762e-19
9.2521122e-19
9.2531714e-19
9.2581914e-19
9.2530097e-19
9.249828e-19
9.2479303e-19
9.2468712e-19
9.2463625e-19
9.2462379e-19
9.2464391e-19
9.2470248e-19
9.2482291e-19
9.2550031e-19
9.249828e-19
9.246651e-19
9.2447569e-19
9.2437014e-19
9.2431984e-19
9.2430839e-19
9.2433043e-19
9.2439244e-19
9.2451779e-19
9.253102e-19
9.2479303e-19
9.2447569e-19
9.2428661e-19
9.2418145e-19
9.2413167e-19
9.2412108e-19
9.2414446e-19
9.2420838e-19
9.2433562e-19
9.25204e-19
9.2468712e-19
9.2437014e-19
9.2418145e-19
9.2407667e-19
9.2402735e-19
9.2401737e-19
9.2404159e-19
9.2410649e-19
9.2423453e-19
9.2515272e-19
9.2463625e-19
9.2431984e-19
9.2413167e-19
9.2402735e-19
9.2397845e-19
9.239689e-19
9.2399362e-19
9.2405904e-19
9.2418743e-19
9.2513943e-19
9.2462379e-19
9.2430839e-19
9.2412108e-19
9.2401737e-19
9.239689e-19
9.239597e-19
9.2398474e-19
9.2405042e-19
9.2417899e-19
9.2515762e-19
9.2464391e-19
9.2433043e-19
9.2414446e-19
9.2404159e-19
9.2399362e-19
9.2398474e-19
9.2400999e-19
9.2407585e-19
9.2420453e-19
9.2521122e-19
9.2470248e-19
9.2439244e-19
9.2420838e-19
9.2410649e-19
9.2405904e-19
9.2405042e-19
9.2407585e-19
9.2414185e-19
9.2427066e-19
9.2531714e-19
9.2482291e-19
9.2451779e-19
9.2433562e-19
9.2423453e-19
9.2418743e-19
9.2417899e-19
9.2420453e-19
9.2427066e-19
9.2439981e-19
1.8180648e-18
1.8170838e-18
1.8164798e-18
1.8161186e-18
1.8159166e-18
1.8158189e-18
1.8157934e-18
1.8158276e-18
1.815928e-18
1.8161248e-18
1.8170838e-18
1.816106e-18
1.8155032e-18
1.8151427e-18
1.8149412e-18
1.8148443e-18
1.8148204e-18
1.8148583e-18
1.8149684e-18
1.8151934e-18
1.8164798e-18
1.8155032e-18
1.8149013e-18
1.8145415e-18
1.8143407e-18
1.8142449e-18
1.814223e-18
1.8142646e-18
1.8143813e-18
1.8146158e-18
1.8161186e-18
1.8151427e-18
1.8145415e-18
1.8141823e-18
1.8139822e-18
1.8138875e-18
1.8138672e-18
1.8139114e-18
1.8140318e-18
1.81427e-18
1.8159166e-18
1.8149412e-18
1.8143407e-18
1.8139822e-18
1.8137829e-18
1.813689e-18
1.8136699e-18
1.8137158e-18
1.8138381e-18
1.8140778e-18
1.8158189e-18
1.8148443e-18
1.8142449e-18
1.8138875e-18
1.813689e-18
1.8135959e-18
1.8135777e-18
1.8136245e-18
1.8137478e-18
1.8139882e-18
1.8157934e-18
1.8148204e-18
1.814223e-18
1.8138672e-18
1.8136699e-18
1.8135777e-18
1.8135601e-18
1.8136075e-18
1.8137314e-18
1.8139721e-18
1.8158276e-18
1.8148583e-18
1.8142646e-18
1.8139114e-18
1.8137158e-18
1.8136245e-18
1.8136075e-18
1.8136553e-18
1.8137795e-18
1.8140205e-18
1.815928e-18
1.8149684e-18
1.8143813e-18
1.8140318e-18
1.8138381e-18
1.8137478e-18
1.8137314e-18
1.8137795e-18
1.813904e-18
1.8141452e-18
1.8161248e-18
1.8151934e-18
1.8146158e-18
1.81427e-18
1.8140778e-18
1.8139882e-18
1.8139721e-18
1.8140205e-18
1.8141452e-18
1.814387e-18
3.6043066e-18
3.6024377e-18
3.6012824e-18
3.60059e-18
3.6002019e-18
3.600014e-18
3.5999648e-18
3.6000296e-18
3.6002196e-18
3.6005889e-18
3.6024377e-18
3.6005749e-18
3.599422e-18
3.5987308e-18
3.5983437e-18
3.5981574e-18
3.5981113e-18
3.5981834e-18
3.5983923e-18
3.5988168e-18
3.6012824e-18
3.599422e-18
3.5982708e-18
3.5975809e-18
3.5971952e-18
3.597011e-18
3.5969687e-18
3.5970481e-18
3.59727e-18
3.5977132e-18
3.60059e-18
3.5987308e-18
3.5975809e-18
3.5968922e-18
3.5965079e-18
3.5963257e-18
3.5962867e-18
3.5963711e-18
3.5966003e-18
3.5970506e-18
3.6002019e-18
3.5983437e-18
3.5971952e-18
3.5965079e-18
3.5961251e-18
3.5959446e-18
3.5959079e-18
3.5959955e-18
3.5962284e-18
3.5966817e-18
3.600014e-18
3.5981574e-18
3.597011e-18
3.5963257e-18
3.5959446e-18
3.5957657e-18
3.5957306e-18
3.5958201e-18
3.5960549e-18
3.5965096e-18
3.5999648e-18
3.5981113e-18
3.5969687e-18
3.5962867e-18
3.5959079e-18
3.5957306e-18
3.5956969e-18
3.5957875e-18
3.5960234e-18
3.5964787e-18
3.6000296e-18
3.5981834e-18
3.5970481e-18
3.5963711e-18
3.5959955e-18
3.5958201e-18
3.5957875e-18
3.595879e-18
3.5961155e-18
3.5965713e-18
3.6002196e-18
3.5983923e-18
3.59727e-18
3.5966003e-18
3.5962284e-18
3.5960549e-18
3.5960234e-18
3.5961155e-18
3.5963526e-18
3.5968088e-18
3.6005889e-18
3.5988168e-18
3.5977132e-18
3.5970506e-18
3.5966817e-18
3.5965096e-18
3.5964787e-18
3.5965713e-18
3.5968088e-18
3.5972662e-18
7.2177303e-18
7.214136e-18
7.2119058e-18
7.2105655e-18
7.209813e-18
7.2094484e-18
7.2093525e-18
7.2094765e-18
7.2098398e-18
7.2105396e-18
7.214136e-18
7.2105535e-18
7.2083277e-18
7.2069898e-18
7.2062393e-18
7.2058777e-18
7.205788e-18
7.2059265e-18
7.2063271e-18
7.2071358e-18
7.2119058e-18
7.2083277e-18
7.2061052e-18
7.2047697e-18
7.204022e-18
7.2036645e-18
7.2035824e-18
7.2037352e-18
7.2041614e-18
7.2050071e-18
7.2105655e-18
7.2069898e-18
7.2047697e-18
7.2034367e-18
7.2026918e-18
7.2023383e-18
7.2022624e-18
7.2024253e-18
7.2028658e-18
7.2037257e-18
7.209813e-18
7.2062393e-18
7.204022e-18
7.2026918e-18
7.2019497e-18
7.2015996e-18
7.2015283e-18
7.2016974e-18
7.2021453e-18
7.2030111e-18
7.2094484e-18
7.2058777e-18
7.2036645e-18
7.2023383e-18
7.2015996e-18
7.2012525e-18
7.2011845e-18
7.2013573e-18
7.201809e-18
7.2026775e-18
7.2093525e-18
7.205788e-18
7.2035824e-18
7.2022624e-18
7.2015283e-18
7.2011845e-18
7.2011191e-18
7.2012942e-18
7.201748e-18
7.2026177e-18
7.2094765e-18
7.2059265e-18
7.2037352e-18
7.2024253e-18
7.2016974e-18
7.2013573e-18
7.2012942e-18
7.201471e-18
7.201926e-18
7.2027965e-18
7.2098398e-18
7.2063271e-18
7.2041614e-18
7.2028658e-18
7.2021453e-18
7.201809e-18
7.201748e-18
7.201926e-18
7.202382e-18
7.2032534e-18
7.2105396e-18
7.2071358e-18
7.2050071e-18
7.2037257e-18
7.2030111e-18
7.2026775e-18
7.2026177e-18
7.2027965e-18
7.2032534e-18
7.2041271e-18
1.4599395e-17
1.4592417e-17
1.4588071e-17
1.4585452e-17
1.458398e-17
1.4583265e-17
1.4583077e-17
1.4583317e-17
1.4584018e-17
1.4585357e-17
1.4592417e-17
1.4585462e-17
1.4581124e-17
1.457851e-17
1.4577042e-17
1.4576333e-17
1.4576157e-17
1.4576426e-17
1.4577201e-17
1.4578758e-17
1.4588071e-17
1.4581124e-17
1.4576793e-17
1.4574184e-17
1.457272e-17
1.457202e-17
1.4571859e-17
1.4572156e-17
1.4572983e-17
1.4574613e-17
1.4585452e-17
1.457851e-17
1.4574184e-17
1.4571579e-17
1.4570122e-17
1.456943e-17
1.4569281e-17
1.4569598e-17
1.4570453e-17
1.4572112e-17
1.458398e-17
1.4577042e-17
1.457272e-17
1.4570122e-17
1.456867e-17
1.4567984e-17
1.4567845e-17
1.4568174e-17
1.4569044e-17
1.4570715e-17
1.4583265e-17
1.4576333e-17
1.457202e-17
1.456943e-17
1.4567984e-17
1.4567305e-17
1.4567172e-17
1.4567509e-17
1.4568387e-17
1.4570062e-17
1.4583077e-17
1.4576157e-17
1.4571859e-17
1.4569281e-17
1.4567845e-17
1.4567172e-17
1.4567044e-17
1.4567386e-17
1.4568267e-17
1.4569945e-17
1.4583317e-17
1.4576426e-17
1.4572156e-17
1.4569598e-17
1.4568174e-17
1.4567509e-17
1.4567386e-17
1.4567731e-17
1.4568615e-17
1.4570294e-17
1.4584018e-17
1.4577201e-17
1.4572983e-17
1.4570453e-17
1.4569044e-17
1.4568387e-17
1.4568267e-17
1.4568615e-17
1.4569501e-17
1.4571182e-17
1.4585357e-17
1.4578758e-17
1.4574613e-17
1.4572112e-17
1.4570715e-17
1.4570062e-17
1.4569945e-17
1.4570294e-17
1.4571182e-17
1.4572868e-17
2.9826881e-17
2.9813207e-17
2.9804657e-17
2.9799494e-17
2.9796586e-17
2.9795174e-17
2.97948e-17
2.9795269e-17
2.9796636e-17
2.9799222e-17
2.9813207e-17
2.9799577e-17
2.9791044e-17
2.9785889e-17
2.9782989e-17
2.9781589e-17
2.978124e-17
2.9781767e-17
2.9783284e-17
2.9786308e-17
2.9804657e-17
2.9791044e-17
2.9782524e-17
2.9777379e-17
2.9774489e-17
2.9773106e-17
2.9772787e-17
2.9773371e-17
2.9774991e-17
2.9778164e-17
2.9799494e-17
2.9785889e-17
2.9777379e-17
2.9772244e-17
2.9769365e-17
2.9767998e-17
2.9767704e-17
2.9768328e-17
2.9770005e-17
2.9773235e-17
2.9796586e-17
2.9782989e-17
2.9774489e-17
2.9769365e-17
2.9766498e-17
2.9765144e-17
2.9764868e-17
2.9765518e-17
2.9767224e-17
2.9770478e-17
2.9795174e-17
2.9781589e-17
2.9773106e-17
2.9767998e-17
2.9765144e-17
2.9763802e-17
2.976354e-17
2.9764204e-17
2.9765925e-17
2.976919e-17
2.97948e-17
2.978124e-17
2.9772787e-17
2.9767704e-17
2.9764868e-17
2.976354e-17
2.9763287e-17
2.9763961e-17
2.9765691e-17
2.9768961e-17
2.9795269e-17
2.9781767e-17
2.9773371e-17
2.9768328e-17
2.9765518e-17
2.9764204e-17
2.9763961e-17
2.9764641e-17
2.9766376e-17
2.9769649e-17
2.9796636e-17
2.9783284e-17
2.9774991e-17
2.9770005e-17
2.9767224e-17
2.9765925e-17
2.9765691e-17
2.9766376e-17
2.9768114e-17
2.9771391e-17
2.9799222e-17
2.9786308e-17
2.9778164e-17
2.9773235e-17
2.9770478e-17
2.976919e-17
2.9768961e-17