/*--------------------------------*- C++ -*----------------------------------*\
| =========                 |                                                 |
| \\      /  F ield         | OpenFOAM: The Open Source CFD Toolbox           |
|  \\    /   O peration     | Version:  dev                                   |
|   \\  /    A nd           | Web:      www.OpenFOAM.org                      |
|    \\/     M anipulation  |                                                 |
\*---------------------------------------------------------------------------*/
FoamFile
{
    version     2.0;
    format      ascii;
    class       volScalarField;
    location    "86.995";
    object      A_0;
}
// * * * * * * * * * * * * * * * * * * * * * * * * * * * * * * * * * * * * * //

dimensions      [0 0 0 0 1 0 0];

internalField   nonuniform List<scalar> 
10000
(
4.937159e-23
4.9323938e-23
4.9297759e-23
4.9282821e-23
4.9274696e-23
4.9270861e-23
4.9269981e-23
4.9271721e-23
4.9276834e-23
4.9286957e-23
4.9323938e-23
4.927647e-23
4.9250356e-23
4.9235449e-23
4.9227348e-23
4.922354e-23
4.9222712e-23
4.9224569e-23
4.9229979e-23
4.9240952e-23
4.9297759e-23
4.9250356e-23
4.9224284e-23
4.9209405e-23
4.920133e-23
4.9197558e-23
4.9196794e-23
4.9198768e-23
4.9204387e-23
4.9215654e-23
4.9282821e-23
4.9235449e-23
4.9209405e-23
4.9194551e-23
4.9186501e-23
4.9182764e-23
4.9182053e-23
4.9184111e-23
4.9189845e-23
4.9201226e-23
4.9274696e-23
4.9227348e-23
4.920133e-23
4.9186501e-23
4.9178476e-23
4.9174768e-23
4.9174095e-23
4.9176205e-23
4.9182001e-23
4.919343e-23
4.9270861e-23
4.922354e-23
4.9197558e-23
4.9182764e-23
4.9174768e-23
4.9171085e-23
4.917044e-23
4.9172581e-23
4.9178408e-23
4.9189859e-23
4.9269981e-23
4.9222712e-23
4.9196794e-23
4.9182053e-23
4.9174095e-23
4.917044e-23
4.9169816e-23
4.9171977e-23
4.9177822e-23
4.9189284e-23
4.9271721e-23
4.9224569e-23
4.9198768e-23
4.9184111e-23
4.9176205e-23
4.9172581e-23
4.9171977e-23
4.9174152e-23
4.9180008e-23
4.9191478e-23
4.9276834e-23
4.9229979e-23
4.9204387e-23
4.9189845e-23
4.9182001e-23
4.9178408e-23
4.9177822e-23
4.9180008e-23
4.9185875e-23
4.9197358e-23
4.9286957e-23
4.9240952e-23
4.9215654e-23
4.9201226e-23
4.919343e-23
4.9189859e-23
4.9189284e-23
4.9191478e-23
4.9197358e-23
4.9208872e-23
1.6288237e-22
1.6273127e-22
1.6264581e-22
1.6259692e-22
1.6257031e-22
1.6255774e-22
1.6255485e-22
1.6256052e-22
1.6257724e-22
1.6261151e-22
1.6273127e-22
1.6258073e-22
1.6249548e-22
1.6244669e-22
1.6242016e-22
1.6240768e-22
1.6240496e-22
1.6241102e-22
1.6242871e-22
1.624658e-22
1.6264581e-22
1.6249548e-22
1.6241036e-22
1.6236167e-22
1.6233522e-22
1.6232286e-22
1.6232035e-22
1.6232679e-22
1.6234517e-22
1.6238323e-22
1.6259692e-22
1.6244669e-22
1.6236167e-22
1.6231306e-22
1.6228669e-22
1.6227445e-22
1.6227211e-22
1.6227883e-22
1.6229759e-22
1.6233602e-22
1.6257031e-22
1.6242016e-22
1.6233522e-22
1.6228669e-22
1.6226041e-22
1.6224826e-22
1.6224605e-22
1.6225294e-22
1.622719e-22
1.6231049e-22
1.6255774e-22
1.6240768e-22
1.6232286e-22
1.6227445e-22
1.6224826e-22
1.6223619e-22
1.6223407e-22
1.6224106e-22
1.6226013e-22
1.6229879e-22
1.6255485e-22
1.6240496e-22
1.6232035e-22
1.6227211e-22
1.6224605e-22
1.6223407e-22
1.6223202e-22
1.6223908e-22
1.622582e-22
1.622969e-22
1.6256052e-22
1.6241102e-22
1.6232679e-22
1.6227883e-22
1.6225294e-22
1.6224106e-22
1.6223908e-22
1.6224618e-22
1.6226534e-22
1.6230407e-22
1.6257724e-22
1.6242871e-22
1.6234517e-22
1.6229759e-22
1.622719e-22
1.6226013e-22
1.622582e-22
1.6226534e-22
1.6228454e-22
1.6232331e-22
1.6261151e-22
1.624658e-22
1.6238323e-22
1.6233602e-22
1.6231049e-22
1.6229879e-22
1.622969e-22
1.6230407e-22
1.6232331e-22
1.6236218e-22
3.2608506e-22
3.2579263e-22
3.2562465e-22
3.2552828e-22
3.2547575e-22
3.2545091e-22
3.2544515e-22
3.2545624e-22
3.2548905e-22
3.2555852e-22
3.2579263e-22
3.2550127e-22
3.2533371e-22
3.2523753e-22
3.2518514e-22
3.2516048e-22
3.2515506e-22
3.2516692e-22
3.2520169e-22
3.2527679e-22
3.2562465e-22
3.2533371e-22
3.251664e-22
3.250704e-22
3.2501819e-22
3.2499376e-22
3.2498876e-22
3.2500139e-22
3.2503753e-22
3.2511456e-22
3.2552828e-22
3.2523753e-22
3.250704e-22
3.2497457e-22
3.2492252e-22
3.2489831e-22
3.2489366e-22
3.2490684e-22
3.2494374e-22
3.2502151e-22
3.2547575e-22
3.2518514e-22
3.2501819e-22
3.2492252e-22
3.2487063e-22
3.2484662e-22
3.2484222e-22
3.2485573e-22
3.2489303e-22
3.2497112e-22
3.2545091e-22
3.2516048e-22
3.2499376e-22
3.2489831e-22
3.2484662e-22
3.2482278e-22
3.2481855e-22
3.2483227e-22
3.2486978e-22
3.2494801e-22
3.2544515e-22
3.2515506e-22
3.2498876e-22
3.2489366e-22
3.2484222e-22
3.2481855e-22
3.2481447e-22
3.2482832e-22
3.2486594e-22
3.2494425e-22
3.2545624e-22
3.2516692e-22
3.2500139e-22
3.2490684e-22
3.2485573e-22
3.2483227e-22
3.2482832e-22
3.2484226e-22
3.2487996e-22
3.2495831e-22
3.2548905e-22
3.2520169e-22
3.2503753e-22
3.2494374e-22
3.2489303e-22
3.2486978e-22
3.2486594e-22
3.2487996e-22
3.2491772e-22
3.2499616e-22
3.2555852e-22
3.2527679e-22
3.2511456e-22
3.2502151e-22
3.2497112e-22
3.2494801e-22
3.2494425e-22
3.2495831e-22
3.2499616e-22
3.2507484e-22
5.9110644e-22
5.9059379e-22
5.9029646e-22
5.9012529e-22
5.9003184e-22
5.8998758e-22
5.8997723e-22
5.899967e-22
5.9005446e-22
5.9017817e-22
5.9059379e-22
5.9008302e-22
5.8978639e-22
5.8961557e-22
5.8952237e-22
5.8947843e-22
5.894687e-22
5.8948955e-22
5.8955085e-22
5.8968473e-22
5.9029646e-22
5.8978639e-22
5.8949022e-22
5.8931973e-22
5.8922683e-22
5.8918332e-22
5.8917433e-22
5.8919657e-22
5.8926033e-22
5.893977e-22
5.9012529e-22
5.8961557e-22
5.8931973e-22
5.8914951e-22
5.8905692e-22
5.890138e-22
5.8900544e-22
5.8902867e-22
5.890938e-22
5.8923251e-22
5.9003184e-22
5.8952237e-22
5.8922683e-22
5.8905692e-22
5.8896462e-22
5.8892184e-22
5.8891393e-22
5.8893777e-22
5.8900362e-22
5.891429e-22
5.8998758e-22
5.8947843e-22
5.8918332e-22
5.890138e-22
5.8892184e-22
5.8887937e-22
5.8887178e-22
5.8889599e-22
5.8896222e-22
5.8910175e-22
5.8997723e-22
5.894687e-22
5.8917433e-22
5.8900544e-22
5.8891393e-22
5.8887178e-22
5.8886445e-22
5.8888889e-22
5.8895532e-22
5.8909498e-22
5.899967e-22
5.8948955e-22
5.8919657e-22
5.8902867e-22
5.8893777e-22
5.8889599e-22
5.8888889e-22
5.8891349e-22
5.8898006e-22
5.8911982e-22
5.9005446e-22
5.8955085e-22
5.8926033e-22
5.890938e-22
5.8900362e-22
5.8896222e-22
5.8895532e-22
5.8898006e-22
5.8904675e-22
5.8918665e-22
5.9017817e-22
5.8968473e-22
5.893977e-22
5.8923251e-22
5.891429e-22
5.8910175e-22
5.8909498e-22
5.8911982e-22
5.8918665e-22
5.8932697e-22
1.0467819e-21
1.0459042e-21
1.0453917e-21
1.0450957e-21
1.0449338e-21
1.0448569e-21
1.0448388e-21
1.044872e-21
1.0449707e-21
1.0451821e-21
1.0459042e-21
1.0450297e-21
1.0445184e-21
1.044223e-21
1.0440615e-21
1.0439852e-21
1.0439682e-21
1.0440038e-21
1.0441087e-21
1.0443381e-21
1.0453917e-21
1.0445184e-21
1.0440078e-21
1.043713e-21
1.043552e-21
1.0434765e-21
1.0434608e-21
1.0434988e-21
1.0436081e-21
1.0438436e-21
1.0450957e-21
1.044223e-21
1.043713e-21
1.0434186e-21
1.0432582e-21
1.0431834e-21
1.0431687e-21
1.0432085e-21
1.0433202e-21
1.0435581e-21
1.0449338e-21
1.0440615e-21
1.043552e-21
1.0432582e-21
1.0430983e-21
1.043024e-21
1.0430102e-21
1.0430511e-21
1.043164e-21
1.0434029e-21
1.0448569e-21
1.0439852e-21
1.0434765e-21
1.0431834e-21
1.043024e-21
1.0429504e-21
1.0429371e-21
1.0429786e-21
1.0430921e-21
1.0433315e-21
1.0448388e-21
1.0439682e-21
1.0434608e-21
1.0431687e-21
1.0430102e-21
1.0429371e-21
1.0429242e-21
1.0429661e-21
1.0430801e-21
1.0433196e-21
1.044872e-21
1.0440038e-21
1.0434988e-21
1.0432085e-21
1.0430511e-21
1.0429786e-21
1.0429661e-21
1.0430084e-21
1.0431225e-21
1.0433623e-21
1.0449707e-21
1.0441087e-21
1.0436081e-21
1.0433202e-21
1.043164e-21
1.0430921e-21
1.0430801e-21
1.0431225e-21
1.0432369e-21
1.0434769e-21
1.0451821e-21
1.0443381e-21
1.0438436e-21
1.0435581e-21
1.0434029e-21
1.0433315e-21
1.0433196e-21
1.0433623e-21
1.0434769e-21
1.0437176e-21
1.8517988e-21
1.8502984e-21
1.8494173e-21
1.8489069e-21
1.8486272e-21
1.8484942e-21
1.8484625e-21
1.8485189e-21
1.8486866e-21
1.8490444e-21
1.8502984e-21
1.8488033e-21
1.8479243e-21
1.8474149e-21
1.8471359e-21
1.8470039e-21
1.8469741e-21
1.8470348e-21
1.8472134e-21
1.8476028e-21
1.8494173e-21
1.8479243e-21
1.8470467e-21
1.8465382e-21
1.8462601e-21
1.8461295e-21
1.8461019e-21
1.8461669e-21
1.8463531e-21
1.8467533e-21
1.8489069e-21
1.8474149e-21
1.8465382e-21
1.8460306e-21
1.8457535e-21
1.845624e-21
1.8455984e-21
1.8456664e-21
1.8458568e-21
1.8462612e-21
1.8486272e-21
1.8471359e-21
1.8462601e-21
1.8457535e-21
1.8454772e-21
1.8453488e-21
1.8453245e-21
1.8453944e-21
1.8455871e-21
1.8459932e-21
1.8484942e-21
1.8470039e-21
1.8461295e-21
1.845624e-21
1.8453488e-21
1.8452213e-21
1.845198e-21
1.8452691e-21
1.8454629e-21
1.8458698e-21
1.8484625e-21
1.8469741e-21
1.8461019e-21
1.8455984e-21
1.8453245e-21
1.845198e-21
1.8451756e-21
1.8452473e-21
1.8454417e-21
1.845849e-21
1.8485189e-21
1.8470348e-21
1.8461669e-21
1.8456664e-21
1.8453944e-21
1.8452691e-21
1.8452473e-21
1.8453195e-21
1.8455144e-21
1.845922e-21
1.8486866e-21
1.8472134e-21
1.8463531e-21
1.8458568e-21
1.8455871e-21
1.8454629e-21
1.8454417e-21
1.8455144e-21
1.8457096e-21
1.8461176e-21
1.8490444e-21
1.8476028e-21
1.8467533e-21
1.8462612e-21
1.8459932e-21
1.8458698e-21
1.845849e-21
1.845922e-21
1.8461176e-21
1.8465268e-21
3.2963229e-21
3.2937428e-21
3.2922205e-21
3.2913359e-21
3.2908501e-21
3.2906188e-21
3.290563e-21
3.2906593e-21
3.2909454e-21
3.2915521e-21
3.2937428e-21
3.291172e-21
3.2896532e-21
3.2887703e-21
3.2882858e-21
3.2880562e-21
3.2880037e-21
3.2881076e-21
3.288413e-21
3.2890756e-21
3.2922205e-21
3.2896532e-21
3.2881368e-21
3.2872555e-21
3.2867726e-21
3.2865453e-21
3.2864969e-21
3.2866083e-21
3.2869271e-21
3.2876088e-21
3.2913359e-21
3.2887703e-21
3.2872555e-21
3.2863758e-21
3.2858944e-21
3.2856693e-21
3.2856243e-21
3.285741e-21
3.2860673e-21
3.2867564e-21
3.2908501e-21
3.2882858e-21
3.2867726e-21
3.2858944e-21
3.2854147e-21
3.2851914e-21
3.2851488e-21
3.2852688e-21
3.2855991e-21
3.2862912e-21
3.2906188e-21
3.2880562e-21
3.2865453e-21
3.2856693e-21
3.2851914e-21
3.2849697e-21
3.2849289e-21
3.2850509e-21
3.2853832e-21
3.2860767e-21
3.290563e-21
3.2880037e-21
3.2864969e-21
3.2856243e-21
3.2851488e-21
3.2849289e-21
3.2848894e-21
3.2850127e-21
3.2853461e-21
3.2860403e-21
3.2906593e-21
3.2881076e-21
3.2866083e-21
3.285741e-21
3.2852688e-21
3.2850509e-21
3.2850127e-21
3.2851369e-21
3.285471e-21
3.2861657e-21
3.2909454e-21
3.288413e-21
3.2869271e-21
3.2860673e-21
3.2855991e-21
3.2853832e-21
3.2853461e-21
3.285471e-21
3.2858057e-21
3.2865011e-21
3.2915521e-21
3.2890756e-21
3.2876088e-21
3.2867564e-21
3.2862912e-21
3.2860767e-21
3.2860403e-21
3.2861657e-21
3.2865011e-21
3.2871986e-21
5.9185437e-21
5.9140708e-21
5.9114196e-21
5.9098743e-21
5.909024e-21
5.9086184e-21
5.9085197e-21
5.9086853e-21
5.9091771e-21
5.9102127e-21
5.9140708e-21
5.9096137e-21
5.9069685e-21
5.9054262e-21
5.9045782e-21
5.9041757e-21
5.9040828e-21
5.9042618e-21
5.9047881e-21
5.9059233e-21
5.9114196e-21
5.9069685e-21
5.9043274e-21
5.902788e-21
5.9019427e-21
5.9015443e-21
5.9014586e-21
5.901651e-21
5.9022012e-21
5.9033705e-21
5.9098743e-21
5.9054262e-21
5.902788e-21
5.9012512e-21
5.9004087e-21
5.9000141e-21
5.8999344e-21
5.9001364e-21
5.9006998e-21
5.9018822e-21
5.909024e-21
5.9045782e-21
5.9019427e-21
5.9004087e-21
5.8995691e-21
5.8991777e-21
5.8991024e-21
5.8993102e-21
5.8998806e-21
5.9010685e-21
5.9086184e-21
5.9041757e-21
5.9015443e-21
5.9000141e-21
5.8991777e-21
5.8987892e-21
5.898717e-21
5.8989284e-21
5.8995024e-21
5.9006928e-21
5.9085197e-21
5.9040828e-21
5.9014586e-21
5.8999344e-21
5.8991024e-21
5.898717e-21
5.8986472e-21
5.8988608e-21
5.8994368e-21
5.9006284e-21
5.9086853e-21
5.9042618e-21
5.901651e-21
5.9001364e-21
5.8993102e-21
5.8989284e-21
5.8988608e-21
5.899076e-21
5.8996533e-21
5.9008457e-21
5.9091771e-21
5.9047881e-21
5.9022012e-21
5.9006998e-21
5.8998806e-21
5.8995024e-21
5.8994368e-21
5.8996533e-21
5.9002316e-21
5.9014253e-21
5.9102127e-21
5.9059233e-21
5.9033705e-21
5.9018822e-21
5.9010685e-21
5.9006928e-21
5.9006284e-21
5.9008457e-21
5.9014253e-21
5.9026225e-21
1.0727703e-20
1.0719878e-20
1.071522e-20
1.0712496e-20
1.0710995e-20
1.0710278e-20
1.0710101e-20
1.0710389e-20
1.0711241e-20
1.0713024e-20
1.0719878e-20
1.0712081e-20
1.0707433e-20
1.0704715e-20
1.0703217e-20
1.0702505e-20
1.0702339e-20
1.0702651e-20
1.0703566e-20
1.0705528e-20
1.071522e-20
1.0707433e-20
1.0702792e-20
1.0700079e-20
1.0698586e-20
1.0697881e-20
1.0697728e-20
1.0698064e-20
1.0699022e-20
1.0701045e-20
1.0712496e-20
1.0704715e-20
1.0700079e-20
1.069737e-20
1.0695883e-20
1.0695185e-20
1.0695043e-20
1.0695395e-20
1.0696377e-20
1.0698424e-20
1.0710995e-20
1.0703217e-20
1.0698586e-20
1.0695883e-20
1.06944e-20
1.0693708e-20
1.0693574e-20
1.0693937e-20
1.0694931e-20
1.0696988e-20
1.0710278e-20
1.0702505e-20
1.0697881e-20
1.0695185e-20
1.0693708e-20
1.0693021e-20
1.0692893e-20
1.0693262e-20
1.0694263e-20
1.0696324e-20
1.0710101e-20
1.0702339e-20
1.0697728e-20
1.0695043e-20
1.0693574e-20
1.0692893e-20
1.0692768e-20
1.0693142e-20
1.0694146e-20
1.0696209e-20
1.0710389e-20
1.0702651e-20
1.0698064e-20
1.0695395e-20
1.0693937e-20
1.0693262e-20
1.0693142e-20
1.0693518e-20
1.0694524e-20
1.0696589e-20
1.0711241e-20
1.0703566e-20
1.0699022e-20
1.0696377e-20
1.0694931e-20
1.0694263e-20
1.0694146e-20
1.0694524e-20
1.0695533e-20
1.06976e-20
1.0713024e-20
1.0705528e-20
1.0701045e-20
1.0698424e-20
1.0696988e-20
1.0696324e-20
1.0696209e-20
1.0696589e-20
1.06976e-20
1.0699673e-20
1.9635195e-20
1.9621378e-20
1.9613116e-20
1.9608272e-20
1.9605596e-20
1.9604316e-20
1.9603998e-20
1.9604502e-20
1.9605995e-20
1.9609091e-20
1.9621378e-20
1.9607609e-20
1.9599365e-20
1.9594531e-20
1.9591862e-20
1.9590591e-20
1.9590293e-20
1.959084e-20
1.9592445e-20
1.9595868e-20
1.9613116e-20
1.9599365e-20
1.9591134e-20
1.9586308e-20
1.9583649e-20
1.9582391e-20
1.9582116e-20
1.9582707e-20
1.958439e-20
1.9587924e-20
1.9608272e-20
1.9594531e-20
1.9586308e-20
1.9581491e-20
1.957884e-20
1.9577595e-20
1.9577339e-20
1.9577961e-20
1.9579687e-20
1.9583264e-20
1.9605596e-20
1.9591862e-20
1.9583649e-20
1.957884e-20
1.9576198e-20
1.9574964e-20
1.9574722e-20
1.9575363e-20
1.9577112e-20
1.9580706e-20
1.9604316e-20
1.9590591e-20
1.9582391e-20
1.9577595e-20
1.9574964e-20
1.9573738e-20
1.9573507e-20
1.9574159e-20
1.957592e-20
1.9579522e-20
1.9603998e-20
1.9590293e-20
1.9582116e-20
1.9577339e-20
1.9574722e-20
1.9573507e-20
1.9573283e-20
1.9573942e-20
1.957571e-20
1.9579316e-20
1.9604502e-20
1.959084e-20
1.9582707e-20
1.9577961e-20
1.9575363e-20
1.9574159e-20
1.9573942e-20
1.9574607e-20
1.9576378e-20
1.9579987e-20
1.9605995e-20
1.9592445e-20
1.958439e-20
1.9579687e-20
1.9577112e-20
1.957592e-20
1.957571e-20
1.9576378e-20
1.9578153e-20
1.9581766e-20
1.9609091e-20
1.9595868e-20
1.9587924e-20
1.9583264e-20
1.9580706e-20
1.9579522e-20
1.9579316e-20
1.9579987e-20
1.9581766e-20
1.9585389e-20
3.6295725e-20
3.6271096e-20
3.6256306e-20
3.6247609e-20
3.6242796e-20
3.6240489e-20
3.6239912e-20
3.6240802e-20
3.6243441e-20
3.6248872e-20
3.6271096e-20
3.6246553e-20
3.6231794e-20
3.6223114e-20
3.6218314e-20
3.6216024e-20
3.6215482e-20
3.6216453e-20
3.6219297e-20
3.6225326e-20
3.6256306e-20
3.6231794e-20
3.6217058e-20
3.6208394e-20
3.620361e-20
3.6201344e-20
3.6200844e-20
3.6201895e-20
3.6204882e-20
3.6211114e-20
3.6247609e-20
3.6223114e-20
3.6208394e-20
3.6199745e-20
3.6194977e-20
3.6192734e-20
3.619227e-20
3.6193376e-20
3.6196443e-20
3.6202753e-20
3.6242796e-20
3.6218314e-20
3.620361e-20
3.6194977e-20
3.6190225e-20
3.6188002e-20
3.6187563e-20
3.6188705e-20
3.6191813e-20
3.6198156e-20
3.6240489e-20
3.6216024e-20
3.6201344e-20
3.6192734e-20
3.6188002e-20
3.6185795e-20
3.6185375e-20
3.6186537e-20
3.6189667e-20
3.6196024e-20
3.6239912e-20
3.6215482e-20
3.6200844e-20
3.619227e-20
3.6187563e-20
3.6185375e-20
3.6184969e-20
3.6186145e-20
3.6189286e-20
3.6195651e-20
3.6240802e-20
3.6216453e-20
3.6201895e-20
3.6193376e-20
3.6188705e-20
3.6186537e-20
3.6186145e-20
3.618733e-20
3.6190478e-20
3.6196848e-20
3.6243441e-20
3.6219297e-20
3.6204882e-20
3.6196443e-20
3.6191813e-20
3.6189667e-20
3.6189286e-20
3.6190478e-20
3.6193632e-20
3.6200009e-20
3.6248872e-20
3.6225326e-20
3.6211114e-20
3.6202753e-20
3.6198156e-20
3.6196024e-20
3.6195651e-20
3.6196848e-20
3.6200009e-20
3.6206404e-20
6.7763762e-20
6.7719442e-20
6.7692712e-20
6.767695e-20
6.7668211e-20
6.7664016e-20
6.7662958e-20
6.7664549e-20
6.7669258e-20
6.7678874e-20
6.7719442e-20
6.7675274e-20
6.7648601e-20
6.7632869e-20
6.7624153e-20
6.761999e-20
6.7618997e-20
6.7620735e-20
6.7625825e-20
6.7636547e-20
6.7692712e-20
6.7648601e-20
6.7621969e-20
6.7606266e-20
6.759758e-20
6.7593461e-20
6.7592545e-20
6.7594431e-20
6.7599785e-20
6.7610883e-20
6.767695e-20
6.7632869e-20
6.7606266e-20
6.7590591e-20
6.7581934e-20
6.7577857e-20
6.7577007e-20
6.7578997e-20
6.7584497e-20
6.7595739e-20
6.7668211e-20
6.7624153e-20
6.759758e-20
6.7581934e-20
6.7573308e-20
6.7569266e-20
6.7568463e-20
6.7570518e-20
6.7576094e-20
6.7587397e-20
6.7664016e-20
6.761999e-20
6.7593461e-20
6.7577857e-20
6.7569266e-20
6.7565255e-20
6.7564487e-20
6.756658e-20
6.7572195e-20
6.7583526e-20
6.7662958e-20
6.7618997e-20
6.7592545e-20
6.7577007e-20
6.7568463e-20
6.7564487e-20
6.7563745e-20
6.7565862e-20
6.7571499e-20
6.7582843e-20
6.7664549e-20
6.7620735e-20
6.7594431e-20
6.7578997e-20
6.7570518e-20
6.756658e-20
6.7565862e-20
6.7567996e-20
6.7573646e-20
6.7585e-20
6.7669258e-20
6.7625825e-20
6.7599785e-20
6.7584497e-20
6.7576094e-20
6.7572195e-20
6.7571499e-20
6.7573646e-20
6.7579308e-20
6.7590673e-20
6.7678874e-20
6.7636547e-20
6.7610883e-20
6.7595739e-20
6.7587397e-20
6.7583526e-20
6.7582843e-20
6.7585e-20
6.7590673e-20
6.760207e-20
1.2778544e-19
1.2770492e-19
1.2765616e-19
1.2762732e-19
1.276113e-19
1.276036e-19
1.2760165e-19
1.2760452e-19
1.27613e-19
1.2763019e-19
1.2770492e-19
1.2762468e-19
1.2757602e-19
1.2754723e-19
1.2753126e-19
1.2752362e-19
1.2752178e-19
1.2752493e-19
1.2753412e-19
1.2755338e-19
1.2765616e-19
1.2757602e-19
1.2752743e-19
1.274987e-19
1.2748278e-19
1.2747522e-19
1.2747353e-19
1.2747695e-19
1.2748664e-19
1.275066e-19
1.2762732e-19
1.2754723e-19
1.274987e-19
1.2747002e-19
1.2745415e-19
1.2744667e-19
1.274451e-19
1.2744872e-19
1.2745868e-19
1.2747891e-19
1.276113e-19
1.2753126e-19
1.2748278e-19
1.2745415e-19
1.2743834e-19
1.2743093e-19
1.2742945e-19
1.2743318e-19
1.2744328e-19
1.2746363e-19
1.276036e-19
1.2752362e-19
1.2747522e-19
1.2744667e-19
1.2743093e-19
1.2742357e-19
1.2742215e-19
1.2742596e-19
1.2743614e-19
1.2745653e-19
1.2760165e-19
1.2752178e-19
1.2747353e-19
1.274451e-19
1.2742945e-19
1.2742215e-19
1.2742079e-19
1.2742464e-19
1.2743485e-19
1.2745527e-19
1.2760452e-19
1.2752493e-19
1.2747695e-19
1.2744872e-19
1.2743318e-19
1.2742596e-19
1.2742464e-19
1.2742852e-19
1.2743876e-19
1.2745919e-19
1.27613e-19
1.2753412e-19
1.2748664e-19
1.2745868e-19
1.2744328e-19
1.2743614e-19
1.2743485e-19
1.2743876e-19
1.2744902e-19
1.2746948e-19
1.2763019e-19
1.2755338e-19
1.275066e-19
1.2747891e-19
1.2746363e-19
1.2745653e-19
1.2745527e-19
1.2745919e-19
1.2746948e-19
1.2748999e-19
2.4340073e-19
2.4325304e-19
2.4316322e-19
2.4310996e-19
2.4308032e-19
2.4306605e-19
2.430624e-19
2.4306763e-19
2.4308308e-19
2.4311411e-19
2.4325304e-19
2.4310585e-19
2.4301622e-19
2.4296306e-19
2.429335e-19
2.4291935e-19
2.4291592e-19
2.4292167e-19
2.4293845e-19
2.4297338e-19
2.4316322e-19
2.4301622e-19
2.4292672e-19
2.4287366e-19
2.4284421e-19
2.428302e-19
2.4282705e-19
2.4283332e-19
2.4285103e-19
2.4288728e-19
2.4310996e-19
2.4296306e-19
2.4287366e-19
2.428207e-19
2.4279134e-19
2.4277748e-19
2.4277456e-19
2.4278119e-19
2.4279941e-19
2.4283617e-19
2.4308032e-19
2.429335e-19
2.4284421e-19
2.4279134e-19
2.4276209e-19
2.4274836e-19
2.427456e-19
2.4275246e-19
2.4277095e-19
2.4280792e-19
2.4306605e-19
2.4291935e-19
2.428302e-19
2.4277748e-19
2.4274836e-19
2.4273473e-19
2.427321e-19
2.4273909e-19
2.4275771e-19
2.4279478e-19
2.430624e-19
2.4291592e-19
2.4282705e-19
2.4277456e-19
2.427456e-19
2.427321e-19
2.4272955e-19
2.4273663e-19
2.4275533e-19
2.4279245e-19
2.4306763e-19
2.4292167e-19
2.4283332e-19
2.4278119e-19
2.4275246e-19
2.4273909e-19
2.4273663e-19
2.4274376e-19
2.4276251e-19
2.4279966e-19
2.4308308e-19
2.4293845e-19
2.4285103e-19
2.4279941e-19
2.4277095e-19
2.4275771e-19
2.4275533e-19
2.4276251e-19
2.4278129e-19
2.4281848e-19
2.4311411e-19
2.4297338e-19
2.4288728e-19
2.4283617e-19
2.4280792e-19
2.4279478e-19
2.4279245e-19
2.4279966e-19
2.4281848e-19
2.4285577e-19
4.6830583e-19
4.6803234e-19
4.6786533e-19
4.6776604e-19
4.6771068e-19
4.6768399e-19
4.6767712e-19
4.6768674e-19
4.6771513e-19
4.6777169e-19
4.6803234e-19
4.6775978e-19
4.6759311e-19
4.67494e-19
4.6743879e-19
4.6741231e-19
4.6740587e-19
4.6741648e-19
4.6744741e-19
4.6751139e-19
4.6786533e-19
4.6759311e-19
4.674267e-19
4.6732777e-19
4.6727275e-19
4.6724656e-19
4.6724064e-19
4.6725223e-19
4.6728492e-19
4.6735143e-19
4.6776604e-19
4.67494e-19
4.6732777e-19
4.6722901e-19
4.6717419e-19
4.6714828e-19
4.6714279e-19
4.6715507e-19
4.6718874e-19
4.6725621e-19
4.6771068e-19
4.6743879e-19
4.6727275e-19
4.6717419e-19
4.6711957e-19
4.6709389e-19
4.6708871e-19
4.6710143e-19
4.671356e-19
4.6720348e-19
4.6768399e-19
4.6741231e-19
4.6724656e-19
4.6714828e-19
4.6709389e-19
4.6706842e-19
4.6706347e-19
4.6707644e-19
4.6711087e-19
4.6717894e-19
4.6767712e-19
4.6740587e-19
4.6724064e-19
4.6714279e-19
4.6708871e-19
4.6706347e-19
4.670587e-19
4.6707183e-19
4.671064e-19
4.6717455e-19
4.6768674e-19
4.6741648e-19
4.6725223e-19
4.6715507e-19
4.6710143e-19
4.6707644e-19
4.6707183e-19
4.6708507e-19
4.6711973e-19
4.6718794e-19
4.6771513e-19
4.6744741e-19
4.6728492e-19
4.6718874e-19
4.671356e-19
4.6711087e-19
4.671064e-19
4.6711973e-19
4.6715447e-19
4.6722275e-19
4.6777169e-19
4.6751139e-19
4.6735143e-19
4.6725621e-19
4.6720348e-19
4.6717894e-19
4.6717455e-19
4.6718794e-19
4.6722275e-19
4.6729121e-19
9.1014614e-19
9.0963482e-19
9.0932132e-19
9.0913443e-19
9.0903005e-19
9.0897967e-19
9.0896662e-19
9.0898451e-19
9.0903719e-19
9.091413e-19
9.0963482e-19
9.0912523e-19
9.0881237e-19
9.0862581e-19
9.0852171e-19
9.0847174e-19
9.0845951e-19
9.0847929e-19
9.0853686e-19
9.0865524e-19
9.0932132e-19
9.0881237e-19
9.0849998e-19
9.0831377e-19
9.0821004e-19
9.0816061e-19
9.0814937e-19
9.0817104e-19
9.0823199e-19
9.0835521e-19
9.0913443e-19
9.0862581e-19
9.0831377e-19
9.0812789e-19
9.0802453e-19
9.0797563e-19
9.0796523e-19
9.0798822e-19
9.0805104e-19
9.0817612e-19
9.0903005e-19
9.0852171e-19
9.0821004e-19
9.0802453e-19
9.0792155e-19
9.078731e-19
9.078633e-19
9.0788711e-19
9.0795091e-19
9.0807677e-19
9.0897967e-19
9.0847174e-19
9.0816061e-19
9.0797563e-19
9.078731e-19
9.0782505e-19
9.0781568e-19
9.0783998e-19
9.0790428e-19
9.0803049e-19
9.0896662e-19
9.0845951e-19
9.0814937e-19
9.0796523e-19
9.078633e-19
9.0781568e-19
9.0780666e-19
9.0783126e-19
9.0789583e-19
9.0802221e-19
9.0898451e-19
9.0847929e-19
9.0817104e-19
9.0798822e-19
9.0788711e-19
9.0783998e-19
9.0783126e-19
9.0785609e-19
9.0792083e-19
9.0804732e-19
9.0903719e-19
9.0853686e-19
9.0823199e-19
9.0805104e-19
9.0795091e-19
9.0790428e-19
9.0789583e-19
9.0792083e-19
9.079857e-19
9.0811232e-19
9.091413e-19
9.0865524e-19
9.0835521e-19
9.0817612e-19
9.0807677e-19
9.0803049e-19
9.0802221e-19
9.0804732e-19
9.0811232e-19
9.0823928e-19
1.7867719e-18
1.7858068e-18
1.7852127e-18
1.7848576e-18
1.7846589e-18
1.7845629e-18
1.7845379e-18
1.7845715e-18
1.7846702e-18
1.7848637e-18
1.7858068e-18
1.7848449e-18
1.784252e-18
1.7838975e-18
1.7836994e-18
1.7836041e-18
1.7835807e-18
1.783618e-18
1.7837262e-18
1.7839474e-18
1.7852127e-18
1.784252e-18
1.78366e-18
1.7833061e-18
1.7831087e-18
1.7830146e-18
1.7829931e-18
1.783034e-18
1.7831488e-18
1.7833793e-18
1.7848576e-18
1.7838975e-18
1.7833061e-18
1.782953e-18
1.7827563e-18
1.7826631e-18
1.7826432e-18
1.7826867e-18
1.7828051e-18
1.7830393e-18
1.7846589e-18
1.7836994e-18
1.7831087e-18
1.7827563e-18
1.7825603e-18
1.782468e-18
1.7824493e-18
1.7824944e-18
1.7826146e-18
1.7828504e-18
1.7845629e-18
1.7836041e-18
1.7830146e-18
1.7826631e-18
1.782468e-18
1.7823765e-18
1.7823586e-18
1.7824046e-18
1.7825259e-18
1.7827623e-18
1.7845379e-18
1.7835807e-18
1.7829931e-18
1.7826432e-18
1.7824493e-18
1.7823586e-18
1.7823414e-18
1.782388e-18
1.7825098e-18
1.7827465e-18
1.7845715e-18
1.783618e-18
1.783034e-18
1.7826867e-18
1.7824944e-18
1.7824046e-18
1.782388e-18
1.782435e-18
1.7825571e-18
1.7827941e-18
1.7846702e-18
1.7837262e-18
1.7831488e-18
1.7828051e-18
1.7826146e-18
1.7825259e-18
1.7825098e-18
1.7825571e-18
1.7826795e-18
1.7829167e-18
1.7848637e-18
1.7839474e-18
1.7833793e-18
1.7830393e-18
1.7828504e-18
1.7827623e-18
1.7827465e-18
1.7827941e-18
1.7829167e-18
1.7831545e-18
3.5432492e-18
3.5414102e-18
3.5402736e-18
3.5395925e-18
3.5392108e-18
3.5390262e-18
3.5389778e-18
3.5390416e-18
3.5392285e-18
3.5395917e-18
3.5414102e-18
3.5395772e-18
3.5384429e-18
3.537763e-18
3.5373824e-18
3.5371992e-18
3.537154e-18
3.5372249e-18
3.5374304e-18
3.5378478e-18
3.5402736e-18
3.5384429e-18
3.5373104e-18
3.5366317e-18
3.5362524e-18
3.5360713e-18
3.5360299e-18
3.5361079e-18
3.5363262e-18
3.536762e-18
3.5395925e-18
3.537763e-18
3.5366317e-18
3.5359543e-18
3.5355764e-18
3.5353973e-18
3.535359e-18
3.535442e-18
3.5356674e-18
3.5361103e-18
3.5392108e-18
3.5373824e-18
3.5362524e-18
3.5355764e-18
3.5352e-18
3.5350225e-18
3.5349865e-18
3.5350726e-18
3.5353017e-18
3.5357476e-18
3.5390262e-18
3.5371992e-18
3.5360713e-18
3.5353973e-18
3.5350225e-18
3.5348467e-18
3.5348122e-18
3.5349002e-18
3.5351312e-18
3.5355784e-18
3.5389778e-18
3.537154e-18
3.5360299e-18
3.535359e-18
3.5349865e-18
3.5348122e-18
3.5347791e-18
3.5348683e-18
3.5351003e-18
3.5355481e-18
3.5390416e-18
3.5372249e-18
3.5361079e-18
3.535442e-18
3.5350726e-18
3.5349002e-18
3.5348683e-18
3.5349582e-18
3.5351909e-18
3.5356391e-18
3.5392285e-18
3.5374304e-18
3.5363262e-18
3.5356674e-18
3.5353017e-18
3.5351312e-18
3.5351003e-18
3.5351909e-18
3.535424e-18
3.5358727e-18
3.5395917e-18
3.5378478e-18
3.536762e-18
3.5361103e-18
3.5357476e-18
3.5355784e-18
3.5355481e-18
3.5356391e-18
3.5358727e-18
3.5363225e-18
7.097453e-18
7.0939152e-18
7.0917203e-18
7.0904016e-18
7.0896615e-18
7.0893029e-18
7.0892087e-18
7.0893308e-18
7.0896881e-18
7.0903766e-18
7.0939152e-18
7.090389e-18
7.0881985e-18
7.0868821e-18
7.0861439e-18
7.0857884e-18
7.0857003e-18
7.0858365e-18
7.0862306e-18
7.0870263e-18
7.0917203e-18
7.0881985e-18
7.0860113e-18
7.0846973e-18
7.0839618e-18
7.0836104e-18
7.0835296e-18
7.08368e-18
7.0840994e-18
7.0849314e-18
7.0904016e-18
7.0868821e-18
7.0846973e-18
7.0833858e-18
7.082653e-18
7.0823054e-18
7.0822309e-18
7.0823912e-18
7.0828246e-18
7.0836705e-18
7.0896615e-18
7.0861439e-18
7.0839618e-18
7.082653e-18
7.0819231e-18
7.0815788e-18
7.0815088e-18
7.0816752e-18
7.0821158e-18
7.0829676e-18
7.0893029e-18
7.0857884e-18
7.0836104e-18
7.0823054e-18
7.0815788e-18
7.0812376e-18
7.0811708e-18
7.0813408e-18
7.0817852e-18
7.0826396e-18
7.0892087e-18
7.0857003e-18
7.0835296e-18
7.0822309e-18
7.0815088e-18
7.0811708e-18
7.0811065e-18
7.0812788e-18
7.0817252e-18
7.0825809e-18
7.0893308e-18
7.0858365e-18
7.08368e-18
7.0823912e-18
7.0816752e-18
7.0813408e-18
7.0812788e-18
7.0814527e-18
7.0819004e-18
7.0827568e-18
7.0896881e-18
7.0862306e-18
7.0840994e-18
7.0828246e-18
7.0821158e-18
7.0817852e-18
7.0817252e-18
7.0819004e-18
7.0823489e-18
7.0832063e-18
7.0903766e-18
7.0870263e-18
7.0849314e-18
7.0836705e-18
7.0829676e-18
7.0826396e-18
7.0825809e-18
7.0827568e-18
7.0832063e-18
7.0840659e-18
1.4360193e-17
1.4353323e-17
1.4349045e-17
1.4346467e-17
1.4345019e-17
1.4344316e-17
1.4344131e-17
1.4344367e-17
1.4345057e-17
1.4346375e-17
1.4353323e-17
1.4346475e-17
1.4342205e-17
1.4339633e-17
1.4338188e-17
1.4337491e-17
1.4337318e-17
1.4337582e-17
1.4338346e-17
1.4339877e-17
1.4349045e-17
1.4342205e-17
1.4337941e-17
1.4335374e-17
1.4333934e-17
1.4333245e-17
1.4333087e-17
1.433338e-17
1.4334193e-17
1.4335797e-17
1.4346467e-17
1.4339633e-17
1.4335374e-17
1.433281e-17
1.4331376e-17
1.4330696e-17
1.433055e-17
1.4330862e-17
1.4331703e-17
1.4333335e-17
1.4345019e-17
1.4338188e-17
1.4333934e-17
1.4331376e-17
1.4329948e-17
1.4329274e-17
1.4329136e-17
1.4329461e-17
1.4330317e-17
1.4331961e-17
1.4344316e-17
1.4337491e-17
1.4333245e-17
1.4330696e-17
1.4329274e-17
1.4328605e-17
1.4328475e-17
1.4328807e-17
1.432967e-17
1.4331319e-17
1.4344131e-17
1.4337318e-17
1.4333087e-17
1.433055e-17
1.4329136e-17
1.4328475e-17
1.4328349e-17
1.4328685e-17
1.4329553e-17
1.4331204e-17
1.4344367e-17
1.4337582e-17
1.433338e-17
1.4330862e-17
1.4329461e-17
1.4328807e-17
1.4328685e-17
1.4329025e-17
1.4329895e-17
1.4331548e-17
1.4345057e-17
1.4338346e-17
1.4334193e-17
1.4331703e-17
1.4330317e-17
1.432967e-17
1.4329553e-17
1.4329895e-17
1.4330767e-17
1.4332421e-17
1.4346375e-17
1.4339877e-17
1.4335797e-17
1.4333335e-17
1.4331961e-17
1.4331319e-17
1.4331204e-17
1.4331548e-17
1.4332421e-17
1.433408e-17
2.9346647e-17
2.933318e-17
2.9324761e-17
2.9319678e-17
2.9316816e-17
2.9315427e-17
2.9315059e-17
2.9315521e-17
2.9316866e-17
2.9319412e-17
2.933318e-17
2.9319756e-17
2.9311354e-17
2.930628e-17
2.9303425e-17
2.9302048e-17
2.9301705e-17
2.9302224e-17
2.9303716e-17
2.9306694e-17
2.9324761e-17
2.9311354e-17
2.9302964e-17
2.9297899e-17
2.9295056e-17
2.9293695e-17
2.9293381e-17
2.9293956e-17
2.9295551e-17
2.9298674e-17
2.9319678e-17
2.930628e-17
2.9297899e-17
2.9292844e-17
2.9290011e-17
2.9288665e-17
2.9288377e-17
2.9288992e-17
2.9290642e-17
2.9293822e-17
2.9316816e-17
2.9303425e-17
2.9295056e-17
2.9290011e-17
2.9287189e-17
2.9285857e-17
2.9285586e-17
2.9286226e-17
2.9287905e-17
2.9291108e-17
2.9315427e-17
2.9302048e-17
2.9293695e-17
2.9288665e-17
2.9285857e-17
2.9284537e-17
2.9284279e-17
2.9284933e-17
2.9286627e-17
2.9289841e-17
2.9315059e-17
2.9301705e-17
2.9293381e-17
2.9288377e-17
2.9285586e-17
2.9284279e-17
2.9284031e-17
2.9284694e-17
2.9286397e-17
2.9289615e-17
2.9315521e-17
2.9302224e-17
2.9293956e-17
2.9288992e-17
2.9286226e-17
2.9284933e-17
2.9284694e-17
2.9285364e-17
2.9287071e-17
2.9290293e-17
2.9316866e-17
2.9303716e-17
2.9295551e-17
2.9290642e-17
2.9287905e-17
2.9286627e-17
2.9286397e-17
2.9287071e-17
2.9288782e-17
2.9292008e-17
2.9319412e-17
2.9306694e-17
2.9298674e-17
2.9293822e-17
2.9291108e-17