/*--------------------------------*- C++ -*----------------------------------*\
| =========                 |                                                 |
| \\      /  F ield         | OpenFOAM: The Open Source CFD Toolbox           |
|  \\    /   O peration     | Version:  dev                                   |
|   \\  /    A nd           | Web:      www.OpenFOAM.org                      |
|    \\/     M anipulation  |                                                 |
\*---------------------------------------------------------------------------*/
FoamFile
{
    version     2.0;
    format      ascii;
    class       volScalarField;
    location    "30";
    object      A;
}
// * * * * * * * * * * * * * * * * * * * * * * * * * * * * * * * * * * * * * //

dimensions      [0 0 0 0 1 0 0];

internalField   nonuniform List<scalar> 
10000
(
6.9126016e-44
6.9121619e-44
6.9119415e-44
6.9118336e-44
6.9117847e-44
6.9117651e-44
6.9117592e-44
6.9117609e-44
6.9117712e-44
6.9118003e-44
6.9121619e-44
6.9117224e-44
6.9115021e-44
6.9113941e-44
6.9113453e-44
6.9113258e-44
6.9113201e-44
6.9113226e-44
6.9113348e-44
6.9113698e-44
6.9119415e-44
6.9115021e-44
6.9112818e-44
6.9111739e-44
6.9111251e-44
6.9111057e-44
6.9111003e-44
6.9111034e-44
6.9111169e-44
6.9111538e-44
6.9118336e-44
6.9113941e-44
6.9111739e-44
6.911066e-44
6.9110173e-44
6.9109979e-44
6.9109927e-44
6.9109962e-44
6.9110103e-44
6.9110479e-44
6.9117847e-44
6.9113453e-44
6.9111251e-44
6.9110173e-44
6.9109686e-44
6.9109493e-44
6.9109442e-44
6.9109478e-44
6.9109622e-44
6.911e-44
6.9117651e-44
6.9113258e-44
6.9111057e-44
6.9109979e-44
6.9109493e-44
6.91093e-44
6.910925e-44
6.9109287e-44
6.9109432e-44
6.9109811e-44
6.9117592e-44
6.9113201e-44
6.9111003e-44
6.9109927e-44
6.9109442e-44
6.910925e-44
6.91092e-44
6.9109237e-44
6.9109382e-44
6.9109762e-44
6.9117609e-44
6.9113226e-44
6.9111034e-44
6.9109962e-44
6.9109478e-44
6.9109287e-44
6.9109237e-44
6.9109275e-44
6.910942e-44
6.91098e-44
6.9117712e-44
6.9113348e-44
6.9111169e-44
6.9110103e-44
6.9109622e-44
6.9109432e-44
6.9109382e-44
6.910942e-44
6.9109565e-44
6.9109945e-44
6.9118003e-44
6.9113698e-44
6.9111538e-44
6.9110479e-44
6.911e-44
6.9109811e-44
6.9109762e-44
6.91098e-44
6.9109945e-44
6.9110325e-44
2.8905048e-43
2.8903268e-43
2.890236e-43
2.8901915e-43
2.8901713e-43
2.8901632e-43
2.8901608e-43
2.8901615e-43
2.8901657e-43
2.8901781e-43
2.8903268e-43
2.8901488e-43
2.890058e-43
2.8900135e-43
2.8899934e-43
2.8899853e-43
2.889983e-43
2.889984e-43
2.889989e-43
2.8900039e-43
2.890236e-43
2.890058e-43
2.8899673e-43
2.8899228e-43
2.8899027e-43
2.8898946e-43
2.8898924e-43
2.8898937e-43
2.8898993e-43
2.8899149e-43
2.8901915e-43
2.8900135e-43
2.8899228e-43
2.8898783e-43
2.8898582e-43
2.8898502e-43
2.889848e-43
2.8898495e-43
2.8898553e-43
2.8898713e-43
2.8901713e-43
2.8899934e-43
2.8899027e-43
2.8898582e-43
2.8898381e-43
2.8898301e-43
2.889828e-43
2.8898295e-43
2.8898354e-43
2.8898515e-43
2.8901632e-43
2.8899853e-43
2.8898946e-43
2.8898502e-43
2.8898301e-43
2.8898221e-43
2.8898201e-43
2.8898216e-43
2.8898276e-43
2.8898437e-43
2.8901608e-43
2.889983e-43
2.8898924e-43
2.889848e-43
2.889828e-43
2.8898201e-43
2.889818e-43
2.8898196e-43
2.8898256e-43
2.8898417e-43
2.8901615e-43
2.889984e-43
2.8898937e-43
2.8898495e-43
2.8898295e-43
2.8898216e-43
2.8898196e-43
2.8898211e-43
2.8898271e-43
2.8898432e-43
2.8901657e-43
2.889989e-43
2.8898993e-43
2.8898553e-43
2.8898354e-43
2.8898276e-43
2.8898256e-43
2.8898271e-43
2.8898331e-43
2.8898492e-43
2.8901781e-43
2.8900039e-43
2.8899149e-43
2.8898713e-43
2.8898515e-43
2.8898437e-43
2.8898417e-43
2.8898432e-43
2.8898492e-43
2.8898653e-43
8.6253988e-43
8.624883e-43
8.6246184e-43
8.6244882e-43
8.6244292e-43
8.6244055e-43
8.6243983e-43
8.6244005e-43
8.6244127e-43
8.624449e-43
8.624883e-43
8.6243675e-43
8.6241029e-43
8.6239727e-43
8.6239138e-43
8.6238902e-43
8.6238834e-43
8.6238863e-43
8.6239009e-43
8.6239445e-43
8.6246184e-43
8.6241029e-43
8.6238383e-43
8.6237082e-43
8.6236493e-43
8.6236258e-43
8.6236194e-43
8.6236231e-43
8.6236392e-43
8.6236852e-43
8.6244882e-43
8.6239727e-43
8.6237082e-43
8.6235781e-43
8.6235193e-43
8.6234959e-43
8.6234896e-43
8.6234938e-43
8.6235107e-43
8.6235575e-43
8.6244292e-43
8.6239138e-43
8.6236493e-43
8.6235193e-43
8.6234605e-43
8.6234372e-43
8.623431e-43
8.6234354e-43
8.6234527e-43
8.6234998e-43
8.6244055e-43
8.6238902e-43
8.6236258e-43
8.6234959e-43
8.6234372e-43
8.6234139e-43
8.6234078e-43
8.6234123e-43
8.6234297e-43
8.6234769e-43
8.6243983e-43
8.6238834e-43
8.6236194e-43
8.6234896e-43
8.623431e-43
8.6234078e-43
8.6234018e-43
8.6234064e-43
8.6234238e-43
8.623471e-43
8.6244005e-43
8.6238863e-43
8.6236231e-43
8.6234938e-43
8.6234354e-43
8.6234123e-43
8.6234064e-43
8.6234109e-43
8.6234283e-43
8.6234756e-43
8.6244127e-43
8.6239009e-43
8.6236392e-43
8.6235107e-43
8.6234527e-43
8.6234297e-43
8.6234238e-43
8.6234283e-43
8.6234457e-43
8.623493e-43
8.624449e-43
8.6239445e-43
8.6236852e-43
8.6235575e-43
8.6234998e-43
8.6234769e-43
8.623471e-43
8.6234756e-43
8.623493e-43
8.6235403e-43
2.5277173e-42
2.5275707e-42
2.5274951e-42
2.5274578e-42
2.5274409e-42
2.5274341e-42
2.5274321e-42
2.5274327e-42
2.5274361e-42
2.5274463e-42
2.5275707e-42
2.5274241e-42
2.5273485e-42
2.5273113e-42
2.5272944e-42
2.5272876e-42
2.5272857e-42
2.5272865e-42
2.5272907e-42
2.5273029e-42
2.5274951e-42
2.5273485e-42
2.527273e-42
2.5272357e-42
2.5272189e-42
2.5272121e-42
2.5272103e-42
2.5272113e-42
2.5272159e-42
2.5272289e-42
2.5274578e-42
2.5273113e-42
2.5272357e-42
2.5271985e-42
2.5271816e-42
2.5271749e-42
2.5271731e-42
2.5271743e-42
2.5271791e-42
2.5271923e-42
2.5274409e-42
2.5272944e-42
2.5272189e-42
2.5271816e-42
2.5271648e-42
2.5271581e-42
2.5271564e-42
2.5271576e-42
2.5271625e-42
2.5271758e-42
2.5274341e-42
2.5272876e-42
2.5272121e-42
2.5271749e-42
2.5271581e-42
2.5271514e-42
2.5271497e-42
2.527151e-42
2.5271559e-42
2.5271692e-42
2.5274321e-42
2.5272857e-42
2.5272103e-42
2.5271731e-42
2.5271564e-42
2.5271497e-42
2.527148e-42
2.5271493e-42
2.5271542e-42
2.5271675e-42
2.5274327e-42
2.5272865e-42
2.5272113e-42
2.5271743e-42
2.5271576e-42
2.527151e-42
2.5271493e-42
2.5271506e-42
2.5271556e-42
2.5271689e-42
2.5274361e-42
2.5272907e-42
2.5272159e-42
2.5271791e-42
2.5271625e-42
2.5271559e-42
2.5271542e-42
2.5271556e-42
2.5271605e-42
2.5271738e-42
2.5274463e-42
2.5273029e-42
2.5272289e-42
2.5271923e-42
2.5271758e-42
2.5271692e-42
2.5271675e-42
2.5271689e-42
2.5271738e-42
2.5271871e-42
7.5048744e-42
7.5044523e-42
7.5042338e-42
7.5041258e-42
7.5040768e-42
7.504057e-42
7.5040511e-42
7.5040528e-42
7.5040627e-42
7.5040912e-42
7.5044523e-42
7.5040304e-42
7.5038119e-42
7.503704e-42
7.503655e-42
7.5036353e-42
7.5036297e-42
7.5036321e-42
7.503644e-42
7.5036787e-42
7.5042338e-42
7.5038119e-42
7.5035934e-42
7.5034855e-42
7.5034365e-42
7.503417e-42
7.5034116e-42
7.5034147e-42
7.5034279e-42
7.5034646e-42
7.5041258e-42
7.503704e-42
7.5034855e-42
7.5033776e-42
7.5033287e-42
7.5033092e-42
7.503304e-42
7.5033075e-42
7.5033214e-42
7.5033588e-42
7.5040768e-42
7.503655e-42
7.5034365e-42
7.5033287e-42
7.5032798e-42
7.5032604e-42
7.5032554e-42
7.503259e-42
7.5032731e-42
7.5033108e-42
7.504057e-42
7.5036353e-42
7.503417e-42
7.5033092e-42
7.5032604e-42
7.5032411e-42
7.5032361e-42
7.5032398e-42
7.503254e-42
7.5032918e-42
7.5040511e-42
7.5036297e-42
7.5034116e-42
7.503304e-42
7.5032554e-42
7.5032361e-42
7.5032311e-42
7.5032349e-42
7.5032491e-42
7.503287e-42
7.5040528e-42
7.5036321e-42
7.5034147e-42
7.5033075e-42
7.503259e-42
7.5032398e-42
7.5032349e-42
7.5032387e-42
7.503253e-42
7.5032908e-42
7.5040627e-42
7.503644e-42
7.5034279e-42
7.5033214e-42
7.5032731e-42
7.503254e-42
7.5032491e-42
7.503253e-42
7.5032672e-42
7.5033051e-42
7.5040912e-42
7.5036787e-42
7.5034646e-42
7.5033588e-42
7.5033108e-42
7.5032918e-42
7.503287e-42
7.5032908e-42
7.5033051e-42
7.5033429e-42
2.2659054e-41
2.2657819e-41
2.2657177e-41
2.2656859e-41
2.2656714e-41
2.2656656e-41
2.2656639e-41
2.2656644e-41
2.2656672e-41
2.2656754e-41
2.2657819e-41
2.2656584e-41
2.2655942e-41
2.2655624e-41
2.265548e-41
2.2655422e-41
2.2655405e-41
2.2655413e-41
2.2655447e-41
2.2655547e-41
2.2657177e-41
2.2655942e-41
2.26553e-41
2.2654982e-41
2.2654838e-41
2.265478e-41
2.2654765e-41
2.2654774e-41
2.2654812e-41
2.2654918e-41
2.2656859e-41
2.2655624e-41
2.2654982e-41
2.2654664e-41
2.265452e-41
2.2654463e-41
2.2654448e-41
2.2654458e-41
2.2654499e-41
2.2654607e-41
2.2656714e-41
2.265548e-41
2.2654838e-41
2.265452e-41
2.2654376e-41
2.2654319e-41
2.2654304e-41
2.2654315e-41
2.2654356e-41
2.2654465e-41
2.2656656e-41
2.2655422e-41
2.265478e-41
2.2654463e-41
2.2654319e-41
2.2654262e-41
2.2654247e-41
2.2654258e-41
2.26543e-41
2.2654409e-41
2.2656639e-41
2.2655405e-41
2.2654765e-41
2.2654448e-41
2.2654304e-41
2.2654247e-41
2.2654233e-41
2.2654244e-41
2.2654286e-41
2.2654395e-41
2.2656644e-41
2.2655413e-41
2.2654774e-41
2.2654458e-41
2.2654315e-41
2.2654258e-41
2.2654244e-41
2.2654255e-41
2.2654297e-41
2.2654406e-41
2.2656672e-41
2.2655447e-41
2.2654812e-41
2.2654499e-41
2.2654356e-41
2.26543e-41
2.2654286e-41
2.2654297e-41
2.2654339e-41
2.2654448e-41
2.2656754e-41
2.2655547e-41
2.2654918e-41
2.2654607e-41
2.2654465e-41
2.2654409e-41
2.2654395e-41
2.2654406e-41
2.2654448e-41
2.2654557e-41
6.9604684e-41
6.9601008e-41
6.9599088e-41
6.9598136e-41
6.9597703e-41
6.9597528e-41
6.9597476e-41
6.9597491e-41
6.9597575e-41
6.9597812e-41
6.9601008e-41
6.9597333e-41
6.9595414e-41
6.9594462e-41
6.9594029e-41
6.9593856e-41
6.9593806e-41
6.9593827e-41
6.959393e-41
6.9594223e-41
6.9599088e-41
6.9595414e-41
6.9593495e-41
6.9592543e-41
6.9592111e-41
6.9591938e-41
6.9591891e-41
6.9591918e-41
6.9592033e-41
6.9592344e-41
6.9598136e-41
6.9594462e-41
6.9592543e-41
6.9591592e-41
6.959116e-41
6.9590988e-41
6.9590942e-41
6.9590973e-41
6.9591094e-41
6.9591412e-41
6.9597703e-41
6.9594029e-41
6.9592111e-41
6.959116e-41
6.9590728e-41
6.9590557e-41
6.9590512e-41
6.9590545e-41
6.9590668e-41
6.9590988e-41
6.9597528e-41
6.9593856e-41
6.9591938e-41
6.9590988e-41
6.9590557e-41
6.9590386e-41
6.9590342e-41
6.9590375e-41
6.9590499e-41
6.959082e-41
6.9597476e-41
6.9593806e-41
6.9591891e-41
6.9590942e-41
6.9590512e-41
6.9590342e-41
6.9590298e-41
6.9590332e-41
6.9590456e-41
6.9590777e-41
6.9597491e-41
6.9593827e-41
6.9591918e-41
6.9590973e-41
6.9590545e-41
6.9590375e-41
6.9590332e-41
6.9590366e-41
6.959049e-41
6.9590811e-41
6.9597575e-41
6.959393e-41
6.9592033e-41
6.9591094e-41
6.9590668e-41
6.9590499e-41
6.9590456e-41
6.959049e-41
6.9590615e-41
6.9590936e-41
6.9597812e-41
6.9594223e-41
6.9592344e-41
6.9591412e-41
6.9590988e-41
6.959082e-41
6.9590777e-41
6.9590811e-41
6.9590936e-41
6.9591257e-41
2.1756207e-40
2.1755095e-40
2.1754511e-40
2.1754221e-40
2.1754089e-40
2.1754036e-40
2.175402e-40
2.1754025e-40
2.175405e-40
2.175412e-40
2.1755095e-40
2.1753982e-40
2.1753399e-40
2.1753109e-40
2.1752977e-40
2.1752924e-40
2.1752909e-40
2.1752916e-40
2.1752947e-40
2.1753034e-40
2.1754511e-40
2.1753399e-40
2.1752816e-40
2.1752526e-40
2.1752394e-40
2.1752342e-40
2.1752327e-40
2.1752336e-40
2.175237e-40
2.1752463e-40
2.1754221e-40
2.1753109e-40
2.1752526e-40
2.1752236e-40
2.1752105e-40
2.1752052e-40
2.1752038e-40
2.1752048e-40
2.1752084e-40
2.1752179e-40
2.1754089e-40
2.1752977e-40
2.1752394e-40
2.1752105e-40
2.1751973e-40
2.1751921e-40
2.1751907e-40
2.1751917e-40
2.1751954e-40
2.175205e-40
2.1754036e-40
2.1752924e-40
2.1752342e-40
2.1752052e-40
2.1751921e-40
2.1751869e-40
2.1751855e-40
2.1751865e-40
2.1751903e-40
2.1751999e-40
2.175402e-40
2.1752909e-40
2.1752327e-40
2.1752038e-40
2.1751907e-40
2.1751855e-40
2.1751842e-40
2.1751852e-40
2.175189e-40
2.1751986e-40
2.1754025e-40
2.1752916e-40
2.1752336e-40
2.1752048e-40
2.1751917e-40
2.1751865e-40
2.1751852e-40
2.1751863e-40
2.17519e-40
2.1751997e-40
2.175405e-40
2.1752947e-40
2.175237e-40
2.1752084e-40
2.1751954e-40
2.1751903e-40
2.175189e-40
2.17519e-40
2.1751938e-40
2.1752034e-40
2.175412e-40
2.1753034e-40
2.1752463e-40
2.1752179e-40
2.175205e-40
2.1751999e-40
2.1751986e-40
2.1751997e-40
2.1752034e-40
2.175213e-40
6.9199637e-40
6.9196211e-40
6.9194407e-40
6.9193509e-40
6.91931e-40
6.9192935e-40
6.9192886e-40
6.91929e-40
6.9192977e-40
6.9193188e-40
6.9196211e-40
6.9192786e-40
6.9190983e-40
6.9190085e-40
6.9189676e-40
6.9189512e-40
6.9189465e-40
6.9189485e-40
6.9189581e-40
6.9189846e-40
6.9194407e-40
6.9190983e-40
6.918918e-40
6.9188282e-40
6.9187874e-40
6.9187711e-40
6.9187666e-40
6.9187692e-40
6.9187799e-40
6.9188082e-40
6.9193509e-40
6.9190085e-40
6.9188282e-40
6.9187385e-40
6.9186977e-40
6.9186814e-40
6.9186771e-40
6.9186801e-40
6.9186914e-40
6.9187203e-40
6.91931e-40
6.9189676e-40
6.9187874e-40
6.9186977e-40
6.9186569e-40
6.9186407e-40
6.9186365e-40
6.9186396e-40
6.9186511e-40
6.9186803e-40
6.9192935e-40
6.9189512e-40
6.9187711e-40
6.9186814e-40
6.9186407e-40
6.9186245e-40
6.9186204e-40
6.9186236e-40
6.9186352e-40
6.9186644e-40
6.9192886e-40
6.9189465e-40
6.9187666e-40
6.9186771e-40
6.9186365e-40
6.9186204e-40
6.9186163e-40
6.9186195e-40
6.9186312e-40
6.9186604e-40
6.91929e-40
6.9189485e-40
6.9187692e-40
6.9186801e-40
6.9186396e-40
6.9186236e-40
6.9186195e-40
6.9186227e-40
6.9186344e-40
6.9186637e-40
6.9192977e-40
6.9189581e-40
6.9187799e-40
6.9186914e-40
6.9186511e-40
6.9186352e-40
6.9186312e-40
6.9186344e-40
6.9186461e-40
6.9186753e-40
6.9193188e-40
6.9189846e-40
6.9188082e-40
6.9187203e-40
6.9186803e-40
6.9186644e-40
6.9186604e-40
6.9186637e-40
6.9186753e-40
6.9187046e-40
2.2398663e-39
2.239759e-39
2.2397023e-39
2.239674e-39
2.2396611e-39
2.2396559e-39
2.2396543e-39
2.2396548e-39
2.2396572e-39
2.2396637e-39
2.239759e-39
2.2396517e-39
2.239595e-39
2.2395668e-39
2.2395539e-39
2.2395487e-39
2.2395472e-39
2.2395479e-39
2.2395508e-39
2.239559e-39
2.2397023e-39
2.239595e-39
2.2395383e-39
2.2395101e-39
2.2394972e-39
2.239492e-39
2.2394906e-39
2.2394915e-39
2.2394948e-39
2.2395036e-39
2.239674e-39
2.2395668e-39
2.2395101e-39
2.2394818e-39
2.2394689e-39
2.2394638e-39
2.2394625e-39
2.2394634e-39
2.2394669e-39
2.2394759e-39
2.2396611e-39
2.2395539e-39
2.2394972e-39
2.2394689e-39
2.2394561e-39
2.239451e-39
2.2394496e-39
2.2394506e-39
2.2394543e-39
2.2394633e-39
2.2396559e-39
2.2395487e-39
2.239492e-39
2.2394638e-39
2.239451e-39
2.2394459e-39
2.2394446e-39
2.2394456e-39
2.2394492e-39
2.2394583e-39
2.2396543e-39
2.2395472e-39
2.2394906e-39
2.2394625e-39
2.2394496e-39
2.2394446e-39
2.2394433e-39
2.2394443e-39
2.239448e-39
2.239457e-39
2.2396548e-39
2.2395479e-39
2.2394915e-39
2.2394634e-39
2.2394506e-39
2.2394456e-39
2.2394443e-39
2.2394453e-39
2.239449e-39
2.2394581e-39
2.2396572e-39
2.2395508e-39
2.2394948e-39
2.2394669e-39
2.2394543e-39
2.2394492e-39
2.239448e-39
2.239449e-39
2.2394527e-39
2.2394617e-39
2.2396637e-39
2.239559e-39
2.2395036e-39
2.2394759e-39
2.2394633e-39
2.2394583e-39
2.239457e-39
2.2394581e-39
2.2394617e-39
2.2394708e-39
7.3782803e-39
7.3779384e-39
7.377757e-39
7.3776664e-39
7.377625e-39
7.3776083e-39
7.3776033e-39
7.3776048e-39
7.3776124e-39
7.3776326e-39
7.3779384e-39
7.3775967e-39
7.3774154e-39
7.3773247e-39
7.3772834e-39
7.3772668e-39
7.377262e-39
7.3772641e-39
7.3772736e-39
7.3772994e-39
7.377757e-39
7.3774154e-39
7.377234e-39
7.3771434e-39
7.3771021e-39
7.3770856e-39
7.3770811e-39
7.3770838e-39
7.3770945e-39
7.3771222e-39
7.3776664e-39
7.3773247e-39
7.3771434e-39
7.3770528e-39
7.3770116e-39
7.3769951e-39
7.3769908e-39
7.3769939e-39
7.3770052e-39
7.3770335e-39
7.377625e-39
7.3772834e-39
7.3771021e-39
7.3770116e-39
7.3769704e-39
7.376954e-39
7.3769497e-39
7.3769529e-39
7.3769645e-39
7.376993e-39
7.3776083e-39
7.3772668e-39
7.3770856e-39
7.3769951e-39
7.376954e-39
7.3769376e-39
7.3769335e-39
7.3769367e-39
7.3769484e-39
7.376977e-39
7.3776033e-39
7.377262e-39
7.3770811e-39
7.3769908e-39
7.3769497e-39
7.3769335e-39
7.3769293e-39
7.3769326e-39
7.3769444e-39
7.376973e-39
7.3776048e-39
7.3772641e-39
7.3770838e-39
7.3769939e-39
7.3769529e-39
7.3769367e-39
7.3769326e-39
7.376936e-39
7.3769477e-39
7.3769763e-39
7.3776124e-39
7.3772736e-39
7.3770945e-39
7.3770052e-39
7.3769645e-39
7.3769484e-39
7.3769444e-39
7.3769477e-39
7.3769594e-39
7.376988e-39
7.3776326e-39
7.3772994e-39
7.3771222e-39
7.3770335e-39
7.376993e-39
7.376977e-39
7.376973e-39
7.3769763e-39
7.376988e-39
7.3770167e-39
2.4735198e-38
2.473409e-38
2.47335e-38
2.4733205e-38
2.473307e-38
2.4733016e-38
2.4732999e-38
2.4733004e-38
2.4733029e-38
2.4733093e-38
2.473409e-38
2.4732983e-38
2.4732393e-38
2.4732098e-38
2.4731963e-38
2.4731909e-38
2.4731893e-38
2.47319e-38
2.4731931e-38
2.4732014e-38
2.47335e-38
2.4732393e-38
2.4731803e-38
2.4731508e-38
2.4731373e-38
2.4731319e-38
2.4731305e-38
2.4731314e-38
2.4731349e-38
2.4731437e-38
2.4733205e-38
2.4732098e-38
2.4731508e-38
2.4731213e-38
2.4731078e-38
2.4731025e-38
2.4731011e-38
2.4731021e-38
2.4731057e-38
2.4731148e-38
2.473307e-38
2.4731963e-38
2.4731373e-38
2.4731078e-38
2.4730944e-38
2.473089e-38
2.4730877e-38
2.4730887e-38
2.4730925e-38
2.4731016e-38
2.4733016e-38
2.4731909e-38
2.4731319e-38
2.4731025e-38
2.473089e-38
2.4730837e-38
2.4730823e-38
2.4730834e-38
2.4730872e-38
2.4730964e-38
2.4732999e-38
2.4731893e-38
2.4731305e-38
2.4731011e-38
2.4730877e-38
2.4730823e-38
2.473081e-38
2.4730821e-38
2.4730859e-38
2.4730951e-38
2.4733004e-38
2.47319e-38
2.4731314e-38
2.4731021e-38
2.4730887e-38
2.4730834e-38
2.4730821e-38
2.4730832e-38
2.473087e-38
2.4730962e-38
2.4733029e-38
2.4731931e-38
2.4731349e-38
2.4731057e-38
2.4730925e-38
2.4730872e-38
2.4730859e-38
2.473087e-38
2.4730908e-38
2.4731e-38
2.4733093e-38
2.4732014e-38
2.4731437e-38
2.4731148e-38
2.4731016e-38
2.4730964e-38
2.4730951e-38
2.4730962e-38
2.4731e-38
2.4731092e-38
8.4393769e-38
8.4390116e-38
8.4388164e-38
8.4387185e-38
8.4386737e-38
8.4386556e-38
8.4386502e-38
8.4386518e-38
8.4386599e-38
8.4386806e-38
8.4390116e-38
8.4386465e-38
8.4384513e-38
8.4383534e-38
8.4383087e-38
8.4382907e-38
8.4382856e-38
8.4382879e-38
8.4382981e-38
8.438325e-38
8.4388164e-38
8.4384513e-38
8.4382561e-38
8.4381583e-38
8.4381136e-38
8.4380957e-38
8.4380909e-38
8.4380938e-38
8.4381054e-38
8.4381344e-38
8.4387185e-38
8.4383534e-38
8.4381583e-38
8.4380604e-38
8.4380158e-38
8.437998e-38
8.4379934e-38
8.4379967e-38
8.4380089e-38
8.4380386e-38
8.4386737e-38
8.4383087e-38
8.4381136e-38
8.4380158e-38
8.4379712e-38
8.4379534e-38
8.4379489e-38
8.4379524e-38
8.4379649e-38
8.4379949e-38
8.4386556e-38
8.4382907e-38
8.4380957e-38
8.437998e-38
8.4379534e-38
8.4379357e-38
8.4379313e-38
8.4379349e-38
8.4379475e-38
8.4379775e-38
8.4386502e-38
8.4382856e-38
8.4380909e-38
8.4379934e-38
8.4379489e-38
8.4379313e-38
8.4379269e-38
8.4379305e-38
8.4379431e-38
8.4379732e-38
8.4386518e-38
8.4382879e-38
8.4380938e-38
8.4379967e-38
8.4379524e-38
8.4379349e-38
8.4379305e-38
8.4379342e-38
8.4379468e-38
8.4379769e-38
8.4386599e-38
8.4382981e-38
8.4381054e-38
8.4380089e-38
8.4379649e-38
8.4379475e-38
8.4379431e-38
8.4379468e-38
8.4379595e-38
8.4379896e-38
8.4386806e-38
8.438325e-38
8.4381344e-38
8.4380386e-38
8.4379949e-38
8.4379775e-38
8.4379732e-38
8.4379769e-38
8.4379896e-38
8.4380197e-38
2.9305052e-37
2.9303827e-37
2.930317e-37
2.930284e-37
2.9302689e-37
2.9302628e-37
2.930261e-37
2.9302615e-37
2.9302642e-37
2.930271e-37
2.9303827e-37
2.9302603e-37
2.9301946e-37
2.9301616e-37
2.9301465e-37
2.9301404e-37
2.9301387e-37
2.9301395e-37
2.9301429e-37
2.9301518e-37
2.930317e-37
2.9301946e-37
2.9301289e-37
2.9300959e-37
2.9300808e-37
2.9300748e-37
2.9300732e-37
2.9300742e-37
2.9300781e-37
2.9300877e-37
2.930284e-37
2.9301616e-37
2.9300959e-37
2.9300629e-37
2.9300478e-37
2.9300418e-37
2.9300403e-37
2.9300414e-37
2.9300455e-37
2.9300554e-37
2.9302689e-37
2.9301465e-37
2.9300808e-37
2.9300478e-37
2.9300328e-37
2.9300268e-37
2.9300253e-37
2.9300265e-37
2.9300307e-37
2.9300407e-37
2.9302628e-37
2.9301404e-37
2.9300748e-37
2.9300418e-37
2.9300268e-37
2.9300208e-37
2.9300194e-37
2.9300206e-37
2.9300248e-37
2.9300348e-37
2.930261e-37
2.9301387e-37
2.9300732e-37
2.9300403e-37
2.9300253e-37
2.9300194e-37
2.9300179e-37
2.9300191e-37
2.9300234e-37
2.9300334e-37
2.9302615e-37
2.9301395e-37
2.9300742e-37
2.9300414e-37
2.9300265e-37
2.9300206e-37
2.9300191e-37
2.9300204e-37
2.9300246e-37
2.9300346e-37
2.9302642e-37
2.9301429e-37
2.9300781e-37
2.9300455e-37
2.9300307e-37
2.9300248e-37
2.9300234e-37
2.9300246e-37
2.9300289e-37
2.9300389e-37
2.930271e-37
2.9301518e-37
2.9300877e-37
2.9300554e-37
2.9300407e-37
2.9300348e-37
2.9300334e-37
2.9300346e-37
2.9300389e-37
2.9300489e-37
1.0356399e-36
1.0355981e-36
1.0355756e-36
1.0355643e-36
1.0355591e-36
1.035557e-36
1.0355564e-36
1.0355566e-36
1.0355575e-36
1.0355598e-36
1.0355981e-36
1.0355563e-36
1.0355338e-36
1.0355225e-36
1.0355173e-36
1.0355153e-36
1.0355147e-36
1.0355149e-36
1.0355161e-36
1.0355191e-36
1.0355756e-36
1.0355338e-36
1.0355114e-36
1.0355e-36
1.0354949e-36
1.0354928e-36
1.0354922e-36
1.0354926e-36
1.0354939e-36
1.0354972e-36
1.0355643e-36
1.0355225e-36
1.0355e-36
1.0354887e-36
1.0354836e-36
1.0354815e-36
1.035481e-36
1.0354814e-36
1.0354828e-36
1.0354861e-36
1.0355591e-36
1.0355173e-36
1.0354949e-36
1.0354836e-36
1.0354784e-36
1.0354763e-36
1.0354758e-36
1.0354762e-36
1.0354777e-36
1.0354811e-36
1.035557e-36
1.0355153e-36
1.0354928e-36
1.0354815e-36
1.0354763e-36
1.0354743e-36
1.0354738e-36
1.0354742e-36
1.0354757e-36
1.0354791e-36
1.0355564e-36
1.0355147e-36
1.0354922e-36
1.035481e-36
1.0354758e-36
1.0354738e-36
1.0354733e-36
1.0354737e-36
1.0354752e-36
1.0354786e-36
1.0355566e-36
1.0355149e-36
1.0354926e-36
1.0354814e-36
1.0354762e-36
1.0354742e-36
1.0354737e-36
1.0354741e-36
1.0354756e-36
1.035479e-36
1.0355575e-36
1.0355161e-36
1.0354939e-36
1.0354828e-36
1.0354777e-36
1.0354757e-36
1.0354752e-36
1.0354756e-36
1.0354771e-36
1.0354805e-36
1.0355598e-36
1.0355191e-36
1.0354972e-36
1.0354861e-36
1.0354811e-36
1.0354791e-36
1.0354786e-36
1.035479e-36
1.0354805e-36
1.0354839e-36
3.7247794e-36
3.7246345e-36
3.7245562e-36
3.7245167e-36
3.7244986e-36
3.7244913e-36
3.7244891e-36
3.7244898e-36
3.724493e-36
3.7245007e-36
3.7246345e-36
3.7244895e-36
3.7244113e-36
3.7243718e-36
3.7243537e-36
3.7243464e-36
3.7243444e-36
3.7243453e-36
3.7243494e-36
3.7243598e-36
3.7245562e-36
3.7244113e-36
3.724333e-36
3.7242935e-36
3.7242755e-36
3.7242682e-36
3.7242663e-36
3.7242675e-36
3.7242722e-36
3.7242834e-36
3.7245167e-36
3.7243718e-36
3.7242935e-36
3.7242541e-36
3.724236e-36
3.7242288e-36
3.724227e-36
3.7242284e-36
3.7242333e-36
3.7242449e-36
3.7244986e-36
3.7243537e-36
3.7242755e-36
3.724236e-36
3.724218e-36
3.7242108e-36
3.724209e-36
3.7242105e-36
3.7242156e-36
3.7242272e-36
3.7244913e-36
3.7243464e-36
3.7242682e-36
3.7242288e-36
3.7242108e-36
3.7242037e-36
3.7242019e-36
3.7242034e-36
3.7242085e-36
3.7242202e-36
3.7244891e-36
3.7243444e-36
3.7242663e-36
3.724227e-36
3.724209e-36
3.7242019e-36
3.7242002e-36
3.7242017e-36
3.7242068e-36
3.7242185e-36
3.7244898e-36
3.7243453e-36
3.7242675e-36
3.7242284e-36
3.7242105e-36
3.7242034e-36
3.7242017e-36
3.7242032e-36
3.7242083e-36
3.7242201e-36
3.724493e-36
3.7243494e-36
3.7242722e-36
3.7242333e-36
3.7242156e-36
3.7242085e-36
3.7242068e-36
3.7242083e-36
3.7242135e-36
3.7242252e-36
3.7245007e-36
3.7243598e-36
3.7242834e-36
3.7242449e-36
3.7242272e-36
3.7242202e-36
3.7242185e-36
3.7242201e-36
3.7242252e-36
3.7242369e-36
1.3633374e-35
1.3632863e-35
1.3632585e-35
1.3632445e-35
1.3632381e-35
1.3632355e-35
1.3632348e-35
1.363235e-35
1.3632361e-35
1.3632388e-35
1.3632863e-35
1.3632351e-35
1.3632074e-35
1.3631934e-35
1.363187e-35
1.3631844e-35
1.3631837e-35
1.363184e-35
1.3631855e-35
1.3631891e-35
1.3632585e-35
1.3632074e-35
1.3631797e-35
1.3631657e-35
1.3631593e-35
1.3631567e-35
1.363156e-35
1.3631565e-35
1.3631581e-35
1.3631621e-35
1.3632445e-35
1.3631934e-35
1.3631657e-35
1.3631517e-35
1.3631453e-35
1.3631428e-35
1.3631421e-35
1.3631426e-35
1.3631444e-35
1.3631484e-35
1.3632381e-35
1.363187e-35
1.3631593e-35
1.3631453e-35
1.3631389e-35
1.3631364e-35
1.3631357e-35
1.3631363e-35
1.3631381e-35
1.3631422e-35
1.3632355e-35
1.3631844e-35
1.3631567e-35
1.3631428e-35
1.3631364e-35
1.3631338e-35
1.3631332e-35
1.3631338e-35
1.3631356e-35
1.3631397e-35
1.3632348e-35
1.3631837e-35
1.363156e-35
1.3631421e-35
1.3631357e-35
1.3631332e-35
1.3631326e-35
1.3631331e-35
1.3631349e-35
1.3631391e-35
1.363235e-35
1.363184e-35
1.3631565e-35
1.3631426e-35
1.3631363e-35
1.3631338e-35
1.3631331e-35
1.3631337e-35
1.3631355e-35
1.3631396e-35
1.3632361e-35
1.3631855e-35
1.3631581e-35
1.3631444e-35
1.3631381e-35
1.3631356e-35
1.3631349e-35
1.3631355e-35
1.3631373e-35
1.3631414e-35
1.3632388e-35
1.3631891e-35
1.3631621e-35
1.3631484e-35
1.3631422e-35
1.3631397e-35
1.3631391e-35
1.3631396e-35
1.3631414e-35
1.3631456e-35
5.0780437e-35
5.07786e-35
5.0777602e-35
5.0777097e-35
5.0776865e-35
5.0776771e-35
5.0776744e-35
5.0776753e-35
5.0776793e-35
5.0776888e-35
5.07786e-35
5.0776765e-35
5.0775767e-35
5.0775262e-35
5.077503e-35
5.0774937e-35
5.0774911e-35
5.0774924e-35
5.0774976e-35
5.0775106e-35
5.0777602e-35
5.0775767e-35
5.0774769e-35
5.0774264e-35
5.0774033e-35
5.077394e-35
5.0773916e-35
5.0773932e-35
5.0773992e-35
5.0774133e-35
5.0777097e-35
5.0775262e-35
5.0774264e-35
5.077376e-35
5.0773528e-35
5.0773436e-35
5.0773413e-35
5.0773431e-35
5.0773495e-35
5.077364e-35
5.0776865e-35
5.077503e-35
5.0774033e-35
5.0773528e-35
5.0773298e-35
5.0773206e-35
5.0773183e-35
5.0773202e-35
5.0773267e-35
5.0773414e-35
5.0776771e-35
5.0774937e-35
5.077394e-35
5.0773436e-35
5.0773206e-35
5.0773114e-35
5.0773092e-35
5.0773112e-35
5.0773177e-35
5.0773324e-35
5.0776744e-35
5.0774911e-35
5.0773916e-35
5.0773413e-35
5.0773183e-35
5.0773092e-35
5.077307e-35
5.077309e-35
5.0773155e-35
5.0773303e-35
5.0776753e-35
5.0774924e-35
5.0773932e-35
5.0773431e-35
5.0773202e-35
5.0773112e-35
5.077309e-35
5.077311e-35
5.0773176e-35
5.0773323e-35
5.0776793e-35
5.0774976e-35
5.0773992e-35
5.0773495e-35
5.0773267e-35
5.0773177e-35
5.0773155e-35
5.0773176e-35
5.0773242e-35
5.0773389e-35
5.0776888e-35
5.0775106e-35
5.0774133e-35
5.077364e-35
5.0773414e-35
5.0773324e-35
5.0773303e-35
5.0773323e-35
5.0773389e-35
5.0773536e-35
1.9246535e-34
1.9245865e-34
1.9245499e-34
1.9245314e-34
1.9245229e-34
1.9245194e-34
1.9245184e-34
1.9245188e-34
1.9245203e-34
1.9245237e-34
1.9245865e-34
1.9245195e-34
1.9244829e-34
1.9244644e-34
1.9244559e-34
1.9244525e-34
1.9244515e-34
1.924452e-34
1.9244539e-34
1.9244586e-34
1.9245499e-34
1.9244829e-34
1.9244464e-34
1.9244279e-34
1.9244194e-34
1.924416e-34
1.9244151e-34
1.9244157e-34
1.9244179e-34
1.924423e-34
1.9245314e-34
1.9244644e-34
1.9244279e-34
1.9244094e-34
1.9244009e-34
1.9243975e-34
1.9243967e-34
1.9243974e-34
1.9243997e-34
1.924405e-34
1.9245229e-34
1.9244559e-34
1.9244194e-34
1.9244009e-34
1.9243924e-34
1.9243891e-34
1.9243882e-34
1.924389e-34
1.9243913e-34
1.9243967e-34
1.9245194e-34
1.9244525e-34
1.924416e-34
1.9243975e-34
1.9243891e-34
1.9243857e-34
1.9243849e-34
1.9243856e-34
1.924388e-34
1.9243934e-34
1.9245184e-34
1.9244515e-34
1.9244151e-34
1.9243967e-34
1.9243882e-34
1.9243849e-34
1.9243841e-34
1.9243848e-34
1.9243872e-34
1.9243926e-34
1.9245188e-34
1.924452e-34
1.9244157e-34
1.9243974e-34
1.924389e-34
1.9243856e-34
1.9243848e-34
1.9243856e-34
1.924388e-34
1.9243934e-34
1.9245203e-34
1.9244539e-34
1.9244179e-34
1.9243997e-34
1.9243913e-34
1.924388e-34
1.9243872e-34
1.924388e-34
1.9243904e-34
1.9243958e-34
1.9245237e-34
1.9244586e-34
1.924423e-34
1.924405e-34
1.9243967e-34
1.9243934e-34
1.9243926e-34
1.9243934e-34
1.9243958e-34
1.9244012e-34
7.422286e-34
7.4220373e-34
7.4219012e-34
7.4218321e-34
7.4218004e-34
7.4217875e-34
7.4217838e-34
7.421785e-34
7.4217906e-34
7.421803e-34
7.4220373e-34
7.4217887e-34
7.4216526e-34
7.4215836e-34
7.4215519e-34
7.4215391e-34
7.4215355e-34
7.4215373e-34
7.4215445e-34
7.4215619e-34
7.4219012e-34
7.4216526e-34
7.4215166e-34
7.4214476e-34
7.4214159e-34
7.4214032e-34
7.4213999e-34
7.4214022e-34
7.4214104e-34
7.4214294e-34
7.4218321e-34
7.4215836e-34
7.4214476e-34
7.4213786e-34
7.4213469e-34
7.4213343e-34
7.4213312e-34
7.4213337e-34
7.4213425e-34
7.421362e-34
7.4218004e-34
7.4215519e-34
7.4214159e-34
7.4213469e-34
7.4213153e-34
7.4213027e-34
7.4212997e-34
7.4213024e-34
7.4213113e-34
7.4213311e-34
7.4217875e-34
7.4215391e-34
7.4214032e-34
7.4213343e-34
7.4213027e-34
7.4212902e-34
7.4212872e-34
7.42129e-34
7.421299e-34
7.4213189e-34
7.4217838e-34
7.4215355e-34
7.4213999e-34
7.4213312e-34
7.4212997e-34
7.4212872e-34
7.4212842e-34
7.421287e-34
7.4212961e-34
7.4213159e-34
7.421785e-34
7.4215373e-34
7.4214022e-34
7.4213337e-34
7.4213024e-34
7.42129e-34
7.421287e-34
7.4212899e-34
7.421299e-34
7.4213189e-34
7.4217906e-34
7.4215445e-34
7.4214104e-34
7.4213425e-34
7.4213113e-34
7.421299e-34
7.4212961e-34
7.421299e-34
7.421308e-34
7.4213279e-34
7.421803e-34
7.4215619e-34
7.4214294e-34
7.421362e-34
7.4213311e-34
7.4213189e-34
7.4213159e-34
7.4213189e-34
7.4213279e-34
7.4213478e-34
2.9121292e-33
2.9120354e-33
2.9119839e-33
2.9119577e-33
2.9119457e-33
2.9119408e-33
2.9119394e-33
2.9119398e-33
2.9119419e-33
2.9119466e-33
2.9120354e-33
2.9119416e-33
2.9118901e-33
2.9118639e-33
2.9118519e-33
2.911847e-33
2.9118457e-33
2.9118464e-33
2.9118491e-33
2.9118556e-33
2.9119839e-33
2.9118901e-33
2.9118386e-33
2.9118124e-33
2.9118004e-33
2.9117956e-33
2.9117944e-33
2.9117952e-33
2.9117984e-33
2.9118055e-33
2.9119577e-33
2.9118639e-33
2.9118124e-33
2.9117863e-33
2.9117743e-33
2.9117695e-33
2.9117683e-33
2.9117693e-33
2.9117726e-33
2.91178e-33
2.9119457e-33
2.9118519e-33
2.9118004e-33
2.9117743e-33
2.9117623e-33
2.9117575e-33
2.9117564e-33
2.9117574e-33
2.9117608e-33
2.9117683e-33
2.9119408e-33
2.911847e-33
2.9117956e-33
2.9117695e-33
2.9117575e-33
2.9117528e-33
2.9117516e-33
2.9117527e-33
2.9117562e-33
2.9117636e-33
2.9119394e-33
2.9118457e-33
2.9117944e-33
2.9117683e-33
2.9117564e-33
2.9117516e-33
2.9117505e-33
2.9117516e-33
2.911755e-33
2.9117625e-33
2.9119398e-33
2.9118464e-33
2.9117952e-33
2.9117693e-33
2.9117574e-33
2.9117527e-33
2.9117516e-33
2.9117527e-33
2.9117562e-33
2.9117637e-33
2.9119419e-33
2.9118491e-33
2.9117984e-33
2.9117726e-33
2.9117608e-33
2.9117562e-33
2.911755e-33
2.9117562e-33
2.9117596e-33
2.9117671e-33
2.9119466e-33
2.9118556e-33
2.9118055e-33
2.91178e-33
2.9117683e-33
2.9117636e-33
2.9117625e-33
2.9117637e-33
2.9117671e-33
2.9117746e-33
1.162312e-32