/*--------------------------------*- C++ -*----------------------------------*\
| =========                 |                                                 |
| \\      /  F ield         | OpenFOAM: The Open Source CFD Toolbox           |
|  \\    /   O peration     | Version:  dev                                   |
|   \\  /    A nd           | Web:      www.OpenFOAM.org                      |
|    \\/     M anipulation  |                                                 |
\*---------------------------------------------------------------------------*/
FoamFile
{
    version     2.0;
    format      ascii;
    class       volScalarField;
    location    "30";
    object      A_0;
}
// * * * * * * * * * * * * * * * * * * * * * * * * * * * * * * * * * * * * * //

dimensions      [0 0 0 0 1 0 0];

internalField   nonuniform List<scalar> 
10000
(
6.8519294e-44
6.8514935e-44
6.851275e-44
6.851168e-44
6.8511196e-44
6.8511e-44
6.8510942e-44
6.851096e-44
6.8511062e-44
6.851135e-44
6.8514935e-44
6.8510577e-44
6.8508393e-44
6.8507323e-44
6.8506839e-44
6.8506645e-44
6.8506589e-44
6.8506613e-44
6.8506735e-44
6.8507082e-44
6.851275e-44
6.8508393e-44
6.8506209e-44
6.8505139e-44
6.8504656e-44
6.8504463e-44
6.850441e-44
6.850444e-44
6.8504574e-44
6.850494e-44
6.851168e-44
6.8507323e-44
6.8505139e-44
6.8504069e-44
6.8503586e-44
6.8503394e-44
6.8503343e-44
6.8503377e-44
6.8503517e-44
6.850389e-44
6.8511196e-44
6.8506839e-44
6.8504656e-44
6.8503586e-44
6.8503104e-44
6.8502912e-44
6.8502862e-44
6.8502898e-44
6.850304e-44
6.8503416e-44
6.8511e-44
6.8506645e-44
6.8504463e-44
6.8503394e-44
6.8502912e-44
6.8502721e-44
6.8502671e-44
6.8502708e-44
6.8502852e-44
6.8503228e-44
6.8510942e-44
6.8506589e-44
6.850441e-44
6.8503343e-44
6.8502862e-44
6.8502671e-44
6.8502622e-44
6.8502659e-44
6.8502803e-44
6.8503179e-44
6.851096e-44
6.8506613e-44
6.850444e-44
6.8503377e-44
6.8502898e-44
6.8502708e-44
6.8502659e-44
6.8502696e-44
6.850284e-44
6.8503217e-44
6.8511062e-44
6.8506735e-44
6.8504574e-44
6.8503517e-44
6.850304e-44
6.8502852e-44
6.8502803e-44
6.850284e-44
6.8502984e-44
6.8503361e-44
6.851135e-44
6.8507082e-44
6.850494e-44
6.850389e-44
6.8503416e-44
6.8503228e-44
6.8503179e-44
6.8503217e-44
6.8503361e-44
6.8503738e-44
2.8652985e-43
2.8651219e-43
2.8650319e-43
2.8649878e-43
2.8649678e-43
2.8649597e-43
2.8649573e-43
2.8649581e-43
2.8649622e-43
2.8649746e-43
2.8651219e-43
2.8649454e-43
2.8648555e-43
2.8648113e-43
2.8647914e-43
2.8647833e-43
2.864781e-43
2.864782e-43
2.864787e-43
2.8648018e-43
2.8650319e-43
2.8648555e-43
2.8647655e-43
2.8647214e-43
2.8647014e-43
2.8646935e-43
2.8646913e-43
2.8646925e-43
2.864698e-43
2.8647136e-43
2.8649878e-43
2.8648113e-43
2.8647214e-43
2.8646773e-43
2.8646573e-43
2.8646494e-43
2.8646473e-43
2.8646487e-43
2.8646544e-43
2.8646703e-43
2.8649678e-43
2.8647914e-43
2.8647014e-43
2.8646573e-43
2.8646374e-43
2.8646295e-43
2.8646274e-43
2.8646289e-43
2.8646348e-43
2.8646507e-43
2.8649597e-43
2.8647833e-43
2.8646935e-43
2.8646494e-43
2.8646295e-43
2.8646216e-43
2.8646195e-43
2.8646211e-43
2.864627e-43
2.8646429e-43
2.8649573e-43
2.864781e-43
2.8646913e-43
2.8646473e-43
2.8646274e-43
2.8646195e-43
2.8646175e-43
2.864619e-43
2.864625e-43
2.8646409e-43
2.8649581e-43
2.864782e-43
2.8646925e-43
2.8646487e-43
2.8646289e-43
2.8646211e-43
2.864619e-43
2.8646206e-43
2.8646265e-43
2.8646425e-43
2.8649622e-43
2.864787e-43
2.864698e-43
2.8646544e-43
2.8646348e-43
2.864627e-43
2.864625e-43
2.8646265e-43
2.8646324e-43
2.8646484e-43
2.8649746e-43
2.8648018e-43
2.8647136e-43
2.8646703e-43
2.8646507e-43
2.8646429e-43
2.8646409e-43
2.8646425e-43
2.8646484e-43
2.8646644e-43
8.5509326e-43
8.5504212e-43
8.5501588e-43
8.5500297e-43
8.5499712e-43
8.5499477e-43
8.5499406e-43
8.5499427e-43
8.5499548e-43
8.5499908e-43
8.5504212e-43
8.5499099e-43
8.5496476e-43
8.5495185e-43
8.5494601e-43
8.5494367e-43
8.5494299e-43
8.5494329e-43
8.5494473e-43
8.5494905e-43
8.5501588e-43
8.5496476e-43
8.5493852e-43
8.5492562e-43
8.5491979e-43
8.5491746e-43
8.5491681e-43
8.5491718e-43
8.5491878e-43
8.5492334e-43
8.5500297e-43
8.5495185e-43
8.5492562e-43
8.5491272e-43
8.5490689e-43
8.5490457e-43
8.5490395e-43
8.5490437e-43
8.5490604e-43
8.5491068e-43
8.5499712e-43
8.5494601e-43
8.5491979e-43
8.5490689e-43
8.5490106e-43
8.5489875e-43
8.5489814e-43
8.5489858e-43
8.5490029e-43
8.5490496e-43
8.5499477e-43
8.5494367e-43
8.5491746e-43
8.5490457e-43
8.5489875e-43
8.5489644e-43
8.5489584e-43
8.5489629e-43
8.5489801e-43
8.5490269e-43
8.5499406e-43
8.5494299e-43
8.5491681e-43
8.5490395e-43
8.5489814e-43
8.5489584e-43
8.5489525e-43
8.548957e-43
8.5489742e-43
8.549021e-43
8.5499427e-43
8.5494329e-43
8.5491718e-43
8.5490437e-43
8.5489858e-43
8.5489629e-43
8.548957e-43
8.5489615e-43
8.5489787e-43
8.5490256e-43
8.5499548e-43
8.5494473e-43
8.5491878e-43
8.5490604e-43
8.5490029e-43
8.5489801e-43
8.5489742e-43
8.5489787e-43
8.548996e-43
8.5490428e-43
8.5499908e-43
8.5494905e-43
8.5492334e-43
8.5491068e-43
8.5490496e-43
8.5490269e-43
8.549021e-43
8.5490256e-43
8.5490428e-43
8.5490897e-43
2.5061398e-42
2.5059944e-42
2.5059194e-42
2.5058825e-42
2.5058657e-42
2.505859e-42
2.5058569e-42
2.5058575e-42
2.5058609e-42
2.505871e-42
2.5059944e-42
2.505849e-42
2.5057741e-42
2.5057371e-42
2.5057204e-42
2.5057137e-42
2.5057117e-42
2.5057126e-42
2.5057167e-42
2.5057288e-42
2.5059194e-42
2.5057741e-42
2.5056991e-42
2.5056622e-42
2.5056455e-42
2.5056388e-42
2.505637e-42
2.505638e-42
2.5056426e-42
2.5056554e-42
2.5058825e-42
2.5057371e-42
2.5056622e-42
2.5056253e-42
2.5056086e-42
2.5056019e-42
2.5056001e-42
2.5056013e-42
2.5056061e-42
2.5056192e-42
2.5058657e-42
2.5057204e-42
2.5056455e-42
2.5056086e-42
2.5055919e-42
2.5055852e-42
2.5055835e-42
2.5055847e-42
2.5055896e-42
2.5056028e-42
2.505859e-42
2.5057137e-42
2.5056388e-42
2.5056019e-42
2.5055852e-42
2.5055786e-42
2.5055769e-42
2.5055782e-42
2.5055831e-42
2.5055963e-42
2.5058569e-42
2.5057117e-42
2.505637e-42
2.5056001e-42
2.5055835e-42
2.5055769e-42
2.5055752e-42
2.5055765e-42
2.5055814e-42
2.5055946e-42
2.5058575e-42
2.5057126e-42
2.505638e-42
2.5056013e-42
2.5055847e-42
2.5055782e-42
2.5055765e-42
2.5055778e-42
2.5055827e-42
2.5055959e-42
2.5058609e-42
2.5057167e-42
2.5056426e-42
2.5056061e-42
2.5055896e-42
2.5055831e-42
2.5055814e-42
2.5055827e-42
2.5055876e-42
2.5056008e-42
2.505871e-42
2.5057288e-42
2.5056554e-42
2.5056192e-42
2.5056028e-42
2.5055963e-42
2.5055946e-42
2.5055959e-42
2.5056008e-42
2.505614e-42
7.4415608e-42
7.4411422e-42
7.4409254e-42
7.4408183e-42
7.4407697e-42
7.4407501e-42
7.4407442e-42
7.4407459e-42
7.4407557e-42
7.440784e-42
7.4411422e-42
7.4407237e-42
7.4405069e-42
7.4403999e-42
7.4403513e-42
7.4403318e-42
7.4403262e-42
7.4403287e-42
7.4403404e-42
7.4403749e-42
7.4409254e-42
7.4405069e-42
7.4402902e-42
7.4401832e-42
7.4401347e-42
7.4401153e-42
7.44011e-42
7.440113e-42
7.4401261e-42
7.4401626e-42
7.4408183e-42
7.4403999e-42
7.4401832e-42
7.4400762e-42
7.4400277e-42
7.4400084e-42
7.4400033e-42
7.4400067e-42
7.4400204e-42
7.4400576e-42
7.4407697e-42
7.4403513e-42
7.4401347e-42
7.4400277e-42
7.4399793e-42
7.43996e-42
7.439955e-42
7.4399586e-42
7.4399726e-42
7.44001e-42
7.4407501e-42
7.4403318e-42
7.4401153e-42
7.4400084e-42
7.43996e-42
7.4399408e-42
7.4399359e-42
7.4399396e-42
7.4399537e-42
7.4399912e-42
7.4407442e-42
7.4403262e-42
7.44011e-42
7.4400033e-42
7.439955e-42
7.4399359e-42
7.439931e-42
7.4399347e-42
7.4399488e-42
7.4399863e-42
7.4407459e-42
7.4403287e-42
7.440113e-42
7.4400067e-42
7.4399586e-42
7.4399396e-42
7.4399347e-42
7.4399385e-42
7.4399526e-42
7.4399901e-42
7.4407557e-42
7.4403404e-42
7.4401261e-42
7.4400204e-42
7.4399726e-42
7.4399537e-42
7.4399488e-42
7.4399526e-42
7.4399668e-42
7.4400043e-42
7.440784e-42
7.4403749e-42
7.4401626e-42
7.4400576e-42
7.44001e-42
7.4399912e-42
7.4399863e-42
7.4399901e-42
7.4400043e-42
7.4400418e-42
2.2470196e-41
2.2468971e-41
2.2468334e-41
2.2468018e-41
2.2467875e-41
2.2467817e-41
2.24678e-41
2.2467805e-41
2.2467833e-41
2.2467914e-41
2.2468971e-41
2.2467746e-41
2.2467109e-41
2.2466794e-41
2.2466651e-41
2.2466593e-41
2.2466577e-41
2.2466584e-41
2.2466618e-41
2.2466717e-41
2.2468334e-41
2.2467109e-41
2.2466472e-41
2.2466157e-41
2.2466014e-41
2.2465957e-41
2.2465941e-41
2.246595e-41
2.2465988e-41
2.2466093e-41
2.2468018e-41
2.2466794e-41
2.2466157e-41
2.2465842e-41
2.2465699e-41
2.2465642e-41
2.2465627e-41
2.2465637e-41
2.2465677e-41
2.2465784e-41
2.2467875e-41
2.2466651e-41
2.2466014e-41
2.2465699e-41
2.2465556e-41
2.2465499e-41
2.2465484e-41
2.2465495e-41
2.2465536e-41
2.2465644e-41
2.2467817e-41
2.2466593e-41
2.2465957e-41
2.2465642e-41
2.2465499e-41
2.2465443e-41
2.2465428e-41
2.2465439e-41
2.246548e-41
2.2465589e-41
2.24678e-41
2.2466577e-41
2.2465941e-41
2.2465627e-41
2.2465484e-41
2.2465428e-41
2.2465414e-41
2.2465425e-41
2.2465466e-41
2.2465574e-41
2.2467805e-41
2.2466584e-41
2.246595e-41
2.2465637e-41
2.2465495e-41
2.2465439e-41
2.2465425e-41
2.2465436e-41
2.2465477e-41
2.2465586e-41
2.2467833e-41
2.2466618e-41
2.2465988e-41
2.2465677e-41
2.2465536e-41
2.246548e-41
2.2465466e-41
2.2465477e-41
2.2465519e-41
2.2465627e-41
2.2467914e-41
2.2466717e-41
2.2466093e-41
2.2465784e-41
2.2465644e-41
2.2465589e-41
2.2465574e-41
2.2465586e-41
2.2465627e-41
2.2465736e-41
6.90317e-41
6.9028054e-41
6.9026149e-41
6.9025205e-41
6.9024775e-41
6.9024602e-41
6.902455e-41
6.9024565e-41
6.9024649e-41
6.9024884e-41
6.9028054e-41
6.9024409e-41
6.9022505e-41
6.902156e-41
6.9021131e-41
6.9020959e-41
6.9020909e-41
6.9020931e-41
6.9021033e-41
6.9021323e-41
6.9026149e-41
6.9022505e-41
6.9020601e-41
6.9019657e-41
6.9019228e-41
6.9019057e-41
6.901901e-41
6.9019037e-41
6.9019151e-41
6.901946e-41
6.9025205e-41
6.902156e-41
6.9019657e-41
6.9018713e-41
6.9018285e-41
6.9018114e-41
6.9018069e-41
6.9018099e-41
6.9018219e-41
6.9018534e-41
6.9024775e-41
6.9021131e-41
6.9019228e-41
6.9018285e-41
6.9017857e-41
6.9017686e-41
6.9017642e-41
6.9017674e-41
6.9017797e-41
6.9018114e-41
6.9024602e-41
6.9020959e-41
6.9019057e-41
6.9018114e-41
6.9017686e-41
6.9017517e-41
6.9017473e-41
6.9017506e-41
6.9017629e-41
6.9017948e-41
6.902455e-41
6.9020909e-41
6.901901e-41
6.9018069e-41
6.9017642e-41
6.9017473e-41
6.901743e-41
6.9017463e-41
6.9017587e-41
6.9017905e-41
6.9024565e-41
6.9020931e-41
6.9019037e-41
6.9018099e-41
6.9017674e-41
6.9017506e-41
6.9017463e-41
6.9017497e-41
6.901762e-41
6.9017939e-41
6.9024649e-41
6.9021033e-41
6.9019151e-41
6.9018219e-41
6.9017797e-41
6.9017629e-41
6.9017587e-41
6.901762e-41
6.9017744e-41
6.9018063e-41
6.9024884e-41
6.9021323e-41
6.901946e-41
6.9018534e-41
6.9018114e-41
6.9017948e-41
6.9017905e-41
6.9017939e-41
6.9018063e-41
6.9018381e-41
2.1579374e-40
2.157827e-40
2.1577692e-40
2.1577404e-40
2.1577273e-40
2.157722e-40
2.1577204e-40
2.1577209e-40
2.1577234e-40
2.1577304e-40
2.157827e-40
2.1577167e-40
2.1576588e-40
2.1576301e-40
2.157617e-40
2.1576117e-40
2.1576102e-40
2.1576109e-40
2.1576139e-40
2.1576226e-40
2.1577692e-40
2.1576588e-40
2.1576009e-40
2.1575722e-40
2.1575591e-40
2.1575539e-40
2.1575525e-40
2.1575533e-40
2.1575567e-40
2.157566e-40
2.1577404e-40
2.1576301e-40
2.1575722e-40
2.1575434e-40
2.1575304e-40
2.1575252e-40
2.1575238e-40
2.1575247e-40
2.1575284e-40
2.1575378e-40
2.1577273e-40
2.157617e-40
2.1575591e-40
2.1575304e-40
2.1575173e-40
2.1575122e-40
2.1575108e-40
2.1575118e-40
2.1575155e-40
2.157525e-40
2.157722e-40
2.1576117e-40
2.1575539e-40
2.1575252e-40
2.1575122e-40
2.157507e-40
2.1575057e-40
2.1575067e-40
2.1575104e-40
2.1575199e-40
2.1577204e-40
2.1576102e-40
2.1575525e-40
2.1575238e-40
2.1575108e-40
2.1575057e-40
2.1575043e-40
2.1575054e-40
2.1575091e-40
2.1575186e-40
2.1577209e-40
2.1576109e-40
2.1575533e-40
2.1575247e-40
2.1575118e-40
2.1575067e-40
2.1575054e-40
2.1575064e-40
2.1575101e-40
2.1575197e-40
2.1577234e-40
2.1576139e-40
2.1575567e-40
2.1575284e-40
2.1575155e-40
2.1575104e-40
2.1575091e-40
2.1575101e-40
2.1575139e-40
2.1575234e-40
2.1577304e-40
2.1576226e-40
2.157566e-40
2.1575378e-40
2.157525e-40
2.1575199e-40
2.1575186e-40
2.1575197e-40
2.1575234e-40
2.157533e-40
6.8644469e-40
6.864107e-40
6.863928e-40
6.8638389e-40
6.8637983e-40
6.8637819e-40
6.863777e-40
6.8637784e-40
6.8637861e-40
6.8638071e-40
6.864107e-40
6.8637672e-40
6.8635882e-40
6.8634991e-40
6.8634586e-40
6.8634423e-40
6.8634376e-40
6.8634397e-40
6.8634491e-40
6.8634754e-40
6.863928e-40
6.8635882e-40
6.8634093e-40
6.8633202e-40
6.8632797e-40
6.8632635e-40
6.8632591e-40
6.8632617e-40
6.8632723e-40
6.8633004e-40
6.8638389e-40
6.8634991e-40
6.8633202e-40
6.8632312e-40
6.8631907e-40
6.8631746e-40
6.8631704e-40
6.8631733e-40
6.8631845e-40
6.8632132e-40
6.8637983e-40
6.8634586e-40
6.8632797e-40
6.8631907e-40
6.8631503e-40
6.8631342e-40
6.86313e-40
6.8631331e-40
6.8631445e-40
6.8631735e-40
6.8637819e-40
6.8634423e-40
6.8632635e-40
6.8631746e-40
6.8631342e-40
6.8631182e-40
6.863114e-40
6.8631172e-40
6.8631287e-40
6.8631577e-40
6.863777e-40
6.8634376e-40
6.8632591e-40
6.8631704e-40
6.86313e-40
6.863114e-40
6.86311e-40
6.8631132e-40
6.8631247e-40
6.8631538e-40
6.8637784e-40
6.8634397e-40
6.8632617e-40
6.8631733e-40
6.8631331e-40
6.8631172e-40
6.8631132e-40
6.8631164e-40
6.863128e-40
6.863157e-40
6.8637861e-40
6.8634491e-40
6.8632723e-40
6.8631845e-40
6.8631445e-40
6.8631287e-40
6.8631247e-40
6.863128e-40
6.8631395e-40
6.8631686e-40
6.8638071e-40
6.8634754e-40
6.8633004e-40
6.8632132e-40
6.8631735e-40
6.8631577e-40
6.8631538e-40
6.863157e-40
6.8631686e-40
6.8631976e-40
2.2221349e-39
2.2220284e-39
2.2219722e-39
2.2219441e-39
2.2219313e-39
2.2219261e-39
2.2219246e-39
2.221925e-39
2.2219274e-39
2.2219338e-39
2.2220284e-39
2.221922e-39
2.2218657e-39
2.2218377e-39
2.2218249e-39
2.2218197e-39
2.2218183e-39
2.2218189e-39
2.2218219e-39
2.22183e-39
2.2219722e-39
2.2218657e-39
2.2218095e-39
2.2217814e-39
2.2217686e-39
2.2217635e-39
2.2217621e-39
2.221763e-39
2.2217663e-39
2.221775e-39
2.2219441e-39
2.2218377e-39
2.2217814e-39
2.2217534e-39
2.2217406e-39
2.2217355e-39
2.2217342e-39
2.2217351e-39
2.2217386e-39
2.2217475e-39
2.2219313e-39
2.2218249e-39
2.2217686e-39
2.2217406e-39
2.2217278e-39
2.2217228e-39
2.2217215e-39
2.2217224e-39
2.221726e-39
2.221735e-39
2.2219261e-39
2.2218197e-39
2.2217635e-39
2.2217355e-39
2.2217228e-39
2.2217177e-39
2.2217164e-39
2.2217174e-39
2.221721e-39
2.22173e-39
2.2219246e-39
2.2218183e-39
2.2217621e-39
2.2217342e-39
2.2217215e-39
2.2217164e-39
2.2217151e-39
2.2217162e-39
2.2217198e-39
2.2217288e-39
2.221925e-39
2.2218189e-39
2.221763e-39
2.2217351e-39
2.2217224e-39
2.2217174e-39
2.2217162e-39
2.2217172e-39
2.2217208e-39
2.2217298e-39
2.2219274e-39
2.2218219e-39
2.2217663e-39
2.2217386e-39
2.221726e-39
2.221721e-39
2.2217198e-39
2.2217208e-39
2.2217244e-39
2.2217334e-39
2.2219338e-39
2.22183e-39
2.221775e-39
2.2217475e-39
2.221735e-39
2.22173e-39
2.2217288e-39
2.2217298e-39
2.2217334e-39
2.2217425e-39
7.3206658e-39
7.3203265e-39
7.3201465e-39
7.3200566e-39
7.3200155e-39
7.3199989e-39
7.319994e-39
7.3199954e-39
7.320003e-39
7.320023e-39
7.3203265e-39
7.3199874e-39
7.3198074e-39
7.3197175e-39
7.3196765e-39
7.31966e-39
7.3196553e-39
7.3196573e-39
7.3196668e-39
7.3196924e-39
7.3201465e-39
7.3198074e-39
7.3196275e-39
7.3195375e-39
7.3194966e-39
7.3194802e-39
7.3194757e-39
7.3194784e-39
7.319489e-39
7.3195165e-39
7.3200566e-39
7.3197175e-39
7.3195375e-39
7.3194477e-39
7.3194067e-39
7.3193904e-39
7.3193861e-39
7.3193891e-39
7.3194004e-39
7.3194284e-39
7.3200155e-39
7.3196765e-39
7.3194966e-39
7.3194067e-39
7.3193658e-39
7.3193495e-39
7.3193454e-39
7.3193485e-39
7.31936e-39
7.3193883e-39
7.3199989e-39
7.31966e-39
7.3194802e-39
7.3193904e-39
7.3193495e-39
7.3193333e-39
7.3193292e-39
7.3193324e-39
7.319344e-39
7.3193724e-39
7.319994e-39
7.3196553e-39
7.3194757e-39
7.3193861e-39
7.3193454e-39
7.3193292e-39
7.3193251e-39
7.3193284e-39
7.31934e-39
7.3193684e-39
7.3199954e-39
7.3196573e-39
7.3194784e-39
7.3193891e-39
7.3193485e-39
7.3193324e-39
7.3193284e-39
7.3193317e-39
7.3193433e-39
7.3193717e-39
7.320003e-39
7.3196668e-39
7.319489e-39
7.3194004e-39
7.31936e-39
7.319344e-39
7.31934e-39
7.3193433e-39
7.3193549e-39
7.3193834e-39
7.320023e-39
7.3196924e-39
7.3195165e-39
7.3194284e-39
7.3193883e-39
7.3193724e-39
7.3193684e-39
7.3193717e-39
7.3193834e-39
7.3194118e-39
2.4544741e-38
2.4543641e-38
2.4543055e-38
2.4542762e-38
2.4542628e-38
2.4542574e-38
2.4542558e-38
2.4542563e-38
2.4542587e-38
2.4542651e-38
2.4543641e-38
2.4542542e-38
2.4541956e-38
2.4541663e-38
2.4541529e-38
2.4541476e-38
2.454146e-38
2.4541467e-38
2.4541498e-38
2.454158e-38
2.4543055e-38
2.4541956e-38
2.4541371e-38
2.4541078e-38
2.4540944e-38
2.4540891e-38
2.4540876e-38
2.4540885e-38
2.454092e-38
2.4541008e-38
2.4542762e-38
2.4541663e-38
2.4541078e-38
2.4540785e-38
2.4540651e-38
2.4540598e-38
2.4540584e-38
2.4540594e-38
2.4540631e-38
2.4540721e-38
2.4542628e-38
2.4541529e-38
2.4540944e-38
2.4540651e-38
2.4540518e-38
2.4540465e-38
2.4540451e-38
2.4540462e-38
2.4540499e-38
2.454059e-38
2.4542574e-38
2.4541476e-38
2.4540891e-38
2.4540598e-38
2.4540465e-38
2.4540412e-38
2.4540398e-38
2.4540409e-38
2.4540447e-38
2.4540538e-38
2.4542558e-38
2.454146e-38
2.4540876e-38
2.4540584e-38
2.4540451e-38
2.4540398e-38
2.4540385e-38
2.4540396e-38
2.4540434e-38
2.4540525e-38
2.4542563e-38
2.4541467e-38
2.4540885e-38
2.4540594e-38
2.4540462e-38
2.4540409e-38
2.4540396e-38
2.4540407e-38
2.4540445e-38
2.4540536e-38
2.4542587e-38
2.4541498e-38
2.454092e-38
2.4540631e-38
2.4540499e-38
2.4540447e-38
2.4540434e-38
2.4540445e-38
2.4540483e-38
2.4540574e-38
2.4542651e-38
2.454158e-38
2.4541008e-38
2.4540721e-38
2.454059e-38
2.4540538e-38
2.4540525e-38
2.4540536e-38
2.4540574e-38
2.4540665e-38
8.3753228e-38
8.3749602e-38
8.3747664e-38
8.3746692e-38
8.3746248e-38
8.3746068e-38
8.3746015e-38
8.374603e-38
8.3746111e-38
8.3746316e-38
8.3749602e-38
8.3745978e-38
8.374404e-38
8.3743068e-38
8.3742624e-38
8.3742446e-38
8.3742395e-38
8.3742418e-38
8.3742519e-38
8.3742786e-38
8.3747664e-38
8.374404e-38
8.3742103e-38
8.3741131e-38
8.3740688e-38
8.374051e-38
8.3740462e-38
8.3740492e-38
8.3740606e-38
8.3740894e-38
8.3746692e-38
8.3743068e-38
8.3741131e-38
8.374016e-38
8.3739717e-38
8.373954e-38
8.3739494e-38
8.3739527e-38
8.3739649e-38
8.3739943e-38
8.3746248e-38
8.3742624e-38
8.3740688e-38
8.3739717e-38
8.3739274e-38
8.3739098e-38
8.3739053e-38
8.3739088e-38
8.3739212e-38
8.3739509e-38
8.3746068e-38
8.3742446e-38
8.374051e-38
8.373954e-38
8.3739098e-38
8.3738923e-38
8.3738878e-38
8.3738914e-38
8.3739039e-38
8.3739337e-38
8.3746015e-38
8.3742395e-38
8.3740462e-38
8.3739494e-38
8.3739053e-38
8.3738878e-38
8.3738835e-38
8.3738871e-38
8.3738996e-38
8.3739294e-38
8.374603e-38
8.3742418e-38
8.3740492e-38
8.3739527e-38
8.3739088e-38
8.3738914e-38
8.3738871e-38
8.3738907e-38
8.3739033e-38
8.3739331e-38
8.3746111e-38
8.3742519e-38
8.3740606e-38
8.3739649e-38
8.3739212e-38
8.3739039e-38
8.3738996e-38
8.3739033e-38
8.3739158e-38
8.3739457e-38
8.3746316e-38
8.3742786e-38
8.3740894e-38
8.3739943e-38
8.3739509e-38
8.3739337e-38
8.3739294e-38
8.3739331e-38
8.3739457e-38
8.3739756e-38
2.9085886e-37
2.9084669e-37
2.9084017e-37
2.908369e-37
2.9083539e-37
2.9083479e-37
2.9083461e-37
2.9083466e-37
2.9083493e-37
2.9083561e-37
2.9084669e-37
2.9083454e-37
2.9082802e-37
2.9082474e-37
2.9082324e-37
2.9082264e-37
2.9082247e-37
2.9082255e-37
2.9082289e-37
2.9082377e-37
2.9084017e-37
2.9082802e-37
2.908215e-37
2.9081822e-37
2.9081672e-37
2.9081613e-37
2.9081597e-37
2.9081606e-37
2.9081645e-37
2.9081741e-37
2.908369e-37
2.9082474e-37
2.9081822e-37
2.9081495e-37
2.9081345e-37
2.9081286e-37
2.908127e-37
2.9081281e-37
2.9081322e-37
2.908142e-37
2.9083539e-37
2.9082324e-37
2.9081672e-37
2.9081345e-37
2.9081196e-37
2.9081136e-37
2.9081121e-37
2.9081133e-37
2.9081175e-37
2.9081274e-37
2.9083479e-37
2.9082264e-37
2.9081613e-37
2.9081286e-37
2.9081136e-37
2.9081077e-37
2.9081062e-37
2.9081074e-37
2.9081117e-37
2.9081216e-37
2.9083461e-37
2.9082247e-37
2.9081597e-37
2.908127e-37
2.9081121e-37
2.9081062e-37
2.9081048e-37
2.908106e-37
2.9081102e-37
2.9081202e-37
2.9083466e-37
2.9082255e-37
2.9081606e-37
2.9081281e-37
2.9081133e-37
2.9081074e-37
2.908106e-37
2.9081072e-37
2.9081115e-37
2.9081214e-37
2.9083493e-37
2.9082289e-37
2.9081645e-37
2.9081322e-37
2.9081175e-37
2.9081117e-37
2.9081102e-37
2.9081115e-37
2.9081157e-37
2.9081256e-37
2.9083561e-37
2.9082377e-37
2.9081741e-37
2.908142e-37
2.9081274e-37
2.9081216e-37
2.9081202e-37
2.9081214e-37
2.9081256e-37
2.9081356e-37
1.0280108e-36
1.0279693e-36
1.027947e-36
1.0279357e-36
1.0279306e-36
1.0279285e-36
1.0279279e-36
1.0279281e-36
1.027929e-36
1.0279313e-36
1.0279693e-36
1.0279278e-36
1.0279055e-36
1.0278943e-36
1.0278891e-36
1.0278871e-36
1.0278865e-36
1.0278868e-36
1.0278879e-36
1.0278909e-36
1.027947e-36
1.0279055e-36
1.0278832e-36
1.027872e-36
1.0278668e-36
1.0278648e-36
1.0278642e-36
1.0278646e-36
1.0278659e-36
1.0278691e-36
1.0279357e-36
1.0278943e-36
1.027872e-36
1.0278607e-36
1.0278556e-36
1.0278536e-36
1.027853e-36
1.0278534e-36
1.0278548e-36
1.0278581e-36
1.0279306e-36
1.0278891e-36
1.0278668e-36
1.0278556e-36
1.0278505e-36
1.0278484e-36
1.0278479e-36
1.0278483e-36
1.0278498e-36
1.0278531e-36
1.0279285e-36
1.0278871e-36
1.0278648e-36
1.0278536e-36
1.0278484e-36
1.0278464e-36
1.0278459e-36
1.0278463e-36
1.0278478e-36
1.0278511e-36
1.0279279e-36
1.0278865e-36
1.0278642e-36
1.027853e-36
1.0278479e-36
1.0278459e-36
1.0278454e-36
1.0278458e-36
1.0278473e-36
1.0278506e-36
1.0279281e-36
1.0278868e-36
1.0278646e-36
1.0278534e-36
1.0278483e-36
1.0278463e-36
1.0278458e-36
1.0278462e-36
1.0278477e-36
1.0278511e-36
1.027929e-36
1.0278879e-36
1.0278659e-36
1.0278548e-36
1.0278498e-36
1.0278478e-36
1.0278473e-36
1.0278477e-36
1.0278492e-36
1.0278525e-36
1.0279313e-36
1.0278909e-36
1.0278691e-36
1.0278581e-36
1.0278531e-36
1.0278511e-36
1.0278506e-36
1.0278511e-36
1.0278525e-36
1.0278559e-36
3.6977631e-36
3.6976191e-36
3.6975414e-36
3.6975022e-36
3.6974842e-36
3.6974769e-36
3.6974748e-36
3.6974754e-36
3.6974786e-36
3.6974863e-36
3.6976191e-36
3.6974752e-36
3.6973975e-36
3.6973583e-36
3.6973403e-36
3.6973331e-36
3.6973311e-36
3.697332e-36
3.6973361e-36
3.6973464e-36
3.6975414e-36
3.6973975e-36
3.6973198e-36
3.6972806e-36
3.6972627e-36
3.6972555e-36
3.6972536e-36
3.6972548e-36
3.6972594e-36
3.6972706e-36
3.6975022e-36
3.6973583e-36
3.6972806e-36
3.6972414e-36
3.6972235e-36
3.6972164e-36
3.6972145e-36
3.6972159e-36
3.6972208e-36
3.6972323e-36
3.6974842e-36
3.6973403e-36
3.6972627e-36
3.6972235e-36
3.6972056e-36
3.6971985e-36
3.6971967e-36
3.6971982e-36
3.6972032e-36
3.6972148e-36
3.6974769e-36
3.6973331e-36
3.6972555e-36
3.6972164e-36
3.6971985e-36
3.6971914e-36
3.6971896e-36
3.6971911e-36
3.6971962e-36
3.6972078e-36
3.6974748e-36
3.6973311e-36
3.6972536e-36
3.6972145e-36
3.6971967e-36
3.6971896e-36
3.6971879e-36
3.6971894e-36
3.6971945e-36
3.6972061e-36
3.6974754e-36
3.697332e-36
3.6972548e-36
3.6972159e-36
3.6971982e-36
3.6971911e-36
3.6971894e-36
3.6971909e-36
3.697196e-36
3.6972076e-36
3.6974786e-36
3.6973361e-36
3.6972594e-36
3.6972208e-36
3.6972032e-36
3.6971962e-36
3.6971945e-36
3.697196e-36
3.6972011e-36
3.6972127e-36
3.6974863e-36
3.6973464e-36
3.6972706e-36
3.6972323e-36
3.6972148e-36
3.6972078e-36
3.6972061e-36
3.6972076e-36
3.6972127e-36
3.6972244e-36
1.3536051e-35
1.3535543e-35
1.3535267e-35
1.3535128e-35
1.3535065e-35
1.3535039e-35
1.3535031e-35
1.3535034e-35
1.3535045e-35
1.3535071e-35
1.3535543e-35
1.3535035e-35
1.353476e-35
1.3534621e-35
1.3534557e-35
1.3534531e-35
1.3534524e-35
1.3534527e-35
1.3534542e-35
1.3534578e-35
1.3535267e-35
1.353476e-35
1.3534484e-35
1.3534345e-35
1.3534282e-35
1.3534256e-35
1.3534249e-35
1.3534254e-35
1.353427e-35
1.3534309e-35
1.3535128e-35
1.3534621e-35
1.3534345e-35
1.3534206e-35
1.3534143e-35
1.3534118e-35
1.3534111e-35
1.3534116e-35
1.3534133e-35
1.3534174e-35
1.3535065e-35
1.3534557e-35
1.3534282e-35
1.3534143e-35
1.3534079e-35
1.3534054e-35
1.3534048e-35
1.3534053e-35
1.3534071e-35
1.3534112e-35
1.3535039e-35
1.3534531e-35
1.3534256e-35
1.3534118e-35
1.3534054e-35
1.3534029e-35
1.3534023e-35
1.3534028e-35
1.3534046e-35
1.3534087e-35
1.3535031e-35
1.3534524e-35
1.3534249e-35
1.3534111e-35
1.3534048e-35
1.3534023e-35
1.3534017e-35
1.3534022e-35
1.353404e-35
1.3534081e-35
1.3535034e-35
1.3534527e-35
1.3534254e-35
1.3534116e-35
1.3534053e-35
1.3534028e-35
1.3534022e-35
1.3534027e-35
1.3534045e-35
1.3534086e-35
1.3535045e-35
1.3534542e-35
1.353427e-35
1.3534133e-35
1.3534071e-35
1.3534046e-35
1.353404e-35
1.3534045e-35
1.3534064e-35
1.3534104e-35
1.3535071e-35
1.3534578e-35
1.3534309e-35
1.3534174e-35
1.3534112e-35
1.3534087e-35
1.3534081e-35
1.3534086e-35
1.3534104e-35
1.3534145e-35
5.0423806e-35
5.0421982e-35
5.042099e-35
5.0420489e-35
5.0420259e-35
5.0420165e-35
5.0420138e-35
5.0420147e-35
5.0420187e-35
5.0420281e-35
5.0421982e-35
5.0420159e-35
5.0419168e-35
5.0418666e-35
5.0418436e-35
5.0418344e-35
5.0418318e-35
5.041833e-35
5.0418382e-35
5.0418511e-35
5.042099e-35
5.0419168e-35
5.0418176e-35
5.0417675e-35
5.0417445e-35
5.0417353e-35
5.0417329e-35
5.0417345e-35
5.0417404e-35
5.0417545e-35
5.0420489e-35
5.0418666e-35
5.0417675e-35
5.0417174e-35
5.0416944e-35
5.0416853e-35
5.041683e-35
5.0416848e-35
5.0416911e-35
5.0417055e-35
5.0420259e-35
5.0418436e-35
5.0417445e-35
5.0416944e-35
5.0416715e-35
5.0416624e-35
5.0416601e-35
5.0416621e-35
5.0416685e-35
5.0416831e-35
5.0420165e-35
5.0418344e-35
5.0417353e-35
5.0416853e-35
5.0416624e-35
5.0416533e-35
5.0416511e-35
5.0416531e-35
5.0416595e-35
5.0416742e-35
5.0420138e-35
5.0418318e-35
5.0417329e-35
5.041683e-35
5.0416601e-35
5.0416511e-35
5.0416489e-35
5.0416509e-35
5.0416574e-35
5.041672e-35
5.0420147e-35
5.041833e-35
5.0417345e-35
5.0416848e-35
5.0416621e-35
5.0416531e-35
5.0416509e-35
5.0416529e-35
5.0416594e-35
5.0416741e-35
5.0420187e-35
5.0418382e-35
5.0417404e-35
5.0416911e-35
5.0416685e-35
5.0416595e-35
5.0416574e-35
5.0416594e-35
5.041666e-35
5.0416806e-35
5.0420281e-35
5.0418511e-35
5.0417545e-35
5.0417055e-35
5.0416831e-35
5.0416742e-35
5.041672e-35
5.0416741e-35
5.0416806e-35
5.0416952e-35
1.9113613e-34
1.9112947e-34
1.9112584e-34
1.91124e-34
1.9112316e-34
1.9112282e-34
1.9112272e-34
1.9112275e-34
1.911229e-34
1.9112323e-34
1.9112947e-34
1.9112282e-34
1.9111919e-34
1.9111735e-34
1.911165e-34
1.9111616e-34
1.9111607e-34
1.9111612e-34
1.9111631e-34
1.9111678e-34
1.9112584e-34
1.9111919e-34
1.9111556e-34
1.9111372e-34
1.9111288e-34
1.9111254e-34
1.9111245e-34
1.9111251e-34
1.9111273e-34
1.9111324e-34
1.91124e-34
1.9111735e-34
1.9111372e-34
1.9111188e-34
1.9111104e-34
1.911107e-34
1.9111062e-34
1.9111069e-34
1.9111092e-34
1.9111144e-34
1.9112316e-34
1.911165e-34
1.9111288e-34
1.9111104e-34
1.911102e-34
1.9110986e-34
1.9110978e-34
1.9110985e-34
1.9111009e-34
1.9111062e-34
1.9112282e-34
1.9111616e-34
1.9111254e-34
1.911107e-34
1.9110986e-34
1.9110953e-34
1.9110945e-34
1.9110952e-34
1.9110976e-34
1.9111029e-34
1.9112272e-34
1.9111607e-34
1.9111245e-34
1.9111062e-34
1.9110978e-34
1.9110945e-34
1.9110937e-34
1.9110944e-34
1.9110968e-34
1.9111022e-34
1.9112275e-34
1.9111612e-34
1.9111251e-34
1.9111069e-34
1.9110985e-34
1.9110952e-34
1.9110944e-34
1.9110952e-34
1.9110976e-34
1.9111029e-34
1.911229e-34
1.9111631e-34
1.9111273e-34
1.9111092e-34
1.9111009e-34
1.9110976e-34
1.9110968e-34
1.9110976e-34
1.9111e-34
1.9111053e-34
1.9112323e-34
1.9111678e-34
1.9111324e-34
1.9111144e-34
1.9111062e-34
1.9111029e-34
1.9111022e-34
1.9111029e-34
1.9111053e-34
1.9111107e-34
7.3719e-34
7.3716529e-34
7.3715177e-34
7.3714491e-34
7.3714176e-34
7.3714048e-34
7.3714011e-34
7.3714023e-34
7.3714078e-34
7.3714202e-34
7.3716529e-34
7.3714059e-34
7.3712708e-34
7.3712022e-34
7.3711707e-34
7.371158e-34
7.3711545e-34
7.3711562e-34
7.3711634e-34
7.3711806e-34
7.3715177e-34
7.3712708e-34
7.3711356e-34
7.3710671e-34
7.3710356e-34
7.371023e-34
7.3710197e-34
7.371022e-34
7.3710301e-34
7.371049e-34
7.3714491e-34
7.3712022e-34
7.3710671e-34
7.3709986e-34
7.3709671e-34
7.3709546e-34
7.3709514e-34
7.370954e-34
7.3709627e-34
7.3709821e-34
7.3714176e-34
7.3711707e-34
7.3710356e-34
7.3709671e-34
7.3709357e-34
7.3709232e-34
7.3709202e-34
7.3709229e-34
7.3709318e-34
7.3709514e-34
7.3714048e-34
7.371158e-34
7.371023e-34
7.3709546e-34
7.3709232e-34
7.3709108e-34
7.3709078e-34
7.3709106e-34
7.3709195e-34
7.3709392e-34
7.3714011e-34
7.3711545e-34
7.3710197e-34
7.3709514e-34
7.3709202e-34
7.3709078e-34
7.3709048e-34
7.3709076e-34
7.3709166e-34
7.3709363e-34
7.3714023e-34
7.3711562e-34
7.371022e-34
7.370954e-34
7.3709229e-34
7.3709106e-34
7.3709076e-34
7.3709104e-34
7.3709195e-34
7.3709392e-34
7.3714078e-34
7.3711634e-34
7.3710301e-34
7.3709627e-34
7.3709318e-34
7.3709195e-34
7.3709166e-34
7.3709195e-34
7.3709285e-34
7.3709482e-34
7.3714202e-34
7.3711806e-34
7.371049e-34
7.3709821e-34
7.3709514e-34
7.3709392e-34
7.3709363e-34
7.3709392e-34
7.3709482e-34
7.370968e-34
2.8927065e-33
2.8926132e-33
2.8925621e-33
2.8925361e-33
2.8925241e-33
2.8925193e-33
2.8925179e-33
2.8925183e-33
2.8925204e-33
2.892525e-33
2.8926132e-33
2.89252e-33
2.8924689e-33
2.8924429e-33
2.8924309e-33
2.8924261e-33
2.8924248e-33
2.8924255e-33
2.8924282e-33
2.8924347e-33
2.8925621e-33
2.8924689e-33
2.8924177e-33
2.8923917e-33
2.8923798e-33
2.892375e-33
2.8923738e-33
2.8923746e-33
2.8923778e-33
2.8923849e-33
2.8925361e-33
2.8924429e-33
2.8923917e-33
2.8923658e-33
2.8923538e-33
2.8923491e-33
2.8923479e-33
2.8923489e-33
2.8923522e-33
2.8923595e-33
2.8925241e-33
2.8924309e-33
2.8923798e-33
2.8923538e-33
2.8923419e-33
2.8923372e-33
2.892336e-33
2.8923371e-33
2.8923405e-33
2.8923479e-33
2.8925193e-33
2.8924261e-33
2.892375e-33
2.8923491e-33
2.8923372e-33
2.8923325e-33
2.8923313e-33
2.8923324e-33
2.8923358e-33
2.8923433e-33
2.8925179e-33
2.8924248e-33
2.8923738e-33
2.8923479e-33
2.892336e-33
2.8923313e-33
2.8923302e-33
2.8923313e-33
2.8923347e-33
2.8923422e-33
2.8925183e-33
2.8924255e-33
2.8923746e-33
2.8923489e-33
2.8923371e-33
2.8923324e-33
2.8923313e-33
2.8923324e-33
2.8923358e-33
2.8923433e-33
2.8925204e-33
2.8924282e-33
2.8923778e-33
2.8923522e-33
2.8923405e-33
2.8923358e-33
2.8923347e-33
2.8923358e-33
2.8923393e-33
2.8923467e-33
2.892525e-33
2.8924347e-33
2.8923849e-33
2.8923595e-33
2.8923479e-33
2.8923433e-33
2.8923422e-33
2.8923433e-33
2.8923467e-33
2.8923542e-33