/*--------------------------------*- C++ -*----------------------------------*\
| =========                 |                                                 |
| \\      /  F ield         | OpenFOAM: The Open Source CFD Toolbox           |
|  \\    /   O peration     | Version:  dev                                   |
|   \\  /    A nd           | Web:      www.OpenFOAM.org                      |
|    \\/     M anipulation  |                                                 |
\*---------------------------------------------------------------------------*/
FoamFile
{
    version     2.0;
    format      ascii;
    class       volScalarField;
    location    "68.995";
    object      A;
}
// * * * * * * * * * * * * * * * * * * * * * * * * * * * * * * * * * * * * * //

dimensions      [0 0 0 0 1 0 0];

internalField   nonuniform List<scalar> 
10000
(
6.7428621e-27
6.73353e-27
6.7287738e-27
6.726351e-27
6.7252079e-27
6.7247523e-27
6.7246948e-27
6.7249742e-27
6.7257478e-27
6.7273791e-27
6.73353e-27
6.7242385e-27
6.7194964e-27
6.7170797e-27
6.7159401e-27
6.7154884e-27
6.7154391e-27
6.7157387e-27
6.7165672e-27
6.7183584e-27
6.7287738e-27
6.7194964e-27
6.7147624e-27
6.7123502e-27
6.7112138e-27
6.7107667e-27
6.7107265e-27
6.7110454e-27
6.7119106e-27
6.7137559e-27
6.726351e-27
6.7170797e-27
6.7123502e-27
6.7099409e-27
6.7088073e-27
6.7083638e-27
6.7083304e-27
6.7086615e-27
6.7095457e-27
6.7114107e-27
6.7252079e-27
6.7159401e-27
6.7112138e-27
6.7088073e-27
6.7076758e-27
6.7072349e-27
6.7072056e-27
6.7075433e-27
6.7084363e-27
6.7103088e-27
6.7247523e-27
6.7154884e-27
6.7107667e-27
6.7083638e-27
6.7072349e-27
6.7067962e-27
6.7067692e-27
6.7071102e-27
6.7080069e-27
6.7098823e-27
6.7246948e-27
6.7154391e-27
6.7107265e-27
6.7083304e-27
6.7072056e-27
6.7067692e-27
6.706744e-27
6.7070866e-27
6.707985e-27
6.7098616e-27
6.7249742e-27
6.7157387e-27
6.7110454e-27
6.7086615e-27
6.7075433e-27
6.7071102e-27
6.7070866e-27
6.7074303e-27
6.7083298e-27
6.7102072e-27
6.7257478e-27
6.7165672e-27
6.7119106e-27
6.7095457e-27
6.7084363e-27
6.7080069e-27
6.707985e-27
6.7083298e-27
6.7092304e-27
6.7111097e-27
6.7273791e-27
6.7183584e-27
6.7137559e-27
6.7114107e-27
6.7103088e-27
6.7098823e-27
6.7098616e-27
6.7102072e-27
6.7111097e-27
6.7129942e-27
2.2985637e-26
2.295502e-26
2.2938993e-26
2.2930811e-26
2.2926948e-26
2.2925408e-26
2.2925212e-26
2.2926152e-26
2.292876e-26
2.2934464e-26
2.295502e-26
2.2924532e-26
2.2908552e-26
2.290039e-26
2.2896539e-26
2.2895012e-26
2.2894843e-26
2.2895852e-26
2.2898647e-26
2.2904899e-26
2.2938993e-26
2.2908552e-26
2.28926e-26
2.2884453e-26
2.2880613e-26
2.2879101e-26
2.2878964e-26
2.2880038e-26
2.2882957e-26
2.2889393e-26
2.2930811e-26
2.290039e-26
2.2884453e-26
2.2876316e-26
2.2872485e-26
2.2870986e-26
2.2870871e-26
2.2871987e-26
2.2874971e-26
2.2881474e-26
2.2926948e-26
2.2896539e-26
2.2880613e-26
2.2872485e-26
2.2868661e-26
2.286717e-26
2.286707e-26
2.2868208e-26
2.2871222e-26
2.2877751e-26
2.2925408e-26
2.2895012e-26
2.2879101e-26
2.2870986e-26
2.286717e-26
2.2865687e-26
2.2865595e-26
2.2866744e-26
2.2869771e-26
2.2876309e-26
2.2925212e-26
2.2894843e-26
2.2878964e-26
2.2870871e-26
2.286707e-26
2.2865595e-26
2.2865508e-26
2.2866663e-26
2.2869696e-26
2.2876238e-26
2.2926152e-26
2.2895852e-26
2.2880038e-26
2.2871987e-26
2.2868208e-26
2.2866744e-26
2.2866663e-26
2.2867822e-26
2.2870858e-26
2.2877403e-26
2.292876e-26
2.2898647e-26
2.2882957e-26
2.2874971e-26
2.2871222e-26
2.2869771e-26
2.2869696e-26
2.2870858e-26
2.2873898e-26
2.2880449e-26
2.2934464e-26
2.2904899e-26
2.2889393e-26
2.2881474e-26
2.2877751e-26
2.2876309e-26
2.2876238e-26
2.2877403e-26
2.2880449e-26
2.288702e-26
4.8883903e-26
4.8820897e-26
4.8787484e-26
4.8770378e-26
4.8762292e-26
4.8759064e-26
4.8758648e-26
4.8760598e-26
4.8766019e-26
4.8778245e-26
4.8820897e-26
4.8758154e-26
4.8724837e-26
4.8707773e-26
4.8699711e-26
4.869651e-26
4.8696153e-26
4.8698249e-26
4.8704066e-26
4.8717453e-26
4.8787484e-26
4.8724837e-26
4.8691576e-26
4.8674543e-26
4.8666504e-26
4.8663336e-26
4.8663044e-26
4.8665279e-26
4.867136e-26
4.8685136e-26
4.8770378e-26
4.8707773e-26
4.8674543e-26
4.8657532e-26
4.8649511e-26
4.864637e-26
4.8646126e-26
4.8648449e-26
4.8654667e-26
4.8668585e-26
4.8762292e-26
4.8699711e-26
4.8666504e-26
4.8649511e-26
4.8641507e-26
4.8638384e-26
4.863817e-26
4.864054e-26
4.8646821e-26
4.8660793e-26
4.8759064e-26
4.869651e-26
4.8663336e-26
4.864637e-26
4.8638384e-26
4.8635276e-26
4.8635079e-26
4.8637472e-26
4.8643781e-26
4.8657773e-26
4.8758648e-26
4.8696153e-26
4.8663044e-26
4.8646126e-26
4.863817e-26
4.8635079e-26
4.8634895e-26
4.86373e-26
4.864362e-26
4.8657621e-26
4.8760598e-26
4.8698249e-26
4.8665279e-26
4.8648449e-26
4.864054e-26
4.8637472e-26
4.86373e-26
4.8639713e-26
4.8646041e-26
4.8660048e-26
4.8766019e-26
4.8704066e-26
4.867136e-26
4.8654667e-26
4.8646821e-26
4.8643781e-26
4.864362e-26
4.8646041e-26
4.8652377e-26
4.8666396e-26
4.8778245e-26
4.8717453e-26
4.8685136e-26
4.8668585e-26
4.8660793e-26
4.8657773e-26
4.8657621e-26
4.8660048e-26
4.8666396e-26
4.8680459e-26
9.5901706e-26
9.5782068e-26
9.5718127e-26
9.5685301e-26
9.5669759e-26
9.5663546e-26
9.5662733e-26
9.5666439e-26
9.5676735e-26
9.5700136e-26
9.5782068e-26
9.5662925e-26
9.5599165e-26
9.5566416e-26
9.555092e-26
9.5544761e-26
9.5544061e-26
9.5548053e-26
9.5559121e-26
9.5584792e-26
9.5718127e-26
9.5599165e-26
9.553551e-26
9.5502821e-26
9.548737e-26
9.5481274e-26
9.5480702e-26
9.5484962e-26
9.5496546e-26
9.5522979e-26
9.5685301e-26
9.5566416e-26
9.5502821e-26
9.5470174e-26
9.5454759e-26
9.5448714e-26
9.5448236e-26
9.5452668e-26
9.5464518e-26
9.5491228e-26
9.5669759e-26
9.555092e-26
9.548737e-26
9.5454759e-26
9.5439374e-26
9.5433365e-26
9.5432945e-26
9.5437469e-26
9.5449442e-26
9.5476256e-26
9.5663546e-26
9.5544761e-26
9.5481274e-26
9.5448714e-26
9.5433365e-26
9.5427386e-26
9.5426999e-26
9.5431568e-26
9.5443594e-26
9.5470448e-26
9.5662733e-26
9.5544061e-26
9.5480702e-26
9.5448236e-26
9.5432945e-26
9.5426999e-26
9.5426636e-26
9.5431228e-26
9.5443278e-26
9.5470149e-26
9.5666439e-26
9.5548053e-26
9.5484962e-26
9.5452668e-26
9.5437469e-26
9.5431568e-26
9.5431228e-26
9.5435836e-26
9.5447899e-26
9.5474782e-26
9.5676735e-26
9.5559121e-26
9.5496546e-26
9.5464518e-26
9.5449442e-26
9.5443594e-26
9.5443278e-26
9.5447899e-26
9.5459979e-26
9.5486885e-26
9.5700136e-26
9.5584792e-26
9.5522979e-26
9.5491228e-26
9.5476256e-26
9.5470448e-26
9.5470149e-26
9.5474782e-26
9.5486885e-26
9.5513874e-26
1.8577532e-25
1.8555108e-25
1.8543057e-25
1.8536853e-25
1.8533911e-25
1.8532734e-25
1.8532577e-25
1.8533269e-25
1.8535189e-25
1.8539541e-25
1.8555108e-25
1.8532775e-25
1.8520758e-25
1.8514568e-25
1.8511635e-25
1.8510468e-25
1.8510332e-25
1.851108e-25
1.8513148e-25
1.8517939e-25
1.8543057e-25
1.8520758e-25
1.850876e-25
1.8502582e-25
1.8499657e-25
1.8498502e-25
1.8498391e-25
1.849919e-25
1.8501358e-25
1.8506295e-25
1.8536853e-25
1.8514568e-25
1.8502582e-25
1.8496412e-25
1.8493494e-25
1.8492348e-25
1.8492256e-25
1.8493088e-25
1.8495307e-25
1.8500297e-25
1.8533911e-25
1.8511635e-25
1.8499657e-25
1.8493494e-25
1.8490582e-25
1.8489443e-25
1.8489362e-25
1.8490212e-25
1.8492454e-25
1.8497464e-25
1.8532734e-25
1.8510468e-25
1.8498502e-25
1.8492348e-25
1.8489443e-25
1.848831e-25
1.8488235e-25
1.8489093e-25
1.8491346e-25
1.8496364e-25
1.8532577e-25
1.8510332e-25
1.8498391e-25
1.8492256e-25
1.8489362e-25
1.8488235e-25
1.8488164e-25
1.8489027e-25
1.8491284e-25
1.8496306e-25
1.8533269e-25
1.851108e-25
1.849919e-25
1.8493088e-25
1.8490212e-25
1.8489093e-25
1.8489027e-25
1.8489893e-25
1.8492153e-25
1.8497176e-25
1.8535189e-25
1.8513148e-25
1.8501358e-25
1.8495307e-25
1.8492454e-25
1.8491346e-25
1.8491284e-25
1.8492153e-25
1.8494416e-25
1.8499444e-25
1.8539541e-25
1.8517939e-25
1.8506295e-25
1.8500297e-25
1.8497464e-25
1.8496364e-25
1.8496306e-25
1.8497176e-25
1.8499444e-25
1.8504487e-25
3.6157747e-25
3.6115533e-25
3.6092744e-25
3.6080981e-25
3.6075394e-25
3.6073153e-25
3.607285e-25
3.6074148e-25
3.6077734e-25
3.6085811e-25
3.6115533e-25
3.607349e-25
3.6050763e-25
3.6039027e-25
3.6033456e-25
3.6031236e-25
3.6030974e-25
3.6032378e-25
3.6036251e-25
3.6045176e-25
3.6092744e-25
3.6050763e-25
3.6028074e-25
3.6016359e-25
3.6010804e-25
3.6008606e-25
3.6008392e-25
3.6009896e-25
3.6013961e-25
3.6023169e-25
3.6080981e-25
3.6039027e-25
3.6016359e-25
3.6004659e-25
3.5999117e-25
3.5996938e-25
3.5996759e-25
3.5998326e-25
3.600249e-25
3.6011802e-25
3.6075394e-25
3.6033456e-25
3.6010804e-25
3.5999117e-25
3.5993586e-25
3.5991421e-25
3.5991262e-25
3.5992864e-25
3.5997073e-25
3.6006424e-25
3.6073153e-25
3.6031236e-25
3.6008606e-25
3.5996938e-25
3.5991421e-25
3.5989266e-25
3.598912e-25
3.5990739e-25
3.5994968e-25
3.6004333e-25
3.607285e-25
3.6030974e-25
3.6008392e-25
3.5996759e-25
3.5991262e-25
3.598912e-25
3.5988983e-25
3.599061e-25
3.5994848e-25
3.6004219e-25
3.6074148e-25
3.6032378e-25
3.6009896e-25
3.5998326e-25
3.5992864e-25
3.5990739e-25
3.599061e-25
3.5992243e-25
3.5996485e-25
3.6005861e-25
3.6077734e-25
3.6036251e-25
3.6013961e-25
3.600249e-25
3.5997073e-25
3.5994968e-25
3.5994848e-25
3.5996485e-25
3.6000734e-25
3.6010118e-25
3.6085811e-25
3.6045176e-25
3.6023169e-25
3.6011802e-25
3.6006424e-25
3.6004333e-25
3.6004219e-25
3.6005861e-25
3.6010118e-25
3.6019529e-25
7.1045981e-25
7.0965788e-25
7.0922313e-25
7.0899815e-25
7.0889111e-25
7.0884813e-25
7.0884221e-25
7.0886675e-25
7.0893428e-25
7.0908519e-25
7.0965788e-25
7.0885917e-25
7.084256e-25
7.0820113e-25
7.0809439e-25
7.0805179e-25
7.0804669e-25
7.0807329e-25
7.0814643e-25
7.0831389e-25
7.0922313e-25
7.084256e-25
7.0799273e-25
7.0776866e-25
7.0766223e-25
7.0762008e-25
7.076159e-25
7.0764444e-25
7.0772132e-25
7.0789431e-25
7.0899815e-25
7.0820113e-25
7.0776866e-25
7.0754487e-25
7.074387e-25
7.0739691e-25
7.073934e-25
7.0742319e-25
7.0750199e-25
7.07677e-25
7.0889111e-25
7.0809439e-25
7.0766223e-25
7.074387e-25
7.0733274e-25
7.0729121e-25
7.0728812e-25
7.0731856e-25
7.0739825e-25
7.0757402e-25
7.0884813e-25
7.0805179e-25
7.0762008e-25
7.0739691e-25
7.0729121e-25
7.0724989e-25
7.0724704e-25
7.0727781e-25
7.0735788e-25
7.0753394e-25
7.0884221e-25
7.0804669e-25
7.076159e-25
7.073934e-25
7.0728812e-25
7.0724704e-25
7.0724436e-25
7.0727529e-25
7.0735553e-25
7.0753171e-25
7.0886675e-25
7.0807329e-25
7.0764444e-25
7.0742319e-25
7.0731856e-25
7.0727781e-25
7.0727529e-25
7.0730634e-25
7.0738668e-25
7.0756294e-25
7.0893428e-25
7.0814643e-25
7.0772132e-25
7.0750199e-25
7.0739825e-25
7.0735788e-25
7.0735553e-25
7.0738668e-25
7.0746712e-25
7.0764353e-25
7.0908519e-25
7.0831389e-25
7.0789431e-25
7.07677e-25
7.0757402e-25
7.0753394e-25
7.0753171e-25
7.0756294e-25
7.0764353e-25
7.0782046e-25
1.4111908e-24
1.4096514e-24
1.4088135e-24
1.4083788e-24
1.4081716e-24
1.4080883e-24
1.4080767e-24
1.4081235e-24
1.408252e-24
1.4085367e-24
1.4096514e-24
1.4081182e-24
1.4072825e-24
1.4068488e-24
1.4066422e-24
1.4065596e-24
1.4065496e-24
1.4066005e-24
1.4067401e-24
1.4070574e-24
1.4088135e-24
1.4072825e-24
1.4064482e-24
1.4060152e-24
1.4058092e-24
1.4057275e-24
1.4057193e-24
1.405774e-24
1.405921e-24
1.4062492e-24
1.4083788e-24
1.4068488e-24
1.4060152e-24
1.4055828e-24
1.4053773e-24
1.4052963e-24
1.4052894e-24
1.4053466e-24
1.4054973e-24
1.4058295e-24
1.4081716e-24
1.4066422e-24
1.4058092e-24
1.4053773e-24
1.4051722e-24
1.4050917e-24
1.4050856e-24
1.4051441e-24
1.4052966e-24
1.4056303e-24
1.4080883e-24
1.4065596e-24
1.4057275e-24
1.4052963e-24
1.4050917e-24
1.4050117e-24
1.4050061e-24
1.4050652e-24
1.4052184e-24
1.4055527e-24
1.4080767e-24
1.4065496e-24
1.4057193e-24
1.4052894e-24
1.4050856e-24
1.4050061e-24
1.4050008e-24
1.4050602e-24
1.4052137e-24
1.4055483e-24
1.4081235e-24
1.4066005e-24
1.405774e-24
1.4053466e-24
1.4051441e-24
1.4050652e-24
1.4050602e-24
1.4051199e-24
1.4052736e-24
1.4056083e-24
1.408252e-24
1.4067401e-24
1.405921e-24
1.4054973e-24
1.4052966e-24
1.4052184e-24
1.4052137e-24
1.4052736e-24
1.4054275e-24
1.4057625e-24
1.4085367e-24
1.4070574e-24
1.4062492e-24
1.4058295e-24
1.4056303e-24
1.4055527e-24
1.4055483e-24
1.4056083e-24
1.4057625e-24
1.4060984e-24
2.8347584e-24
2.8317714e-24
2.830139e-24
2.82929e-24
2.8288847e-24
2.8287215e-24
2.8286983e-24
2.8287889e-24
2.829036e-24
2.8295787e-24
2.8317714e-24
2.8287962e-24
2.8271681e-24
2.8263209e-24
2.8259168e-24
2.825755e-24
2.8257351e-24
2.8258337e-24
2.8261028e-24
2.8267108e-24
2.830139e-24
2.8271681e-24
2.8255425e-24
2.8246968e-24
2.8242939e-24
2.8241339e-24
2.8241175e-24
2.8242237e-24
2.8245075e-24
2.8251372e-24
2.82929e-24
2.8263209e-24
2.8246968e-24
2.8238522e-24
2.8234502e-24
2.8232917e-24
2.8232779e-24
2.823389e-24
2.8236803e-24
2.8243179e-24
2.8288847e-24
2.8259168e-24
2.8242939e-24
2.8234502e-24
2.8230491e-24
2.8228915e-24
2.8228794e-24
2.822993e-24
2.8232878e-24
2.8239284e-24
2.8287215e-24
2.825755e-24
2.8241339e-24
2.8232917e-24
2.8228915e-24
2.8227348e-24
2.8227236e-24
2.8228385e-24
2.8231348e-24
2.8237765e-24
2.8286983e-24
2.8257351e-24
2.8241175e-24
2.8232779e-24
2.8228794e-24
2.8227236e-24
2.822713e-24
2.8228286e-24
2.8231256e-24
2.8237677e-24
2.8287889e-24
2.8258337e-24
2.8242237e-24
2.823389e-24
2.822993e-24
2.8228385e-24
2.8228286e-24
2.8229446e-24
2.8232419e-24
2.8238844e-24
2.829036e-24
2.8261028e-24
2.8245075e-24
2.8236803e-24
2.8232878e-24
2.8231348e-24
2.8231256e-24
2.8232419e-24
2.8235396e-24
2.8241827e-24
2.8295787e-24
2.8267108e-24
2.8251372e-24
2.8243179e-24
2.8239284e-24
2.8237765e-24
2.8237677e-24
2.8238844e-24
2.8241827e-24
2.8248276e-24
5.7596488e-24
5.7537889e-24
5.7505738e-24
5.7488974e-24
5.748096e-24
5.7477729e-24
5.7477264e-24
5.7479031e-24
5.7483837e-24
5.74943e-24
5.7537889e-24
5.7479519e-24
5.7447451e-24
5.7430724e-24
5.7422732e-24
5.741953e-24
5.7419129e-24
5.7421059e-24
5.7426309e-24
5.7438086e-24
5.7505738e-24
5.7447451e-24
5.7415434e-24
5.7398736e-24
5.7390767e-24
5.73876e-24
5.7387271e-24
5.7389354e-24
5.7394899e-24
5.7407115e-24
5.7488974e-24
5.7430724e-24
5.7398736e-24
5.7382059e-24
5.7374109e-24
5.737097e-24
5.7370694e-24
5.7372875e-24
5.7378572e-24
5.7390946e-24
5.748096e-24
5.7422732e-24
5.7390767e-24
5.7374109e-24
5.7366177e-24
5.7363058e-24
5.7362814e-24
5.7365047e-24
5.7370814e-24
5.7383248e-24
5.7477729e-24
5.741953e-24
5.73876e-24
5.737097e-24
5.7363058e-24
5.7359956e-24
5.7359731e-24
5.7361989e-24
5.7367786e-24
5.7380243e-24
5.7477264e-24
5.7419129e-24
5.7387271e-24
5.7370694e-24
5.7362814e-24
5.7359731e-24
5.735952e-24
5.7361791e-24
5.7367601e-24
5.7380067e-24
5.7479031e-24
5.7421059e-24
5.7389354e-24
5.7372875e-24
5.7365047e-24
5.7361989e-24
5.7361791e-24
5.7364071e-24
5.7369888e-24
5.738236e-24
5.7483837e-24
5.7426309e-24
5.7394899e-24
5.7378572e-24
5.7370814e-24
5.7367786e-24
5.7367601e-24
5.7369888e-24
5.7375712e-24
5.7388196e-24
5.74943e-24
5.7438086e-24
5.7407115e-24
5.7390946e-24
5.7383248e-24
5.7380243e-24
5.7380067e-24
5.738236e-24
5.7388196e-24
5.7400714e-24
1.1837506e-23
1.1825883e-23
1.1819481e-23
1.1816134e-23
1.1814532e-23
1.1813885e-23
1.1813791e-23
1.181414e-23
1.1815086e-23
1.1817125e-23
1.1825883e-23
1.1814304e-23
1.1807919e-23
1.180458e-23
1.1802982e-23
1.1802341e-23
1.180226e-23
1.1802642e-23
1.1803678e-23
1.1805985e-23
1.1819481e-23
1.1807919e-23
1.1801543e-23
1.179821e-23
1.1796616e-23
1.1795983e-23
1.1795916e-23
1.1796329e-23
1.1797425e-23
1.1799822e-23
1.1816134e-23
1.180458e-23
1.179821e-23
1.179488e-23
1.1793291e-23
1.1792663e-23
1.1792607e-23
1.179304e-23
1.1794167e-23
1.1796596e-23
1.1814532e-23
1.1802982e-23
1.1796616e-23
1.1793291e-23
1.1791705e-23
1.1791081e-23
1.1791032e-23
1.1791476e-23
1.1792617e-23
1.1795058e-23
1.1813885e-23
1.1802341e-23
1.1795983e-23
1.1792663e-23
1.1791081e-23
1.1790461e-23
1.1790415e-23
1.1790864e-23
1.1792011e-23
1.1794457e-23
1.1813791e-23
1.180226e-23
1.1795916e-23
1.1792607e-23
1.1791032e-23
1.1790415e-23
1.1790372e-23
1.1790824e-23
1.1791973e-23
1.1794421e-23
1.181414e-23
1.1802642e-23
1.1796329e-23
1.179304e-23
1.1791476e-23
1.1790864e-23
1.1790824e-23
1.1791277e-23
1.1792428e-23
1.1794877e-23
1.1815086e-23
1.1803678e-23
1.1797425e-23
1.1794167e-23
1.1792617e-23
1.1792011e-23
1.1791973e-23
1.1792428e-23
1.1793581e-23
1.1796032e-23
1.1817125e-23
1.1805985e-23
1.1799822e-23
1.1796596e-23
1.1795058e-23
1.1794457e-23
1.1794421e-23
1.1794877e-23
1.1796032e-23
1.179849e-23
2.4611215e-23
2.4587903e-23
2.4575014e-23
2.4568261e-23
2.4565022e-23
2.4563713e-23
2.456352e-23
2.4564218e-23
2.4566098e-23
2.4570118e-23
2.4587903e-23
2.4564681e-23
2.4551824e-23
2.4545085e-23
2.4541855e-23
2.4540558e-23
2.4540392e-23
2.4541157e-23
2.4543224e-23
2.4547797e-23
2.4575014e-23
2.4551824e-23
2.4538987e-23
2.4532259e-23
2.4529039e-23
2.4527757e-23
2.452762e-23
2.452845e-23
2.453064e-23
2.4535397e-23
2.4568261e-23
2.4545085e-23
2.4532259e-23
2.452554e-23
2.4522328e-23
2.4521057e-23
2.4520943e-23
2.4521814e-23
2.4524067e-23
2.452889e-23
2.4565022e-23
2.4541855e-23
2.4529039e-23
2.4522328e-23
2.4519123e-23
2.4517861e-23
2.451776e-23
2.4518652e-23
2.4520935e-23
2.4525783e-23
2.4563713e-23
2.4540558e-23
2.4527757e-23
2.4521057e-23
2.4517861e-23
2.4516605e-23
2.4516512e-23
2.4517415e-23
2.451971e-23
2.4524568e-23
2.456352e-23
2.4540392e-23
2.452762e-23
2.4520943e-23
2.451776e-23
2.4516512e-23
2.4516425e-23
2.4517333e-23
2.4519634e-23
2.4524496e-23
2.4564218e-23
2.4541157e-23
2.452845e-23
2.4521814e-23
2.4518652e-23
2.4517415e-23
2.4517333e-23
2.4518245e-23
2.4520548e-23
2.4525413e-23
2.4566098e-23
2.4543224e-23
2.453064e-23
2.4524067e-23
2.4520935e-23
2.451971e-23
2.4519634e-23
2.4520548e-23
2.4522855e-23
2.4527724e-23
2.4570118e-23
2.4547797e-23
2.4535397e-23
2.452889e-23
2.4525783e-23
2.4524568e-23
2.4524496e-23
2.4525413e-23
2.4527724e-23
2.4532605e-23
5.1764695e-23
5.1717419e-23
5.1691181e-23
5.1677401e-23
5.1670782e-23
5.1668104e-23
5.1667705e-23
5.1669114e-23
5.1672898e-23
5.1680912e-23
5.1717419e-23
5.1670322e-23
5.1644149e-23
5.1630397e-23
5.1623797e-23
5.1621144e-23
5.16208e-23
5.1622352e-23
5.1626523e-23
5.1635688e-23
5.1691181e-23
5.1644149e-23
5.1618016e-23
5.1604288e-23
5.1597708e-23
5.1595084e-23
5.1594803e-23
5.1596487e-23
5.1600915e-23
5.1610463e-23
5.1677401e-23
5.1630397e-23
5.1604288e-23
5.1590578e-23
5.1584013e-23
5.1581414e-23
5.1581179e-23
5.1582948e-23
5.1587508e-23
5.1597195e-23
5.1670782e-23
5.1623797e-23
5.1597708e-23
5.1584013e-23
5.1577463e-23
5.1574882e-23
5.1574674e-23
5.1576488e-23
5.1581109e-23
5.1590849e-23
5.1668104e-23
5.1621144e-23
5.1595084e-23
5.1581414e-23
5.1574882e-23
5.1572314e-23
5.1572123e-23
5.1573959e-23
5.1578606e-23
5.1588366e-23
5.1667705e-23
5.16208e-23
5.1594803e-23
5.1581179e-23
5.1574674e-23
5.1572123e-23
5.1571944e-23
5.1573791e-23
5.1578449e-23
5.1588217e-23
5.1669114e-23
5.1622352e-23
5.1596487e-23
5.1582948e-23
5.1576488e-23
5.1573959e-23
5.1573791e-23
5.1575645e-23
5.158031e-23
5.1590083e-23
5.1672898e-23
5.1626523e-23
5.1600915e-23
5.1587508e-23
5.1581109e-23
5.1578606e-23
5.1578449e-23
5.158031e-23
5.158498e-23
5.1594761e-23
5.1680912e-23
5.1635688e-23
5.1610463e-23
5.1597195e-23
5.1590849e-23
5.1588366e-23
5.1588217e-23
5.1590083e-23
5.1594761e-23
5.1604568e-23
1.101481e-22
1.1005115e-22
1.0999714e-22
1.0996871e-22
1.0995504e-22
1.099495e-22
1.0994866e-22
1.0995155e-22
1.0995925e-22
1.099754e-22
1.1005115e-22
1.0995457e-22
1.0990069e-22
1.0987232e-22
1.0985868e-22
1.098532e-22
1.0985248e-22
1.0985566e-22
1.0986417e-22
1.0988276e-22
1.0999714e-22
1.0990069e-22
1.098469e-22
1.0981858e-22
1.0980498e-22
1.0979956e-22
1.0979897e-22
1.0980243e-22
1.0981149e-22
1.0983088e-22
1.0996871e-22
1.0987232e-22
1.0981858e-22
1.0979029e-22
1.0977673e-22
1.0977135e-22
1.0977086e-22
1.097745e-22
1.0978383e-22
1.0980352e-22
1.0995504e-22
1.0985868e-22
1.0980498e-22
1.0977673e-22
1.0976319e-22
1.0975786e-22
1.0975743e-22
1.0976116e-22
1.0977062e-22
1.0979041e-22
1.099495e-22
1.098532e-22
1.0979956e-22
1.0977135e-22
1.0975786e-22
1.0975255e-22
1.0975215e-22
1.0975593e-22
1.0976545e-22
1.0978528e-22
1.0994866e-22
1.0985248e-22
1.0979897e-22
1.0977086e-22
1.0975743e-22
1.0975215e-22
1.0975178e-22
1.0975558e-22
1.0976512e-22
1.0978497e-22
1.0995155e-22
1.0985566e-22
1.0980243e-22
1.097745e-22
1.0976116e-22
1.0975593e-22
1.0975558e-22
1.097594e-22
1.0976895e-22
1.0978881e-22
1.0995925e-22
1.0986417e-22
1.0981149e-22
1.0978383e-22
1.0977062e-22
1.0976545e-22
1.0976512e-22
1.0976895e-22
1.0977852e-22
1.097984e-22
1.099754e-22
1.0988276e-22
1.0983088e-22
1.0980352e-22
1.0979041e-22
1.0978528e-22
1.0978497e-22
1.0978881e-22
1.097984e-22
1.0981833e-22
2.3712314e-22
2.3692211e-22
2.3680971e-22
2.3675041e-22
2.3672184e-22
2.3671026e-22
2.367085e-22
2.3671446e-22
2.3673031e-22
2.3676326e-22
2.3692211e-22
2.3672183e-22
2.366097e-22
2.3655052e-22
2.3652203e-22
2.3651056e-22
2.3650904e-22
2.3651564e-22
2.3653323e-22
2.3657134e-22
2.3680971e-22
2.366097e-22
2.3649775e-22
2.3643866e-22
2.3641026e-22
2.3639892e-22
2.3639768e-22
2.3640487e-22
2.3642361e-22
2.3646345e-22
2.3675041e-22
2.3655052e-22
2.3643866e-22
2.3637965e-22
2.3635132e-22
2.3634009e-22
2.3633906e-22
2.3634662e-22
2.3636595e-22
2.3640641e-22
2.3672184e-22
2.3652203e-22
2.3641026e-22
2.3635132e-22
2.3632305e-22
2.3631189e-22
2.3631099e-22
2.3631876e-22
2.3633836e-22
2.3637905e-22
2.3671026e-22
2.3651056e-22
2.3639892e-22
2.3634009e-22
2.3631189e-22
2.363008e-22
2.3629997e-22
2.3630783e-22
2.3632755e-22
2.3636833e-22
2.367085e-22
2.3650904e-22
2.3639768e-22
2.3633906e-22
2.3631099e-22
2.3629997e-22
2.3629919e-22
2.363071e-22
2.3632687e-22
2.3636769e-22
2.3671446e-22
2.3651564e-22
2.3640487e-22
2.3634662e-22
2.3631876e-22
2.3630783e-22
2.363071e-22
2.3631505e-22
2.3633485e-22
2.3637569e-22
2.3673031e-22
2.3653323e-22
2.3642361e-22
2.3636595e-22
2.3633836e-22
2.3632755e-22
2.3632687e-22
2.3633485e-22
2.3635467e-22
2.3639554e-22
2.3676326e-22
2.3657134e-22
2.3646345e-22
2.3640641e-22
2.3637905e-22
2.3636833e-22
2.3636769e-22
2.3637569e-22
2.3639554e-22
2.3643652e-22
5.1645332e-22
5.1603181e-22
5.1579528e-22
5.156702e-22
5.1560987e-22
5.1558537e-22
5.1558162e-22
5.1559409e-22
5.1562709e-22
5.1569505e-22
5.1603181e-22
5.1561185e-22
5.1537589e-22
5.1525106e-22
5.1519089e-22
5.1516663e-22
5.1516341e-22
5.1517724e-22
5.1521399e-22
5.1529309e-22
5.1579528e-22
5.1537589e-22
5.1514029e-22
5.1501566e-22
5.1495567e-22
5.149317e-22
5.1492908e-22
5.1494418e-22
5.149834e-22
5.150662e-22
5.156702e-22
5.1525106e-22
5.1501566e-22
5.148912e-22
5.1483136e-22
5.1480762e-22
5.1480543e-22
5.1482136e-22
5.1486184e-22
5.1494598e-22
5.1560987e-22
5.1519089e-22
5.1495567e-22
5.1483136e-22
5.1477165e-22
5.1474808e-22
5.1474616e-22
5.1476252e-22
5.1480359e-22
5.1488823e-22
5.1558537e-22
5.1516663e-22
5.149317e-22
5.1480762e-22
5.1474808e-22
5.1472463e-22
5.1472288e-22
5.1473944e-22
5.1478077e-22
5.148656e-22
5.1558162e-22
5.1516341e-22
5.1492908e-22
5.1480543e-22
5.1474616e-22
5.1472288e-22
5.1472123e-22
5.1473791e-22
5.1477934e-22
5.1486425e-22
5.1559409e-22
5.1517724e-22
5.1494418e-22
5.1482136e-22
5.1476252e-22
5.1473944e-22
5.1473791e-22
5.1475465e-22
5.1479614e-22
5.1488109e-22
5.1562709e-22
5.1521399e-22
5.149834e-22
5.1486184e-22
5.1480359e-22
5.1478077e-22
5.1477934e-22
5.1479614e-22
5.1483768e-22
5.1492271e-22
5.1569505e-22
5.1529309e-22
5.150662e-22
5.1494598e-22
5.1488823e-22
5.148656e-22
5.1486425e-22
5.1488109e-22
5.1492271e-22
5.1500795e-22
1.1380215e-21
1.1371278e-21
1.1366246e-21
1.1363579e-21
1.136229e-21
1.1361767e-21
1.1361686e-21
1.136195e-21
1.1362645e-21
1.1364063e-21
1.1371278e-21
1.1362374e-21
1.1357354e-21
1.1354692e-21
1.1353407e-21
1.1352888e-21
1.1352819e-21
1.1353112e-21
1.1353889e-21
1.1355549e-21
1.1366246e-21
1.1357354e-21
1.135234e-21
1.1349683e-21
1.1348402e-21
1.1347889e-21
1.1347833e-21
1.1348154e-21
1.1348985e-21
1.1350726e-21
1.1363579e-21
1.1354692e-21
1.1349683e-21
1.1347028e-21
1.1345751e-21
1.1345243e-21
1.1345197e-21
1.1345536e-21
1.1346394e-21
1.1348164e-21
1.136229e-21
1.1353407e-21
1.1348402e-21
1.1345751e-21
1.1344476e-21
1.1343972e-21
1.1343931e-21
1.134428e-21
1.134515e-21
1.1346931e-21
1.1361767e-21
1.1352888e-21
1.1347889e-21
1.1345243e-21
1.1343972e-21
1.1343471e-21
1.1343434e-21
1.1343787e-21
1.1344663e-21
1.1346448e-21
1.1361686e-21
1.1352819e-21
1.1347833e-21
1.1345197e-21
1.1343931e-21
1.1343434e-21
1.1343399e-21
1.1343754e-21
1.1344633e-21
1.134642e-21
1.136195e-21
1.1353112e-21
1.1348154e-21
1.1345536e-21
1.134428e-21
1.1343787e-21
1.1343754e-21
1.1344111e-21
1.1344991e-21
1.1346779e-21
1.1362645e-21
1.1353889e-21
1.1348985e-21
1.1346394e-21
1.134515e-21
1.1344663e-21
1.1344633e-21
1.1344991e-21
1.1345871e-21
1.1347661e-21
1.1364063e-21
1.1355549e-21
1.1350726e-21
1.1348164e-21
1.1346931e-21
1.1346448e-21
1.134642e-21
1.1346779e-21
1.1347661e-21
1.1349455e-21
2.5370523e-21
2.5351364e-21
2.5340538e-21
2.5334787e-21
2.5332005e-21
2.5330874e-21
2.5330698e-21
2.5331263e-21
2.5332744e-21
2.5335736e-21
2.5351364e-21
2.5332275e-21
2.5321474e-21
2.5315734e-21
2.5312959e-21
2.5311839e-21
2.5311689e-21
2.5312319e-21
2.531398e-21
2.5317506e-21
2.5340538e-21
2.5321474e-21
2.5310688e-21
2.5304958e-21
2.5302192e-21
2.5301085e-21
2.5300963e-21
2.5301655e-21
2.5303433e-21
2.5307137e-21
2.5334787e-21
2.5315734e-21
2.5304958e-21
2.5299235e-21
2.5296476e-21
2.529538e-21
2.529528e-21
2.529601e-21
2.5297849e-21
2.5301617e-21
2.5332005e-21
2.5312959e-21
2.5302192e-21
2.5296476e-21
2.5293724e-21
2.5292636e-21
2.5292548e-21
2.5293299e-21
2.5295166e-21
2.5298958e-21
2.5330874e-21
2.5311839e-21
2.5301085e-21
2.529538e-21
2.5292636e-21
2.5291554e-21
2.5291474e-21
2.5292235e-21
2.5294114e-21
2.5297915e-21
2.5330698e-21
2.5311689e-21
2.5300963e-21
2.529528e-21
2.5292548e-21
2.5291474e-21
2.5291399e-21
2.5292165e-21
2.5294049e-21
2.5297854e-21
2.5331263e-21
2.5312319e-21
2.5301655e-21
2.529601e-21
2.5293299e-21
2.5292235e-21
2.5292165e-21
2.5292934e-21
2.5294821e-21
2.5298628e-21
2.5332744e-21
2.531398e-21
2.5303433e-21
2.5297849e-21
2.5295166e-21
2.5294114e-21
2.5294049e-21
2.5294821e-21
2.5296711e-21
2.5300521e-21
2.5335736e-21
2.5317506e-21
2.5307137e-21
2.5301617e-21
2.5298958e-21
2.5297915e-21
2.5297854e-21
2.5298628e-21
2.5300521e-21
2.530434e-21
5.7221611e-21
5.7180081e-21
5.7156533e-21
5.7143997e-21
5.7137925e-21
5.7135454e-21
5.7135069e-21
5.7136292e-21
5.7139484e-21
5.7145869e-21
5.7180081e-21
5.7138702e-21
5.7115207e-21
5.7102696e-21
5.709664e-21
5.7094193e-21
5.7093864e-21
5.7095233e-21
5.7098824e-21
5.7106399e-21
5.7156533e-21
5.7115207e-21
5.7091747e-21
5.7079256e-21
5.7073219e-21
5.7070802e-21
5.7070536e-21
5.7072041e-21
5.7075895e-21
5.7083865e-21
5.7143997e-21
5.7102696e-21
5.7079256e-21
5.7066781e-21
5.706076e-21
5.7058367e-21
5.7058148e-21
5.7059739e-21
5.7063728e-21
5.7071841e-21
5.7137925e-21
5.709664e-21
5.7073219e-21
5.706076e-21
5.7054752e-21
5.7052377e-21
5.7052187e-21
5.7053824e-21
5.7057875e-21
5.7066041e-21
5.7135454e-21
5.7094193e-21
5.7070802e-21
5.7058367e-21
5.7052377e-21
5.7050017e-21
5.7049842e-21
5.7051502e-21
5.705558e-21
5.7063767e-21
5.7135069e-21
5.7093864e-21
5.7070536e-21
5.7058148e-21
5.7052187e-21
5.7049842e-21
5.704968e-21
5.7051351e-21
5.705544e-21
5.7063635e-21
5.7136292e-21
5.7095233e-21
5.7072041e-21
5.7059739e-21
5.7053824e-21
5.7051502e-21
5.7051351e-21
5.7053029e-21
5.7057124e-21
5.7065324e-21
5.7139484e-21
5.7098824e-21
5.7075895e-21
5.7063728e-21
5.7057875e-21
5.705558e-21
5.705544e-21
5.7057124e-21
5.7061225e-21
5.7069431e-21
5.7145869e-21
5.7106399e-21
5.7083865e-21
5.7071841e-21
5.7066041e-21
5.7063767e-21
5.7063635e-21
5.7065324e-21
5.7069431e-21
5.7077657e-21
1.3056573e-20
1.3047472e-20
1.3042293e-20
1.3039531e-20
1.3038191e-20
1.3037646e-20
1.303756e-20
1.3037828e-20
1.3038524e-20
1.3039902e-20
1.3047472e-20
1.3038403e-20
1.3033236e-20
1.3030479e-20
1.3029143e-20
1.3028603e-20
1.302853e-20
1.3028831e-20
1.3029616e-20
1.3031263e-20
1.3042293e-20
1.3033236e-20
1.3028077e-20
1.3025325e-20
1.3023993e-20
1.3023459e-20
1.30234e-20
1.3023732e-20
1.3024577e-20
1.3026312e-20
1.3039531e-20
1.3030479e-20
1.3025325e-20
1.3022575e-20
1.3021247e-20
1.3020719e-20
1.3020671e-20
1.3021021e-20
1.3021897e-20
1.3023664e-20
1.3038191e-20
1.3029143e-20
1.3023993e-20
1.3021247e-20
1.3019922e-20
1.3019397e-20
1.3019356e-20
1.3019717e-20
1.3020606e-20
1.3022385e-20
1.3037646e-20
1.3028603e-20
1.3023459e-20
1.3020719e-20
1.3019397e-20
1.3018876e-20
1.3018838e-20
1.3019204e-20
1.30201e-20
1.3021884e-20
1.303756e-20
1.302853e-20
1.30234e-20
1.3020671e-20
1.3019356e-20
1.3018838e-20
1.3018803e-20
1.3019172e-20
1.3020069e-20
1.3021855e-20
1.3037828e-20
1.3028831e-20
1.3023732e-20
1.3021021e-20
1.3019717e-20
1.3019204e-20
1.3019172e-20
1.3019542e-20
1.3020441e-20
1.3022228e-20
1.3038524e-20
1.3029616e-20
1.3024577e-20
1.3021897e-20
1.3020606e-20
1.30201e-20
1.3020069e-20
1.3020441e-20
1.3021341e-20
1.3023129e-20
1.3039902e-20
1.3031263e-20
1.3026312e-20
1.3023664e-20
1.3022385e-20
1.3021884e-20
1.3021855e-20
1.3022228e-20
1.3023129e-20
1.3024922e-20
3.0138235e-20
3.011807e-20
3.0106559e-20
3.0100406e-20
3.0097417e-20
3.0096199e-20
3.0096008e-20
3.0096602e-20
3.0098137e-20
3.0101146e-20
3.011807e-20
3.0097977e-20
3.0086491e-20
3.0080349e-20
3.0077369e-20
3.0076164e-20
3.0076001e-20
3.0076669e-20
3.0078408e-20
3.0082027e-20
3.0106559e-20
3.0086491e-20
3.0075023e-20
3.0068891e-20
3.006592e-20
3.0064729e-20
3.0064599e-20
3.0065337e-20
3.006721e-20
3.0071031e-20
3.0100406e-20
3.0080349e-20
3.0068891e-20
3.0062766e-20
3.0059803e-20
3.0058625e-20
3.0058519e-20
3.0059301e-20
3.0061243e-20
3.0065137e-20
3.0097417e-20
3.0077369e-20
3.006592e-20
3.0059803e-20
3.0056847e-20
3.0055678e-20
3.0055586e-20
3.0056392e-20
3.0058365e-20
3.0062287e-20
3.0096199e-20
3.0076164e-20
3.0064729e-20
3.0058625e-20
3.0055678e-20
3.0054516e-20
3.0054433e-20
3.005525e-20
3.0057237e-20
3.0061169e-20
3.0096008e-20
3.0076001e-20
3.0064599e-20
3.0058519e-20
3.0055586e-20
3.0054433e-20
3.0054355e-20
3.0055178e-20
3.0057171e-20
3.0061108e-20
3.0096602e-20
3.0076669e-20
3.0065337e-20
3.0059301e-20
3.0056392e-20
3.005525e-20
3.0055178e-20
3.0056004e-20
3.0058e-20
3.0061939e-20
3.0098137e-20
3.0078408e-20
3.006721e-20
3.0061243e-20
3.0058365e-20
3.0057237e-20
3.0057171e-20
3.0058e-20
3.0059999e-20
3.0063941e-20
3.0101146e-20
3.0082027e-20
3.0071031e-20
3.0065137e-20
3.0062287e-20
3.0061169e-20
3.0061108e-20