/*--------------------------------*- C++ -*----------------------------------*\
| =========                 |                                                 |
| \\      /  F ield         | OpenFOAM: The Open Source CFD Toolbox           |
|  \\    /   O peration     | Version:  dev                                   |
|   \\  /    A nd           | Web:      www.OpenFOAM.org                      |
|    \\/     M anipulation  |                                                 |
\*---------------------------------------------------------------------------*/
FoamFile
{
    version     2.0;
    format      ascii;
    class       volScalarField;
    location    "68.995";
    object      A_0;
}
// * * * * * * * * * * * * * * * * * * * * * * * * * * * * * * * * * * * * * //

dimensions      [0 0 0 0 1 0 0];

internalField   nonuniform List<scalar> 
10000
(
6.5478836e-27
6.5388115e-27
6.5341893e-27
6.5318359e-27
6.5307262e-27
6.5302842e-27
6.5302287e-27
6.5305e-27
6.5312513e-27
6.5328362e-27
6.5388115e-27
6.5297789e-27
6.5251705e-27
6.5228229e-27
6.5217166e-27
6.5212785e-27
6.5212308e-27
6.5215218e-27
6.5223265e-27
6.5240667e-27
6.5341893e-27
6.5251705e-27
6.5205699e-27
6.5182266e-27
6.5171235e-27
6.5166898e-27
6.516651e-27
6.5169607e-27
6.5178011e-27
6.5195939e-27
6.5318359e-27
6.5228229e-27
6.5182266e-27
6.5158864e-27
6.5147858e-27
6.5143557e-27
6.5143234e-27
6.5146451e-27
6.5155039e-27
6.5173159e-27
6.5307262e-27
6.5217166e-27
6.5171235e-27
6.5147858e-27
6.5136874e-27
6.5132598e-27
6.5132315e-27
6.5135595e-27
6.5144268e-27
6.5162461e-27
6.5302842e-27
6.5212785e-27
6.5166898e-27
6.5143557e-27
6.5132598e-27
6.5128341e-27
6.5128082e-27
6.5131393e-27
6.5140104e-27
6.5158324e-27
6.5302287e-27
6.5212308e-27
6.516651e-27
6.5143234e-27
6.5132315e-27
6.5128082e-27
6.5127839e-27
6.5131166e-27
6.5139893e-27
6.5158125e-27
6.5305e-27
6.5215218e-27
6.5169607e-27
6.5146451e-27
6.5135595e-27
6.5131393e-27
6.5131166e-27
6.5134505e-27
6.5143241e-27
6.5161482e-27
6.5312513e-27
6.5223265e-27
6.5178011e-27
6.5155039e-27
6.5144268e-27
6.5140104e-27
6.5139893e-27
6.5143241e-27
6.5151989e-27
6.5170247e-27
6.5328362e-27
6.5240667e-27
6.5195939e-27
6.5173159e-27
6.5162461e-27
6.5158324e-27
6.5158125e-27
6.5161482e-27
6.5170247e-27
6.5188556e-27
2.2323572e-26
2.2293804e-26
2.2278227e-26
2.2270278e-26
2.2266528e-26
2.2265033e-26
2.2264844e-26
2.2265757e-26
2.226829e-26
2.2273833e-26
2.2293804e-26
2.2264162e-26
2.2248631e-26
2.2240702e-26
2.2236962e-26
2.223548e-26
2.2235318e-26
2.2236298e-26
2.2239013e-26
2.2245087e-26
2.2278227e-26
2.2248631e-26
2.2233126e-26
2.2225211e-26
2.2221483e-26
2.2220016e-26
2.2219884e-26
2.2220927e-26
2.2223763e-26
2.2230017e-26
2.2270278e-26
2.2240702e-26
2.2225211e-26
2.2217307e-26
2.2213587e-26
2.2212132e-26
2.2212022e-26
2.2213106e-26
2.2216005e-26
2.2222324e-26
2.2266528e-26
2.2236962e-26
2.2221483e-26
2.2213587e-26
2.2209874e-26
2.2208428e-26
2.2208332e-26
2.2209437e-26
2.2212365e-26
2.2218709e-26
2.2265033e-26
2.223548e-26
2.2220016e-26
2.2212132e-26
2.2208428e-26
2.2206989e-26
2.22069e-26
2.2208016e-26
2.2210957e-26
2.221731e-26
2.2264844e-26
2.2235318e-26
2.2219884e-26
2.2212022e-26
2.2208332e-26
2.22069e-26
2.2206817e-26
2.2207939e-26
2.2210885e-26
2.2217242e-26
2.2265757e-26
2.2236298e-26
2.2220927e-26
2.2213106e-26
2.2209437e-26
2.2208016e-26
2.2207939e-26
2.2209064e-26
2.2212013e-26
2.2218373e-26
2.226829e-26
2.2239013e-26
2.2223763e-26
2.2216005e-26
2.2212365e-26
2.2210957e-26
2.2210885e-26
2.2212013e-26
2.2214967e-26
2.2221332e-26
2.2273833e-26
2.2245087e-26
2.2230017e-26
2.2222324e-26
2.2218709e-26
2.221731e-26
2.2217242e-26
2.2218373e-26
2.2221332e-26
2.2227716e-26
4.7485896e-26
4.7424625e-26
4.7392143e-26
4.7375522e-26
4.736767e-26
4.7364537e-26
4.7364135e-26
4.736603e-26
4.7371297e-26
4.7383177e-26
4.7424625e-26
4.7363611e-26
4.7331222e-26
4.7314641e-26
4.7306812e-26
4.7303706e-26
4.7303361e-26
4.7305398e-26
4.7311049e-26
4.7324059e-26
4.7392143e-26
4.7331222e-26
4.7298887e-26
4.7282337e-26
4.727453e-26
4.7271456e-26
4.7271175e-26
4.7273346e-26
4.7279255e-26
4.7292643e-26
4.7375522e-26
4.7314641e-26
4.7282337e-26
4.7265807e-26
4.7258019e-26
4.725497e-26
4.7254736e-26
4.7256993e-26
4.7263034e-26
4.7276561e-26
4.736767e-26
4.7306812e-26
4.727453e-26
4.7258019e-26
4.7250246e-26
4.7247215e-26
4.7247009e-26
4.7249312e-26
4.7255415e-26
4.7268993e-26
4.7364537e-26
4.7303706e-26
4.7271456e-26
4.725497e-26
4.7247215e-26
4.7244199e-26
4.724401e-26
4.7246335e-26
4.7252464e-26
4.7266063e-26
4.7364135e-26
4.7303361e-26
4.7271175e-26
4.7254736e-26
4.7247009e-26
4.724401e-26
4.7243832e-26
4.7246169e-26
4.725231e-26
4.7265917e-26
4.736603e-26
4.7305398e-26
4.7273346e-26
4.7256993e-26
4.7249312e-26
4.7246335e-26
4.7246169e-26
4.7248514e-26
4.7254662e-26
4.7268274e-26
4.7371297e-26
4.7311049e-26
4.7279255e-26
4.7263034e-26
4.7255415e-26
4.7252464e-26
4.725231e-26
4.7254662e-26
4.7260818e-26
4.7274443e-26
4.7383177e-26
4.7324059e-26
4.7292643e-26
4.7276561e-26
4.7268993e-26
4.7266063e-26
4.7265917e-26
4.7268274e-26
4.7274443e-26
4.7288109e-26
9.318427e-26
9.3067895e-26
9.3005719e-26
9.2973814e-26
9.2958717e-26
9.2952687e-26
9.29519e-26
9.2955502e-26
9.2965507e-26
9.2988255e-26
9.3067895e-26
9.2952002e-26
9.2890001e-26
9.2858172e-26
9.284312e-26
9.2837142e-26
9.2836465e-26
9.2840344e-26
9.28511e-26
9.2876056e-26
9.3005719e-26
9.2890001e-26
9.2828104e-26
9.2796333e-26
9.2781324e-26
9.2775407e-26
9.2774855e-26
9.2778995e-26
9.2790253e-26
9.2815948e-26
9.2973814e-26
9.2858172e-26
9.2796333e-26
9.2764601e-26
9.2749628e-26
9.274376e-26
9.2743299e-26
9.2747607e-26
9.2759124e-26
9.2785088e-26
9.2958717e-26
9.284312e-26
9.2781324e-26
9.2749628e-26
9.2734684e-26
9.2728852e-26
9.2728446e-26
9.2732843e-26
9.2744479e-26
9.2770545e-26
9.2952687e-26
9.2837142e-26
9.2775407e-26
9.274376e-26
9.2728852e-26
9.2723047e-26
9.2722675e-26
9.2727115e-26
9.2738803e-26
9.2764908e-26
9.29519e-26
9.2836465e-26
9.2774855e-26
9.2743299e-26
9.2728446e-26
9.2722675e-26
9.2722325e-26
9.2726788e-26
9.2738498e-26
9.2764619e-26
9.2955502e-26
9.2840344e-26
9.2778995e-26
9.2747607e-26
9.2732843e-26
9.2727115e-26
9.2726788e-26
9.2731266e-26
9.274299e-26
9.2769123e-26
9.2965507e-26
9.28511e-26
9.2790253e-26
9.2759124e-26
9.2744479e-26
9.2738803e-26
9.2738498e-26
9.274299e-26
9.2754729e-26
9.2780885e-26
9.2988255e-26
9.2876056e-26
9.2815948e-26
9.2785088e-26
9.2770545e-26
9.2764908e-26
9.2764619e-26
9.2769123e-26
9.2780885e-26
9.280712e-26
1.8056584e-25
1.8034764e-25
1.8023042e-25
1.8017011e-25
1.8014153e-25
1.8013009e-25
1.8012857e-25
1.8013531e-25
1.8015397e-25
1.8019629e-25
1.8034764e-25
1.8013034e-25
1.8001345e-25
1.7995327e-25
1.7992477e-25
1.7991344e-25
1.7991213e-25
1.799194e-25
1.7993951e-25
1.7998608e-25
1.8023042e-25
1.8001345e-25
1.7989675e-25
1.7983669e-25
1.7980827e-25
1.7979705e-25
1.7979598e-25
1.7980375e-25
1.7982482e-25
1.7987283e-25
1.8017011e-25
1.7995327e-25
1.7983669e-25
1.797767e-25
1.7974835e-25
1.7973722e-25
1.7973633e-25
1.7974442e-25
1.7976599e-25
1.7981451e-25
1.8014153e-25
1.7992477e-25
1.7980827e-25
1.7974835e-25
1.7972005e-25
1.7970899e-25
1.7970821e-25
1.7971647e-25
1.7973827e-25
1.7978699e-25
1.8013009e-25
1.7991344e-25
1.7979705e-25
1.7973722e-25
1.7970899e-25
1.7969799e-25
1.7969727e-25
1.7970561e-25
1.7972751e-25
1.7977631e-25
1.8012857e-25
1.7991213e-25
1.7979598e-25
1.7973633e-25
1.7970821e-25
1.7969727e-25
1.7969659e-25
1.7970498e-25
1.7972692e-25
1.7977574e-25
1.8013531e-25
1.799194e-25
1.7980375e-25
1.7974442e-25
1.7971647e-25
1.7970561e-25
1.7970498e-25
1.797134e-25
1.7973536e-25
1.7978421e-25
1.8015397e-25
1.7993951e-25
1.7982482e-25
1.7976599e-25
1.7973827e-25
1.7972751e-25
1.7972692e-25
1.7973536e-25
1.7975736e-25
1.7980625e-25
1.8019629e-25
1.7998608e-25
1.7987283e-25
1.7981451e-25
1.7978699e-25
1.7977631e-25
1.7977574e-25
1.7978421e-25
1.7980625e-25
1.7985529e-25
3.5155008e-25
3.511392e-25
3.5091746e-25
3.5080306e-25
3.5074875e-25
3.5072699e-25
3.5072406e-25
3.5073668e-25
3.5077155e-25
3.5085011e-25
3.511392e-25
3.5072998e-25
3.5050884e-25
3.5039471e-25
3.5034056e-25
3.5031899e-25
3.5031646e-25
3.5033012e-25
3.5036778e-25
3.5045459e-25
3.5091746e-25
3.5050884e-25
3.5028807e-25
3.5017415e-25
3.5012015e-25
3.5009881e-25
3.5009674e-25
3.5011136e-25
3.5015089e-25
3.5024046e-25
3.5080306e-25
3.5039471e-25
3.5017415e-25
3.5006036e-25
3.5000649e-25
3.4998533e-25
3.499836e-25
3.4999885e-25
3.5003934e-25
3.5012991e-25
3.5074875e-25
3.5034056e-25
3.5012015e-25
3.5000649e-25
3.4995274e-25
3.4993171e-25
3.4993018e-25
3.4994575e-25
3.4998669e-25
3.5007764e-25
3.5072699e-25
3.5031899e-25
3.5009881e-25
3.4998533e-25
3.4993171e-25
3.4991078e-25
3.4990937e-25
3.4992511e-25
3.4996624e-25
3.5005733e-25
3.5072406e-25
3.5031646e-25
3.5009674e-25
3.499836e-25
3.4993018e-25
3.4990937e-25
3.4990805e-25
3.4992387e-25
3.4996508e-25
3.5005624e-25
3.5073668e-25
3.5033012e-25
3.5011136e-25
3.4999885e-25
3.4994575e-25
3.4992511e-25
3.4992387e-25
3.4993975e-25
3.49981e-25
3.500722e-25
3.5077155e-25
3.5036778e-25
3.5015089e-25
3.5003934e-25
3.4998669e-25
3.4996624e-25
3.4996508e-25
3.49981e-25
3.5002232e-25
3.5011359e-25
3.5085011e-25
3.5045459e-25
3.5024046e-25
3.5012991e-25
3.5007764e-25
3.5005733e-25
3.5005624e-25
3.500722e-25
3.5011359e-25
3.5020514e-25
6.9098331e-25
6.9020251e-25
6.8977936e-25
6.8956049e-25
6.8945642e-25
6.8941466e-25
6.8940893e-25
6.894328e-25
6.8949848e-25
6.8964531e-25
6.9020251e-25
6.8942484e-25
6.8900284e-25
6.8878446e-25
6.8868069e-25
6.886393e-25
6.8863436e-25
6.8866024e-25
6.8873139e-25
6.8889433e-25
6.8977936e-25
6.8900284e-25
6.8858152e-25
6.8836354e-25
6.8826006e-25
6.8821911e-25
6.8821506e-25
6.8824283e-25
6.8831762e-25
6.8848594e-25
6.8956049e-25
6.8878446e-25
6.8836354e-25
6.8814582e-25
6.880426e-25
6.88002e-25
6.8799861e-25
6.8802758e-25
6.8810424e-25
6.8827452e-25
6.8945642e-25
6.8868069e-25
6.8826006e-25
6.880426e-25
6.8793958e-25
6.8789923e-25
6.8789624e-25
6.8792586e-25
6.8800338e-25
6.881744e-25
6.8941466e-25
6.886393e-25
6.8821911e-25
6.88002e-25
6.8789923e-25
6.8785909e-25
6.8785633e-25
6.8788627e-25
6.8796416e-25
6.8813546e-25
6.8940893e-25
6.8863436e-25
6.8821506e-25
6.8799861e-25
6.8789624e-25
6.8785633e-25
6.8785374e-25
6.8788384e-25
6.8796189e-25
6.8813331e-25
6.894328e-25
6.8866024e-25
6.8824283e-25
6.8802758e-25
6.8792586e-25
6.8788627e-25
6.8788384e-25
6.8791404e-25
6.8799219e-25
6.8816369e-25
6.8949848e-25
6.8873139e-25
6.8831762e-25
6.8810424e-25
6.8800338e-25
6.8796416e-25
6.8796189e-25
6.8799219e-25
6.8807044e-25
6.8824209e-25
6.8964531e-25
6.8889433e-25
6.8848594e-25
6.8827452e-25
6.881744e-25
6.8813546e-25
6.8813331e-25
6.8816369e-25
6.8824209e-25
6.8841424e-25
1.3729628e-24
1.3714635e-24
1.3706476e-24
1.3702246e-24
1.3700231e-24
1.3699421e-24
1.3699308e-24
1.3699764e-24
1.3701014e-24
1.3703785e-24
1.3714635e-24
1.3699701e-24
1.3691565e-24
1.3687343e-24
1.3685334e-24
1.3684532e-24
1.3684434e-24
1.368493e-24
1.3686288e-24
1.3689377e-24
1.3706476e-24
1.3691565e-24
1.3683441e-24
1.3679227e-24
1.3677224e-24
1.367643e-24
1.367635e-24
1.3676883e-24
1.3678313e-24
1.3681508e-24
1.3702246e-24
1.3687343e-24
1.3679227e-24
1.3675019e-24
1.367302e-24
1.3672233e-24
1.3672167e-24
1.3672723e-24
1.367419e-24
1.3677423e-24
1.3700231e-24
1.3685334e-24
1.3677224e-24
1.367302e-24
1.3671026e-24
1.3670244e-24
1.3670185e-24
1.3670754e-24
1.3672238e-24
1.3675486e-24
1.3699421e-24
1.3684532e-24
1.367643e-24
1.3672233e-24
1.3670244e-24
1.3669466e-24
1.3669412e-24
1.3669987e-24
1.3671478e-24
1.3674731e-24
1.3699308e-24
1.3684434e-24
1.367635e-24
1.3672167e-24
1.3670185e-24
1.3669412e-24
1.366936e-24
1.3669939e-24
1.3671433e-24
1.3674689e-24
1.3699764e-24
1.368493e-24
1.3676883e-24
1.3672723e-24
1.3670754e-24
1.3669987e-24
1.3669939e-24
1.367052e-24
1.3672015e-24
1.3675273e-24
1.3701014e-24
1.3686288e-24
1.3678313e-24
1.367419e-24
1.3672238e-24
1.3671478e-24
1.3671433e-24
1.3672015e-24
1.3673513e-24
1.3676773e-24
1.3703785e-24
1.3689377e-24
1.3681508e-24
1.3677423e-24
1.3675486e-24
1.3674731e-24
1.3674689e-24
1.3675273e-24
1.3676773e-24
1.3680043e-24
2.7589029e-24
2.7559926e-24
2.7544027e-24
2.7535761e-24
2.7531818e-24
2.7530232e-24
2.7530007e-24
2.7530888e-24
2.7533294e-24
2.7538578e-24
2.7559926e-24
2.7530938e-24
2.751508e-24
2.7506833e-24
2.7502901e-24
2.7501329e-24
2.7501135e-24
2.7502095e-24
2.7504715e-24
2.7510635e-24
2.7544027e-24
2.751508e-24
2.7499248e-24
2.7491015e-24
2.7487095e-24
2.748554e-24
2.7485381e-24
2.7486415e-24
2.7489178e-24
2.7495309e-24
2.7535761e-24
2.7506833e-24
2.7491015e-24
2.7482793e-24
2.7478882e-24
2.747734e-24
2.7477207e-24
2.7478289e-24
2.7481125e-24
2.7487332e-24
2.7531818e-24
2.7502901e-24
2.7487095e-24
2.7478882e-24
2.7474979e-24
2.7473447e-24
2.747333e-24
2.7474436e-24
2.7477306e-24
2.7483543e-24
2.7530232e-24
2.7501329e-24
2.748554e-24
2.747734e-24
2.7473447e-24
2.7471923e-24
2.7471815e-24
2.7472934e-24
2.7475818e-24
2.7482066e-24
2.7530007e-24
2.7501135e-24
2.7485381e-24
2.7477207e-24
2.747333e-24
2.7471815e-24
2.7471713e-24
2.7472838e-24
2.7475729e-24
2.7481982e-24
2.7530888e-24
2.7502095e-24
2.7486415e-24
2.7478289e-24
2.7474436e-24
2.7472934e-24
2.7472838e-24
2.7473967e-24
2.7476862e-24
2.7483117e-24
2.7533294e-24
2.7504715e-24
2.7489178e-24
2.7481125e-24
2.7477306e-24
2.7475818e-24
2.7475729e-24
2.7476862e-24
2.747976e-24
2.7486021e-24
2.7538578e-24
2.7510635e-24
2.7495309e-24
2.7487332e-24
2.7483543e-24
2.7482066e-24
2.7481982e-24
2.7483117e-24
2.7486021e-24
2.74923e-24
5.6074569e-24
5.6017455e-24
5.598613e-24
5.5969805e-24
5.5962005e-24
5.5958862e-24
5.5958411e-24
5.5960133e-24
5.5964813e-24
5.5975002e-24
5.6017455e-24
5.5960564e-24
5.5929321e-24
5.5913031e-24
5.5905253e-24
5.5902139e-24
5.590175e-24
5.590363e-24
5.5908742e-24
5.5920213e-24
5.598613e-24
5.5929321e-24
5.5898126e-24
5.5881865e-24
5.5874109e-24
5.5871029e-24
5.5870711e-24
5.5872739e-24
5.5878139e-24
5.5890037e-24
5.5969805e-24
5.5913031e-24
5.5881865e-24
5.5865624e-24
5.5857887e-24
5.5854835e-24
5.5854568e-24
5.5856691e-24
5.5862239e-24
5.5874291e-24
5.5962005e-24
5.5905253e-24
5.5874109e-24
5.5857887e-24
5.5850167e-24
5.5847134e-24
5.5846898e-24
5.5849073e-24
5.5854688e-24
5.5866799e-24
5.5958862e-24
5.5902139e-24
5.5871029e-24
5.5854835e-24
5.5847134e-24
5.5844117e-24
5.5843899e-24
5.5846099e-24
5.5851743e-24
5.5863876e-24
5.5958411e-24
5.590175e-24
5.5870711e-24
5.5854568e-24
5.5846898e-24
5.5843899e-24
5.5843695e-24
5.5845907e-24
5.5851564e-24
5.5863707e-24
5.5960133e-24
5.590363e-24
5.5872739e-24
5.5856691e-24
5.5849073e-24
5.5846099e-24
5.5845907e-24
5.5848127e-24
5.5853791e-24
5.586594e-24
5.5964813e-24
5.5908742e-24
5.5878139e-24
5.5862239e-24
5.5854688e-24
5.5851743e-24
5.5851564e-24
5.5853791e-24
5.5859463e-24
5.5871622e-24
5.5975002e-24
5.5920213e-24
5.5890037e-24
5.5874291e-24
5.5866799e-24
5.5863876e-24
5.5863707e-24
5.586594e-24
5.5871622e-24
5.5883815e-24
1.1528743e-23
1.151741e-23
1.151117e-23
1.150791e-23
1.150635e-23
1.1505721e-23
1.150563e-23
1.150597e-23
1.150689e-23
1.1508877e-23
1.151741e-23
1.1506121e-23
1.1499897e-23
1.1496644e-23
1.1495089e-23
1.1494465e-23
1.1494386e-23
1.1494759e-23
1.1495768e-23
1.1498016e-23
1.151117e-23
1.1499897e-23
1.1493683e-23
1.1490436e-23
1.1488885e-23
1.1488268e-23
1.1488204e-23
1.1488606e-23
1.1489674e-23
1.1492009e-23
1.150791e-23
1.1496644e-23
1.1490436e-23
1.1487193e-23
1.1485645e-23
1.1485034e-23
1.148498e-23
1.1485402e-23
1.14865e-23
1.1488866e-23
1.150635e-23
1.1495089e-23
1.1488885e-23
1.1485645e-23
1.1484101e-23
1.1483494e-23
1.1483447e-23
1.1483879e-23
1.148499e-23
1.1487369e-23
1.1505721e-23
1.1494465e-23
1.1488268e-23
1.1485034e-23
1.1483494e-23
1.148289e-23
1.1482846e-23
1.1483284e-23
1.1484401e-23
1.1486784e-23
1.150563e-23
1.1494386e-23
1.1488204e-23
1.148498e-23
1.1483447e-23
1.1482846e-23
1.1482805e-23
1.1483245e-23
1.1484365e-23
1.148675e-23
1.150597e-23
1.1494759e-23
1.1488606e-23
1.1485402e-23
1.1483879e-23
1.1483284e-23
1.1483245e-23
1.1483687e-23
1.1484808e-23
1.1487194e-23
1.150689e-23
1.1495768e-23
1.1489674e-23
1.14865e-23
1.148499e-23
1.1484401e-23
1.1484365e-23
1.1484808e-23
1.148593e-23
1.1488319e-23
1.1508877e-23
1.1498016e-23
1.1492009e-23
1.1488866e-23
1.1487369e-23
1.1486784e-23
1.148675e-23
1.1487194e-23
1.1488319e-23
1.1490714e-23
2.3977769e-23
2.3955032e-23
2.3942465e-23
2.3935884e-23
2.3932729e-23
2.3931456e-23
2.3931268e-23
2.3931948e-23
2.393378e-23
2.3937698e-23
2.3955032e-23
2.3932382e-23
2.3919846e-23
2.3913279e-23
2.3910134e-23
2.3908872e-23
2.390871e-23
2.3909456e-23
2.391147e-23
2.3915927e-23
2.3942465e-23
2.3919846e-23
2.3907331e-23
2.3900775e-23
2.3897638e-23
2.389639e-23
2.3896258e-23
2.3897067e-23
2.3899201e-23
2.3903837e-23
2.3935884e-23
2.3913279e-23
2.3900775e-23
2.3894227e-23
2.3891098e-23
2.3889862e-23
2.3889751e-23
2.3890599e-23
2.3892795e-23
2.3897496e-23
2.3932729e-23
2.3910134e-23
2.3897638e-23
2.3891098e-23
2.3887977e-23
2.3886748e-23
2.3886651e-23
2.388752e-23
2.3889744e-23
2.389447e-23
2.3931456e-23
2.3908872e-23
2.389639e-23
2.3889862e-23
2.3886748e-23
2.3885526e-23
2.3885436e-23
2.3886316e-23
2.3888553e-23
2.3893287e-23
2.3931268e-23
2.390871e-23
2.3896258e-23
2.3889751e-23
2.3886651e-23
2.3885436e-23
2.3885352e-23
2.3886237e-23
2.3888479e-23
2.3893217e-23
2.3931948e-23
2.3909456e-23
2.3897067e-23
2.3890599e-23
2.388752e-23
2.3886316e-23
2.3886237e-23
2.3887125e-23
2.388937e-23
2.3894111e-23
2.393378e-23
2.391147e-23
2.3899201e-23
2.3892795e-23
2.3889744e-23
2.3888553e-23
2.3888479e-23
2.388937e-23
2.3891618e-23
2.3896363e-23
2.3937698e-23
2.3915927e-23
2.3903837e-23
2.3897496e-23
2.389447e-23
2.3893287e-23
2.3893217e-23
2.3894111e-23
2.3896363e-23
2.3901121e-23
5.045051e-23
5.0404382e-23
5.0378791e-23
5.0365358e-23
5.035891e-23
5.0356302e-23
5.0355915e-23
5.0357289e-23
5.0360977e-23
5.036879e-23
5.0404382e-23
5.035843e-23
5.0332903e-23
5.0319497e-23
5.0313067e-23
5.0310483e-23
5.031015e-23
5.0311662e-23
5.0315728e-23
5.0324665e-23
5.0378791e-23
5.0332903e-23
5.0307414e-23
5.0294031e-23
5.028762e-23
5.0285066e-23
5.0284793e-23
5.0286435e-23
5.0290752e-23
5.0300062e-23
5.0365358e-23
5.0319497e-23
5.0294031e-23
5.0280665e-23
5.027427e-23
5.0271739e-23
5.0271511e-23
5.0273236e-23
5.0277681e-23
5.0287127e-23
5.035891e-23
5.0313067e-23
5.028762e-23
5.027427e-23
5.0267888e-23
5.0265375e-23
5.0265174e-23
5.0266943e-23
5.0271447e-23
5.0280943e-23
5.0356302e-23
5.0310483e-23
5.0285066e-23
5.0271739e-23
5.0265375e-23
5.0262875e-23
5.026269e-23
5.026448e-23
5.026901e-23
5.0278526e-23
5.0355915e-23
5.031015e-23
5.0284793e-23
5.0271511e-23
5.0265174e-23
5.026269e-23
5.0262517e-23
5.0264317e-23
5.0268858e-23
5.0278382e-23
5.0357289e-23
5.0311662e-23
5.0286435e-23
5.0273236e-23
5.0266943e-23
5.026448e-23
5.0264317e-23
5.0266125e-23
5.0270672e-23
5.0280201e-23
5.0360977e-23
5.0315728e-23
5.0290752e-23
5.0277681e-23
5.0271447e-23
5.026901e-23
5.0268858e-23
5.0270672e-23
5.0275225e-23
5.0284762e-23
5.036879e-23
5.0324665e-23
5.0300062e-23
5.0287127e-23
5.0280943e-23
5.0278526e-23
5.0278382e-23
5.0280201e-23
5.0284762e-23
5.0294324e-23
1.0739085e-22
1.0729622e-22
1.0724353e-22
1.0721581e-22
1.0720248e-22
1.0719708e-22
1.0719627e-22
1.0719908e-22
1.0720659e-22
1.0722235e-22
1.0729622e-22
1.0720195e-22
1.0714939e-22
1.0712172e-22
1.0710843e-22
1.0710309e-22
1.0710239e-22
1.0710549e-22
1.0711379e-22
1.0713192e-22
1.0724353e-22
1.0714939e-22
1.0709691e-22
1.0706928e-22
1.0705603e-22
1.0705075e-22
1.0705018e-22
1.0705355e-22
1.0706239e-22
1.070813e-22
1.0721581e-22
1.0712172e-22
1.0706928e-22
1.070417e-22
1.0702848e-22
1.0702324e-22
1.0702277e-22
1.0702632e-22
1.0703542e-22
1.0705462e-22
1.0720248e-22
1.0710843e-22
1.0705603e-22
1.0702848e-22
1.0701529e-22
1.0701009e-22
1.0700967e-22
1.0701331e-22
1.0702254e-22
1.0704185e-22
1.0719708e-22
1.0710309e-22
1.0705075e-22
1.0702324e-22
1.0701009e-22
1.0700492e-22
1.0700454e-22
1.0700822e-22
1.070175e-22
1.0703685e-22
1.0719627e-22
1.0710239e-22
1.0705018e-22
1.0702277e-22
1.0700967e-22
1.0700454e-22
1.0700418e-22
1.0700788e-22
1.0701719e-22
1.0703655e-22
1.0719908e-22
1.0710549e-22
1.0705355e-22
1.0702632e-22
1.0701331e-22
1.0700822e-22
1.0700788e-22
1.0701161e-22
1.0702092e-22
1.070403e-22
1.0720659e-22
1.0711379e-22
1.0706239e-22
1.0703542e-22
1.0702254e-22
1.070175e-22
1.0701719e-22
1.0702092e-22
1.0703025e-22
1.0704964e-22
1.0722235e-22
1.0713192e-22
1.070813e-22
1.0705462e-22
1.0704185e-22
1.0703685e-22
1.0703655e-22
1.070403e-22
1.0704964e-22
1.0706908e-22
2.3127293e-22
2.3107664e-22
2.3096694e-22
2.3090908e-22
2.3088123e-22
2.3086994e-22
2.3086823e-22
2.3087404e-22
2.3088951e-22
2.3092165e-22
2.3107664e-22
2.3088109e-22
2.3077165e-22
2.3071391e-22
2.3068613e-22
2.3067495e-22
2.3067348e-22
2.3067991e-22
2.3069707e-22
2.3073427e-22
2.3096694e-22
2.3077165e-22
2.3066237e-22
2.3060473e-22
2.3057703e-22
2.3056598e-22
2.3056479e-22
2.305718e-22
2.3059008e-22
2.3062895e-22
2.3090908e-22
2.3071391e-22
2.3060473e-22
2.3054716e-22
2.3051953e-22
2.3050859e-22
2.3050759e-22
2.3051497e-22
2.3053383e-22
2.3057331e-22
2.3088123e-22
2.3068613e-22
2.3057703e-22
2.3051953e-22
2.3049197e-22
2.304811e-22
2.3048023e-22
2.304878e-22
2.3050692e-22
2.3054663e-22
2.3086994e-22
2.3067495e-22
2.3056598e-22
2.3050859e-22
2.304811e-22
2.3047029e-22
2.3046949e-22
2.3047716e-22
2.3049639e-22
2.3053619e-22
2.3086823e-22
2.3067348e-22
2.3056479e-22
2.3050759e-22
2.3048023e-22
2.3046949e-22
2.3046873e-22
2.3047645e-22
2.3049574e-22
2.3053557e-22
2.3087404e-22
2.3067991e-22
2.305718e-22
2.3051497e-22
2.304878e-22
2.3047716e-22
2.3047645e-22
2.3048421e-22
2.3050352e-22
2.3054337e-22
2.3088951e-22
2.3069707e-22
2.3059008e-22
2.3053383e-22
2.3050692e-22
2.3049639e-22
2.3049574e-22
2.3050352e-22
2.3052285e-22
2.3056274e-22
2.3092165e-22
2.3073427e-22
2.3062895e-22
2.3057331e-22
2.3054663e-22
2.3053619e-22
2.3053557e-22
2.3054337e-22
2.3056274e-22
2.3060272e-22
5.0390043e-22
5.034887e-22
5.0325775e-22
5.0313568e-22
5.0307683e-22
5.0305296e-22
5.0304931e-22
5.0306148e-22
5.0309368e-22
5.0316001e-22
5.034887e-22
5.0307849e-22
5.0284809e-22
5.0272626e-22
5.0266758e-22
5.0264393e-22
5.026408e-22
5.026543e-22
5.0269016e-22
5.0276737e-22
5.0325775e-22
5.0284809e-22
5.0261804e-22
5.0249642e-22
5.024379e-22
5.0241454e-22
5.0241199e-22
5.0242674e-22
5.0246501e-22
5.0254583e-22
5.0313568e-22
5.0272626e-22
5.0249642e-22
5.0237495e-22
5.0231658e-22
5.0229344e-22
5.0229132e-22
5.0230686e-22
5.0234638e-22
5.024285e-22
5.0307683e-22
5.0266758e-22
5.024379e-22
5.0231658e-22
5.0225835e-22
5.0223537e-22
5.0223351e-22
5.0224947e-22
5.0228956e-22
5.0237218e-22
5.0305296e-22
5.0264393e-22
5.0241454e-22
5.0229344e-22
5.0223537e-22
5.0221252e-22
5.0221082e-22
5.0222699e-22
5.0226731e-22
5.0235012e-22
5.0304931e-22
5.026408e-22
5.0241199e-22
5.0229132e-22
5.0223351e-22
5.0221082e-22
5.0220922e-22
5.022255e-22
5.0226593e-22
5.0234881e-22
5.0306148e-22
5.026543e-22
5.0242674e-22
5.0230686e-22
5.0224947e-22
5.0222699e-22
5.022255e-22
5.0224183e-22
5.0228232e-22
5.0236525e-22
5.0309368e-22
5.0269016e-22
5.0246501e-22
5.0234638e-22
5.0228956e-22
5.0226731e-22
5.0226593e-22
5.0228232e-22
5.0232286e-22
5.0240586e-22
5.0316001e-22
5.0276737e-22
5.0254583e-22
5.024285e-22
5.0237218e-22
5.0235012e-22
5.0234881e-22
5.0236525e-22
5.0240586e-22
5.0248907e-22
1.1107827e-21
1.1099094e-21
1.1094178e-21
1.1091574e-21
1.1090317e-21
1.1089807e-21
1.1089728e-21
1.1089986e-21
1.1090664e-21
1.1092049e-21
1.1099094e-21
1.1090394e-21
1.1085489e-21
1.108289e-21
1.1081636e-21
1.1081131e-21
1.1081064e-21
1.108135e-21
1.1082108e-21
1.108373e-21
1.1094178e-21
1.1085489e-21
1.1080592e-21
1.1077998e-21
1.1076748e-21
1.1076248e-21
1.1076193e-21
1.1076507e-21
1.1077318e-21
1.1079018e-21
1.1091574e-21
1.108289e-21
1.1077998e-21
1.1075406e-21
1.1074159e-21
1.1073665e-21
1.1073619e-21
1.107395e-21
1.1074788e-21
1.1076517e-21
1.1090317e-21
1.1081636e-21
1.1076748e-21
1.1074159e-21
1.1072915e-21
1.1072424e-21
1.1072385e-21
1.1072725e-21
1.1073575e-21
1.1075314e-21
1.1089807e-21
1.1081131e-21
1.1076248e-21
1.1073665e-21
1.1072424e-21
1.1071936e-21
1.10719e-21
1.1072244e-21
1.10731e-21
1.1074843e-21
1.1089728e-21
1.1081064e-21
1.1076193e-21
1.1073619e-21
1.1072385e-21
1.10719e-21
1.1071866e-21
1.1072213e-21
1.107307e-21
1.1074815e-21
1.1089986e-21
1.108135e-21
1.1076507e-21
1.107395e-21
1.1072725e-21
1.1072244e-21
1.1072213e-21
1.1072561e-21
1.107342e-21
1.1075166e-21
1.1090664e-21
1.1082108e-21
1.1077318e-21
1.1074788e-21
1.1073575e-21
1.10731e-21
1.107307e-21
1.107342e-21
1.107428e-21
1.1076027e-21
1.1092049e-21
1.108373e-21
1.1079018e-21
1.1076517e-21
1.1075314e-21
1.1074843e-21
1.1074815e-21
1.1075166e-21
1.1076027e-21
1.1077779e-21
2.4772807e-21
2.4754078e-21
2.4743499e-21
2.4737882e-21
2.4735166e-21
2.4734063e-21
2.4733892e-21
2.4734444e-21
2.473589e-21
2.4738812e-21
2.4754078e-21
2.4735418e-21
2.4724863e-21
2.4719257e-21
2.4716549e-21
2.4715456e-21
2.471531e-21
2.4715925e-21
2.4717547e-21
2.4720992e-21
2.4743499e-21
2.4724863e-21
2.4714323e-21
2.4708726e-21
2.4706027e-21
2.4704947e-21
2.4704829e-21
2.4705504e-21
2.4707241e-21
2.4710859e-21
2.4737882e-21
2.4719257e-21
2.4708726e-21
2.4703137e-21
2.4700444e-21
2.4699375e-21
2.4699278e-21
2.4699991e-21
2.4701787e-21
2.4705468e-21
2.4735166e-21
2.4716549e-21
2.4706027e-21
2.4700444e-21
2.4697758e-21
2.4696696e-21
2.4696611e-21
2.4697345e-21
2.4699168e-21
2.4702872e-21
2.4734063e-21
2.4715456e-21
2.4704947e-21
2.4699375e-21
2.4696696e-21
2.4695642e-21
2.4695564e-21
2.4696307e-21
2.4698142e-21
2.4701855e-21
2.4733892e-21
2.471531e-21
2.4704829e-21
2.4699278e-21
2.4696611e-21
2.4695564e-21
2.4695491e-21
2.4696239e-21
2.4698079e-21
2.4701796e-21
2.4734444e-21
2.4715925e-21
2.4705504e-21
2.4699991e-21
2.4697345e-21
2.4696307e-21
2.4696239e-21
2.469699e-21
2.4698833e-21
2.4702552e-21
2.473589e-21
2.4717547e-21
2.4707241e-21
2.4701787e-21
2.4699168e-21
2.4698142e-21
2.4698079e-21
2.4698833e-21
2.4700679e-21
2.4704401e-21
2.4738812e-21
2.4720992e-21
2.4710859e-21
2.4705468e-21
2.4702872e-21
2.4701855e-21
2.4701796e-21
2.4702552e-21
2.4704401e-21
2.4708132e-21
5.589529e-21
5.5854677e-21
5.5831657e-21
5.5819409e-21
5.581348e-21
5.5811069e-21
5.5810693e-21
5.5811889e-21
5.5815007e-21
5.5821247e-21
5.5854677e-21
5.5814211e-21
5.5791244e-21
5.5779019e-21
5.5773106e-21
5.5770719e-21
5.5770399e-21
5.5771736e-21
5.5775245e-21
5.5782648e-21
5.5831657e-21
5.5791244e-21
5.576831e-21
5.5756106e-21
5.5750211e-21
5.5747852e-21
5.5747594e-21
5.5749064e-21
5.575283e-21
5.5760619e-21
5.5819409e-21
5.5779019e-21
5.5756106e-21
5.5743916e-21
5.5738037e-21
5.5735702e-21
5.573549e-21
5.5737044e-21
5.5740942e-21
5.574887e-21
5.581348e-21
5.5773106e-21
5.5750211e-21
5.5738037e-21
5.5732171e-21
5.5729853e-21
5.5729669e-21
5.5731268e-21
5.5735226e-21
5.5743207e-21
5.5811069e-21
5.5770719e-21
5.5747852e-21
5.5735702e-21
5.5729853e-21
5.572755e-21
5.5727381e-21
5.5729002e-21
5.5732986e-21
5.5740988e-21
5.5810693e-21
5.5770399e-21
5.5747594e-21
5.573549e-21
5.5729669e-21
5.5727381e-21
5.5727224e-21
5.5728856e-21
5.5732851e-21
5.574086e-21
5.5811889e-21
5.5771736e-21
5.5749064e-21
5.5737044e-21
5.5731268e-21
5.5729002e-21
5.5728856e-21
5.5730495e-21
5.5734497e-21
5.574251e-21
5.5815007e-21
5.5775245e-21
5.575283e-21
5.5740942e-21
5.5735226e-21
5.5732986e-21
5.5732851e-21
5.5734497e-21
5.5738503e-21
5.5746523e-21
5.5821247e-21
5.5782648e-21
5.5760619e-21
5.574887e-21
5.5743207e-21
5.5740988e-21
5.574086e-21
5.574251e-21
5.5746523e-21
5.5754562e-21
1.2758977e-20
1.2750073e-20
1.2745009e-20
1.2742309e-20
1.2741e-20
1.2740467e-20
1.2740384e-20
1.2740646e-20
1.2741326e-20
1.2742674e-20
1.2750073e-20
1.2741201e-20
1.2736148e-20
1.2733453e-20
1.2732148e-20
1.2731621e-20
1.273155e-20
1.2731844e-20
1.2732612e-20
1.2734221e-20
1.2745009e-20
1.2736148e-20
1.2731103e-20
1.2728412e-20
1.2727111e-20
1.272659e-20
1.2726533e-20
1.2726857e-20
1.2727683e-20
1.2729379e-20
1.2742309e-20
1.2733453e-20
1.2728412e-20
1.2725725e-20
1.2724427e-20
1.2723912e-20
1.2723865e-20
1.2724208e-20
1.2725064e-20
1.2726791e-20
1.2741e-20
1.2732148e-20
1.2727111e-20
1.2724427e-20
1.2723133e-20
1.2722621e-20
1.2722581e-20
1.2722934e-20
1.2723803e-20
1.2725542e-20
1.2740467e-20
1.2731621e-20
1.272659e-20
1.2723912e-20
1.2722621e-20
1.2722113e-20
1.2722076e-20
1.2722434e-20
1.2723308e-20
1.2725053e-20
1.2740384e-20
1.273155e-20
1.2726533e-20
1.2723865e-20
1.2722581e-20
1.2722076e-20
1.2722041e-20
1.2722402e-20
1.2723279e-20
1.2725025e-20
1.2740646e-20
1.2731844e-20
1.2726857e-20
1.2724208e-20
1.2722934e-20
1.2722434e-20
1.2722402e-20
1.2722764e-20
1.2723642e-20
1.2725389e-20
1.2741326e-20
1.2732612e-20
1.2727683e-20
1.2725064e-20
1.2723803e-20
1.2723308e-20
1.2723279e-20
1.2723642e-20
1.2724522e-20
1.272627e-20
1.2742674e-20
1.2734221e-20
1.2729379e-20
1.2726791e-20
1.2725542e-20
1.2725053e-20
1.2725025e-20
1.2725389e-20
1.272627e-20
1.2728023e-20
2.946308e-20
2.9443345e-20
2.9432083e-20
2.9426066e-20
2.9423146e-20
2.9421956e-20
2.942177e-20
2.9422351e-20
2.9423851e-20
2.9426794e-20
2.9443345e-20
2.9423679e-20
2.9412443e-20
2.9406437e-20
2.9403525e-20
2.9402347e-20
2.9402189e-20
2.9402843e-20
2.9404543e-20
2.9408082e-20
2.9432083e-20
2.9412443e-20
2.9401222e-20
2.9395226e-20
2.9392323e-20
2.939116e-20
2.9391034e-20
2.9391755e-20
2.9393587e-20
2.9397324e-20
2.9426066e-20
2.9406437e-20
2.9395226e-20
2.9389238e-20
2.9386342e-20
2.9385192e-20
2.9385088e-20
2.9385853e-20
2.9387752e-20
2.9391561e-20
2.9423146e-20
2.9403525e-20
2.9392323e-20
2.9386342e-20
2.9383453e-20
2.9382312e-20
2.9382222e-20
2.938301e-20
2.938494e-20
2.9388776e-20
2.9421956e-20
2.9402347e-20
2.939116e-20
2.9385192e-20
2.9382312e-20
2.9381177e-20
2.9381096e-20
2.9381895e-20
2.9383838e-20
2.9387684e-20
2.942177e-20
2.9402189e-20
2.9391034e-20
2.9385088e-20
2.9382222e-20
2.9381096e-20
2.9381021e-20
2.9381825e-20
2.9383774e-20
2.9387624e-20
2.9422351e-20
2.9402843e-20
2.9391755e-20
2.9385853e-20
2.938301e-20
2.9381895e-20
2.9381825e-20
2.9382633e-20
2.9384585e-20
2.9388438e-20
2.9423851e-20
2.9404543e-20
2.9393587e-20
2.9387752e-20
2.938494e-20
2.9383838e-20
2.9383774e-20
2.9384585e-20
2.938654e-20
2.9390395e-20
2.9426794e-20
2.9408082e-20
2.9397324e-20
2.9391561e-20
2.9388776e-20
2.9387684e-20
2.9387624e-20
2.9388438e-20
2.9390395e-20