/*--------------------------------*- C++ -*----------------------------------*\
| =========                 |                                                 |
| \\      /  F ield         | OpenFOAM: The Open Source CFD Toolbox           |
|  \\    /   O peration     | Version:  dev                                   |
|   \\  /    A nd           | Web:      www.OpenFOAM.org                      |
|    \\/     M anipulation  |                                                 |
\*---------------------------------------------------------------------------*/
FoamFile
{
    version     2.0;
    format      ascii;
    class       volScalarField;
    location    "88.995";
    object      A;
}
// * * * * * * * * * * * * * * * * * * * * * * * * * * * * * * * * * * * * * //

dimensions      [0 0 0 0 1 0 0];

internalField   nonuniform List<scalar> 
10000
(
1.1493869e-22
1.1483184e-22
1.1477283e-22
1.1473888e-22
1.1472022e-22
1.1471131e-22
1.147092e-22
1.1471316e-22
1.1472488e-22
1.1474799e-22
1.1483184e-22
1.1472541e-22
1.1466654e-22
1.1463265e-22
1.1461405e-22
1.146052e-22
1.1460321e-22
1.1460744e-22
1.1461983e-22
1.1464485e-22
1.1477283e-22
1.1466654e-22
1.1460776e-22
1.1457394e-22
1.145554e-22
1.1454663e-22
1.1454479e-22
1.1454928e-22
1.1456214e-22
1.1458783e-22
1.1473888e-22
1.1463265e-22
1.1457394e-22
1.1454018e-22
1.145217e-22
1.1451301e-22
1.1451129e-22
1.1451597e-22
1.145291e-22
1.1455505e-22
1.1472022e-22
1.1461405e-22
1.145554e-22
1.145217e-22
1.1450328e-22
1.1449466e-22
1.1449303e-22
1.1449783e-22
1.145111e-22
1.1453715e-22
1.1471131e-22
1.146052e-22
1.1454663e-22
1.1451301e-22
1.1449466e-22
1.144861e-22
1.1448454e-22
1.1448941e-22
1.1450276e-22
1.1452886e-22
1.147092e-22
1.1460321e-22
1.1454479e-22
1.1451129e-22
1.1449303e-22
1.1448454e-22
1.1448302e-22
1.1448795e-22
1.1450133e-22
1.1452746e-22
1.1471316e-22
1.1460744e-22
1.1454928e-22
1.1451597e-22
1.1449783e-22
1.1448941e-22
1.1448795e-22
1.144929e-22
1.1450631e-22
1.1453246e-22
1.1472488e-22
1.1461983e-22
1.1456214e-22
1.145291e-22
1.145111e-22
1.1450276e-22
1.1450133e-22
1.1450631e-22
1.1451975e-22
1.1454593e-22
1.1474799e-22
1.1464485e-22
1.1458783e-22
1.1455505e-22
1.1453715e-22
1.1452886e-22
1.1452746e-22
1.1453246e-22
1.1454593e-22
1.1457218e-22
3.7811639e-22
3.7777859e-22
3.7758646e-22
3.7747566e-22
3.7741474e-22
3.773856e-22
3.7737869e-22
3.7739156e-22
3.7742978e-22
3.775078e-22
3.7777859e-22
3.7744205e-22
3.7725038e-22
3.7713981e-22
3.7707905e-22
3.7705013e-22
3.770436e-22
3.7705734e-22
3.7709777e-22
3.7718211e-22
3.7758646e-22
3.7725038e-22
3.7705902e-22
3.7694865e-22
3.768881e-22
3.7685945e-22
3.768534e-22
3.7686801e-22
3.7690999e-22
3.769965e-22
3.7747566e-22
3.7713981e-22
3.7694865e-22
3.7683848e-22
3.7677812e-22
3.7674973e-22
3.7674408e-22
3.7675933e-22
3.7680217e-22
3.7688953e-22
3.7741474e-22
3.7707905e-22
3.768881e-22
3.7677812e-22
3.7671795e-22
3.7668979e-22
3.7668444e-22
3.7670008e-22
3.7674338e-22
3.768311e-22
3.773856e-22
3.7705013e-22
3.7685945e-22
3.7674973e-22
3.7668979e-22
3.7666184e-22
3.766567e-22
3.7667257e-22
3.7671611e-22
3.76804e-22
3.7737869e-22
3.770436e-22
3.768534e-22
3.7674408e-22
3.7668444e-22
3.766567e-22
3.7665173e-22
3.7666776e-22
3.7671143e-22
3.7679941e-22
3.7739156e-22
3.7705734e-22
3.7686801e-22
3.7675933e-22
3.7670008e-22
3.7667257e-22
3.7666776e-22
3.766839e-22
3.7672767e-22
3.768157e-22
3.7742978e-22
3.7709777e-22
3.7690999e-22
3.7680217e-22
3.7674338e-22
3.7671611e-22
3.7671143e-22
3.7672767e-22
3.7677152e-22
3.7685965e-22
3.775078e-22
3.7718211e-22
3.769965e-22
3.7688953e-22
3.768311e-22
3.76804e-22
3.7679941e-22
3.768157e-22
3.7685965e-22
3.7694803e-22
7.5292844e-22
7.5227827e-22
7.5190261e-22
7.516853e-22
7.5156564e-22
7.5150836e-22
7.5149467e-22
7.5151971e-22
7.5159437e-22
7.5175173e-22
7.5227827e-22
7.5163048e-22
7.5125572e-22
7.5103884e-22
7.5091951e-22
7.5086264e-22
7.5084972e-22
7.5087648e-22
7.5095552e-22
7.5112545e-22
7.5190261e-22
7.5125572e-22
7.5088154e-22
7.5066508e-22
7.5054614e-22
7.5048981e-22
7.5047783e-22
7.5050633e-22
7.5058844e-22
7.5076269e-22
7.516853e-22
7.5103884e-22
7.5066508e-22
7.5044898e-22
7.5033043e-22
7.5027463e-22
7.5026344e-22
7.5029318e-22
7.5037701e-22
7.5055294e-22
7.5156564e-22
7.5091951e-22
7.5054614e-22
7.5033043e-22
7.5021227e-22
7.5015691e-22
7.5014631e-22
7.5017683e-22
7.5026157e-22
7.5043821e-22
7.5150836e-22
7.5086264e-22
7.5048981e-22
7.5027463e-22
7.5015691e-22
7.5010195e-22
7.5009178e-22
7.5012277e-22
7.5020799e-22
7.5038495e-22
7.5149467e-22
7.5084972e-22
7.5047783e-22
7.5026344e-22
7.5014631e-22
7.5009178e-22
7.5008194e-22
7.5011324e-22
7.5019872e-22
7.5037586e-22
7.5151971e-22
7.5087648e-22
7.5050633e-22
7.5029318e-22
7.5017683e-22
7.5012277e-22
7.5011324e-22
7.5014476e-22
7.5023042e-22
7.5040768e-22
7.5159437e-22
7.5095552e-22
7.5058844e-22
7.5037701e-22
7.5026157e-22
7.5020799e-22
7.5019872e-22
7.5023042e-22
7.5031624e-22
7.5049369e-22
7.5175173e-22
7.5112545e-22
7.5076269e-22
7.5055294e-22
7.5043821e-22
7.5038495e-22
7.5037586e-22
7.5040768e-22
7.5049369e-22
7.5067167e-22
1.3551138e-21
1.3539823e-21
1.353322e-21
1.3529387e-21
1.3527273e-21
1.352626e-21
1.3526016e-21
1.3526452e-21
1.3527757e-21
1.3530542e-21
1.3539823e-21
1.3528549e-21
1.3521961e-21
1.3518136e-21
1.3516028e-21
1.3515022e-21
1.3514791e-21
1.3515258e-21
1.3516642e-21
1.3519652e-21
1.353322e-21
1.3521961e-21
1.3515384e-21
1.3511566e-21
1.3509465e-21
1.3508469e-21
1.3508255e-21
1.3508753e-21
1.3510192e-21
1.3513279e-21
1.3529387e-21
1.3518136e-21
1.3511566e-21
1.3507755e-21
1.3505661e-21
1.3504674e-21
1.3504474e-21
1.3504995e-21
1.3506464e-21
1.3509581e-21
1.3527273e-21
1.3516028e-21
1.3509465e-21
1.3505661e-21
1.3503574e-21
1.3502594e-21
1.3502405e-21
1.350294e-21
1.3504425e-21
1.3507555e-21
1.352626e-21
1.3515022e-21
1.3508469e-21
1.3504674e-21
1.3502594e-21
1.3501622e-21
1.3501441e-21
1.3501984e-21
1.3503478e-21
1.3506613e-21
1.3526016e-21
1.3514791e-21
1.3508255e-21
1.3504474e-21
1.3502405e-21
1.3501441e-21
1.3501265e-21
1.3501813e-21
1.3503312e-21
1.3506451e-21
1.3526452e-21
1.3515258e-21
1.3508753e-21
1.3504995e-21
1.350294e-21
1.3501984e-21
1.3501813e-21
1.3502366e-21
1.3503868e-21
1.3507009e-21
1.3527757e-21
1.3516642e-21
1.3510192e-21
1.3506464e-21
1.3504425e-21
1.3503478e-21
1.3503312e-21
1.3503868e-21
1.3505373e-21
1.3508517e-21
1.3530542e-21
1.3519652e-21
1.3513279e-21
1.3509581e-21
1.3507555e-21
1.3506613e-21
1.3506451e-21
1.3507009e-21
1.3508517e-21
1.3511671e-21
2.3799312e-21
2.3780102e-21
2.3768813e-21
2.376224e-21
2.3758607e-21
2.3756862e-21
2.3756437e-21
2.3757175e-21
2.3759387e-21
2.3764109e-21
2.3780102e-21
2.376096e-21
2.3749698e-21
2.3743137e-21
2.3739514e-21
2.3737782e-21
2.3737381e-21
2.3738173e-21
2.3740522e-21
2.3745638e-21
2.3768813e-21
2.3749698e-21
2.3738453e-21
2.3731905e-21
2.3728293e-21
2.3726578e-21
2.3726206e-21
2.3727053e-21
2.3729497e-21
2.3734749e-21
2.376224e-21
2.3743137e-21
2.3731905e-21
2.3725367e-21
2.3721768e-21
2.3720069e-21
2.3719722e-21
2.3720607e-21
2.3723105e-21
2.3728409e-21
2.3758607e-21
2.3739514e-21
2.3728293e-21
2.3721768e-21
2.3718181e-21
2.3716496e-21
2.3716167e-21
2.3717076e-21
2.3719602e-21
2.3724929e-21
2.3756862e-21
2.3737782e-21
2.3726578e-21
2.3720069e-21
2.3716496e-21
2.3714823e-21
2.3714507e-21
2.3715431e-21
2.3717972e-21
2.3723309e-21
2.3756437e-21
2.3737381e-21
2.3726206e-21
2.3719722e-21
2.3716167e-21
2.3714507e-21
2.3714202e-21
2.3715135e-21
2.3717685e-21
2.3723027e-21
2.3757175e-21
2.3738173e-21
2.3727053e-21
2.3720607e-21
2.3717076e-21
2.3715431e-21
2.3715135e-21
2.3716076e-21
2.3718631e-21
2.3723976e-21
2.3759387e-21
2.3740522e-21
2.3729497e-21
2.3723105e-21
2.3719602e-21
2.3717972e-21
2.3717685e-21
2.3718631e-21
2.3721191e-21
2.3726542e-21
2.3764109e-21
2.3745638e-21
2.3734749e-21
2.3728409e-21
2.3724929e-21
2.3723309e-21
2.3723027e-21
2.3723976e-21
2.3726542e-21
2.3731909e-21
4.1727086e-21
4.169454e-21
4.1675308e-21
4.1664073e-21
4.1657852e-21
4.1654859e-21
4.1654122e-21
4.1655365e-21
4.165909e-21
4.1667013e-21
4.169454e-21
4.1662109e-21
4.1642922e-21
4.1631709e-21
4.1625504e-21
4.1622533e-21
4.1621838e-21
4.1623174e-21
4.1627138e-21
4.1635749e-21
4.1675308e-21
4.1642922e-21
4.1623764e-21
4.1612572e-21
4.1606388e-21
4.1603446e-21
4.1602802e-21
4.1604232e-21
4.1608363e-21
4.161721e-21
4.1664073e-21
4.1631709e-21
4.1612572e-21
4.16014e-21
4.1595237e-21
4.1592322e-21
4.1591721e-21
4.1593219e-21
4.1597442e-21
4.160638e-21
4.1657852e-21
4.1625504e-21
4.1606388e-21
4.1595237e-21
4.1589094e-21
4.1586203e-21
4.1585634e-21
4.1587174e-21
4.1591447e-21
4.1600423e-21
4.1654859e-21
4.1622533e-21
4.1603446e-21
4.1592322e-21
4.1586203e-21
4.1583335e-21
4.1582788e-21
4.1584353e-21
4.1588652e-21
4.1597646e-21
4.1654122e-21
4.1621838e-21
4.1602802e-21
4.1591721e-21
4.1585634e-21
4.1582788e-21
4.158226e-21
4.1583841e-21
4.1588155e-21
4.1597158e-21
4.1655365e-21
4.1623174e-21
4.1604232e-21
4.1593219e-21
4.1587174e-21
4.1584353e-21
4.1583841e-21
4.1585435e-21
4.1589758e-21
4.1598767e-21
4.165909e-21
4.1627138e-21
4.1608363e-21
4.1597442e-21
4.1591447e-21
4.1588652e-21
4.1588155e-21
4.1589758e-21
4.1594089e-21
4.1603108e-21
4.1667013e-21
4.1635749e-21
4.161721e-21
4.160638e-21
4.1600423e-21
4.1597646e-21
4.1597158e-21
4.1598767e-21
4.1603108e-21
4.1612154e-21
7.3587754e-21
7.3532316e-21
7.3499397e-21
7.3480106e-21
7.3469402e-21
7.3464242e-21
7.346296e-21
7.346506e-21
7.3471357e-21
7.3484669e-21
7.3532316e-21
7.3477074e-21
7.3444229e-21
7.3424975e-21
7.3414299e-21
7.3409178e-21
7.3407968e-21
7.3410231e-21
7.3416947e-21
7.3431465e-21
7.3499397e-21
7.3444229e-21
7.3411435e-21
7.3392217e-21
7.3381577e-21
7.3376507e-21
7.3375386e-21
7.3377814e-21
7.338482e-21
7.3399751e-21
7.3480106e-21
7.3424975e-21
7.3392217e-21
7.3373033e-21
7.3362429e-21
7.3357407e-21
7.3356361e-21
7.3358906e-21
7.3366076e-21
7.3381167e-21
7.3469402e-21
7.3414299e-21
7.3381577e-21
7.3362429e-21
7.3351862e-21
7.3346881e-21
7.334589e-21
7.3348509e-21
7.3355765e-21
7.3370923e-21
7.3464242e-21
7.3409178e-21
7.3376507e-21
7.3357407e-21
7.3346881e-21
7.3341939e-21
7.3340988e-21
7.3343651e-21
7.3350952e-21
7.3366141e-21
7.346296e-21
7.3407968e-21
7.3375386e-21
7.3356361e-21
7.334589e-21
7.3340988e-21
7.3340068e-21
7.3342761e-21
7.3350086e-21
7.3365291e-21
7.346506e-21
7.3410231e-21
7.3377814e-21
7.3358906e-21
7.3348509e-21
7.3343651e-21
7.3342761e-21
7.3345474e-21
7.3352815e-21
7.3368032e-21
7.3471357e-21
7.3416947e-21
7.338482e-21
7.3366076e-21
7.3355765e-21
7.3350952e-21
7.3350086e-21
7.3352815e-21
7.3360172e-21
7.3375404e-21
7.3484669e-21
7.3431465e-21
7.3399751e-21
7.3381167e-21
7.3370923e-21
7.3366141e-21
7.3365291e-21
7.3368032e-21
7.3375404e-21
7.3390682e-21
1.3086849e-20
1.3077331e-20
1.3071652e-20
1.3068315e-20
1.3066459e-20
1.3065563e-20
1.3065338e-20
1.3065695e-20
1.3066767e-20
1.3069018e-20
1.3077331e-20
1.3067845e-20
1.306218e-20
1.3058848e-20
1.3056998e-20
1.3056108e-20
1.3055896e-20
1.3056282e-20
1.3057428e-20
1.3059892e-20
1.3071652e-20
1.306218e-20
1.3056523e-20
1.3053198e-20
1.3051353e-20
1.3050473e-20
1.3050276e-20
1.3050691e-20
1.3051889e-20
1.3054426e-20
1.3068315e-20
1.3058848e-20
1.3053198e-20
1.3049878e-20
1.304804e-20
1.3047168e-20
1.3046985e-20
1.3047421e-20
1.3048647e-20
1.3051212e-20
1.3066459e-20
1.3056998e-20
1.3051353e-20
1.304804e-20
1.3046208e-20
1.3045344e-20
1.304517e-20
1.3045619e-20
1.304686e-20
1.3049437e-20
1.3065563e-20
1.3056108e-20
1.3050473e-20
1.3047168e-20
1.3045344e-20
1.3044486e-20
1.3044319e-20
1.3044776e-20
1.3046025e-20
1.3048607e-20
1.3065338e-20
1.3055896e-20
1.3050276e-20
1.3046985e-20
1.304517e-20
1.3044319e-20
1.3044158e-20
1.304462e-20
1.3045873e-20
1.3048458e-20
1.3065695e-20
1.3056282e-20
1.3050691e-20
1.3047421e-20
1.3045619e-20
1.3044776e-20
1.304462e-20
1.3045085e-20
1.3046342e-20
1.3048929e-20
1.3066767e-20
1.3057428e-20
1.3051889e-20
1.3048647e-20
1.304686e-20
1.3046025e-20
1.3045873e-20
1.3046342e-20
1.30476e-20
1.305019e-20
1.3069018e-20
1.3059892e-20
1.3054426e-20
1.3051212e-20
1.3049437e-20
1.3048607e-20
1.3048458e-20
1.3048929e-20
1.305019e-20
1.3052788e-20
2.3490339e-20
2.3473851e-20
2.3463971e-20
2.3458146e-20
2.3454901e-20
2.3453331e-20
2.3452933e-20
2.3453547e-20
2.3455388e-20
2.3459225e-20
2.3473851e-20
2.345742e-20
2.3447561e-20
2.3441747e-20
2.3438511e-20
2.3436953e-20
2.3436578e-20
2.3437243e-20
2.3439216e-20
2.3443433e-20
2.3463971e-20
2.3447561e-20
2.3437718e-20
2.3431915e-20
2.342869e-20
2.3427147e-20
2.34268e-20
2.3427517e-20
2.3429581e-20
2.3433927e-20
2.3458146e-20
2.3441747e-20
2.3431915e-20
2.3426122e-20
2.3422908e-20
2.3421381e-20
2.3421057e-20
2.342181e-20
2.3423925e-20
2.3428322e-20
2.3454901e-20
2.3438511e-20
2.342869e-20
2.3422908e-20
2.3419705e-20
2.3418191e-20
2.3417884e-20
2.341866e-20
2.3420802e-20
2.342522e-20
2.3453331e-20
2.3436953e-20
2.3427147e-20
2.3421381e-20
2.3418191e-20
2.3416689e-20
2.3416394e-20
2.3417185e-20
2.341934e-20
2.3423768e-20
2.3452933e-20
2.3436578e-20
2.34268e-20
2.3421057e-20
2.3417884e-20
2.3416394e-20
2.341611e-20
2.3416909e-20
2.3419073e-20
2.3423505e-20
2.3453547e-20
2.3437243e-20
2.3427517e-20
2.342181e-20
2.341866e-20
2.3417185e-20
2.3416909e-20
2.3417715e-20
2.3419883e-20
2.342432e-20
2.3455388e-20
2.3439216e-20
2.3429581e-20
2.3423925e-20
2.3420802e-20
2.341934e-20
2.3419073e-20
2.3419883e-20
2.3422057e-20
2.3426497e-20
2.3459225e-20
2.3443433e-20
2.3433927e-20
2.3428322e-20
2.342522e-20
2.3423768e-20
2.3423505e-20
2.342432e-20
2.3426497e-20
2.3430951e-20
4.2570412e-20
4.2541588e-20
4.2524239e-20
4.2513981e-20
4.2508255e-20
4.2505481e-20
4.2504772e-20
4.2505836e-20
4.2509026e-20
4.2515626e-20
4.2541588e-20
4.2512863e-20
4.2495552e-20
4.2485313e-20
4.2479602e-20
4.2476849e-20
4.247618e-20
4.2477337e-20
4.2480763e-20
4.2488046e-20
4.2524239e-20
4.2495552e-20
4.2478268e-20
4.2468048e-20
4.2462357e-20
4.2459632e-20
4.2459013e-20
4.2460261e-20
4.2463852e-20
4.2471369e-20
4.2513981e-20
4.2485313e-20
4.2468048e-20
4.2457847e-20
4.2452175e-20
4.2449477e-20
4.24489e-20
4.2450214e-20
4.2453897e-20
4.2461503e-20
4.2508255e-20
4.2479602e-20
4.2462357e-20
4.2452175e-20
4.2446524e-20
4.2443849e-20
4.2443302e-20
4.2444658e-20
4.2448389e-20
4.2456033e-20
4.2505481e-20
4.2476849e-20
4.2459632e-20
4.2449477e-20
4.2443849e-20
4.2441195e-20
4.2440671e-20
4.2442052e-20
4.2445807e-20
4.2453469e-20
4.2504772e-20
4.247618e-20
4.2459013e-20
4.24489e-20
4.2443302e-20
4.2440671e-20
4.2440165e-20
4.2441561e-20
4.2445331e-20
4.2453002e-20
4.2505836e-20
4.2477337e-20
4.2460261e-20
4.2450214e-20
4.2444658e-20
4.2442052e-20
4.2441561e-20
4.2442969e-20
4.2446748e-20
4.2454425e-20
4.2509026e-20
4.2480763e-20
4.2463852e-20
4.2453897e-20
4.2448389e-20
4.2445807e-20
4.2445331e-20
4.2446748e-20
4.2450534e-20
4.245822e-20
4.2515626e-20
4.2488046e-20
4.2471369e-20
4.2461503e-20
4.2456033e-20
4.2453469e-20
4.2453002e-20
4.2454425e-20
4.245822e-20
4.2465927e-20
7.7902179e-20
7.7851319e-20
7.7820575e-20
7.7802343e-20
7.7792147e-20
7.7787199e-20
7.7785923e-20
7.7787785e-20
7.7793366e-20
7.7804825e-20
7.7851319e-20
7.7800634e-20
7.7769956e-20
7.7751758e-20
7.7741589e-20
7.7736678e-20
7.7735475e-20
7.7737504e-20
7.7743514e-20
7.7756212e-20
7.7820575e-20
7.7769956e-20
7.7739325e-20
7.7721161e-20
7.7711027e-20
7.7706167e-20
7.7705054e-20
7.770725e-20
7.7713557e-20
7.7726679e-20
7.7802343e-20
7.7751758e-20
7.7721161e-20
7.770303e-20
7.7692931e-20
7.768812e-20
7.7687083e-20
7.7689398e-20
7.7695871e-20
7.7709156e-20
7.7792147e-20
7.7741589e-20
7.7711027e-20
7.7692931e-20
7.7682868e-20
7.7678099e-20
7.7677117e-20
7.7679507e-20
7.7686067e-20
7.7699422e-20
7.7787199e-20
7.7736678e-20
7.7706167e-20
7.768812e-20
7.7678099e-20
7.7673368e-20
7.7672427e-20
7.7674862e-20
7.7681467e-20
7.7694853e-20
7.7785923e-20
7.7735475e-20
7.7705054e-20
7.7687083e-20
7.7677117e-20
7.7672427e-20
7.7671518e-20
7.7673982e-20
7.7680612e-20
7.7694014e-20
7.7787785e-20
7.7737504e-20
7.770725e-20
7.7689398e-20
7.7679507e-20
7.7674862e-20
7.7673982e-20
7.7676466e-20
7.7683113e-20
7.7696526e-20
7.7793366e-20
7.7743514e-20
7.7713557e-20
7.7695871e-20
7.7686067e-20
7.7681467e-20
7.7680612e-20
7.7683113e-20
7.7689774e-20
7.7703201e-20
7.7804825e-20
7.7756212e-20
7.7726679e-20
7.7709156e-20
7.7699422e-20
7.7694853e-20
7.7694014e-20
7.7696526e-20
7.7703201e-20
7.7716665e-20
1.4396127e-19
1.4387068e-19
1.4381569e-19
1.4378299e-19
1.4376466e-19
1.4375576e-19
1.4375344e-19
1.4375673e-19
1.4376659e-19
1.4378667e-19
1.4387068e-19
1.4378041e-19
1.4372554e-19
1.4369289e-19
1.4367461e-19
1.4366578e-19
1.4366359e-19
1.4366719e-19
1.4367783e-19
1.4370018e-19
1.4381569e-19
1.4372554e-19
1.4367074e-19
1.4363816e-19
1.4361995e-19
1.436112e-19
1.4360918e-19
1.4361308e-19
1.4362427e-19
1.436474e-19
1.4378299e-19
1.4369289e-19
1.4363816e-19
1.4360564e-19
1.4358749e-19
1.4357883e-19
1.4357695e-19
1.4358107e-19
1.4359256e-19
1.4361598e-19
1.4376466e-19
1.4367461e-19
1.4361995e-19
1.4358749e-19
1.435694e-19
1.4356082e-19
1.4355904e-19
1.435633e-19
1.4357495e-19
1.435985e-19
1.4375576e-19
1.4366578e-19
1.436112e-19
1.4357883e-19
1.4356082e-19
1.4355231e-19
1.4355061e-19
1.4355494e-19
1.4356667e-19
1.4359029e-19
1.4375344e-19
1.4366359e-19
1.4360918e-19
1.4357695e-19
1.4355904e-19
1.4355061e-19
1.4354896e-19
1.4355335e-19
1.4356513e-19
1.4358877e-19
1.4375673e-19
1.4366719e-19
1.4361308e-19
1.4358107e-19
1.435633e-19
1.4355494e-19
1.4355335e-19
1.4355778e-19
1.4356958e-19
1.4359324e-19
1.4376659e-19
1.4367783e-19
1.4362427e-19
1.4359256e-19
1.4357495e-19
1.4356667e-19
1.4356513e-19
1.4356958e-19
1.4358142e-19
1.436051e-19
1.4378667e-19
1.4370018e-19
1.436474e-19
1.4361598e-19
1.435985e-19
1.4359029e-19
1.4358877e-19
1.4359324e-19
1.436051e-19
1.4362885e-19
2.6866827e-19
2.6850542e-19
2.6840614e-19
2.6834692e-19
2.6831368e-19
2.682975e-19
2.6829326e-19
2.6829913e-19
2.6831671e-19
2.6835224e-19
2.6850542e-19
2.6834312e-19
2.6824405e-19
2.6818494e-19
2.6815179e-19
2.6813573e-19
2.6813174e-19
2.6813817e-19
2.681572e-19
2.6819693e-19
2.6840614e-19
2.6824405e-19
2.6814512e-19
2.6808613e-19
2.6805309e-19
2.680372e-19
2.6803351e-19
2.6804051e-19
2.6806054e-19
2.681017e-19
2.6834692e-19
2.6818494e-19
2.6808613e-19
2.6802724e-19
2.6799432e-19
2.679786e-19
2.6797516e-19
2.6798256e-19
2.6800315e-19
2.6804486e-19
2.6831368e-19
2.6815179e-19
2.6805309e-19
2.6799432e-19
2.6796152e-19
2.6794594e-19
2.6794269e-19
2.6795034e-19
2.6797122e-19
2.6801317e-19
2.682975e-19
2.6813573e-19
2.680372e-19
2.679786e-19
2.6794594e-19
2.6793048e-19
2.6792737e-19
2.6793517e-19
2.6795621e-19
2.6799826e-19
2.6829326e-19
2.6813174e-19
2.6803351e-19
2.6797516e-19
2.6794269e-19
2.6792737e-19
2.6792437e-19
2.6793226e-19
2.6795338e-19
2.6799549e-19
2.6829913e-19
2.6813817e-19
2.6804051e-19
2.6798256e-19
2.6795034e-19
2.6793517e-19
2.6793226e-19
2.6794023e-19
2.6796141e-19
2.6800355e-19
2.6831671e-19
2.681572e-19
2.6806054e-19
2.6800315e-19
2.6797122e-19
2.6795621e-19
2.6795338e-19
2.6796141e-19
2.6798262e-19
2.6802481e-19
2.6835224e-19
2.6819693e-19
2.681017e-19
2.6804486e-19
2.6801317e-19
2.6799826e-19
2.6799549e-19
2.6800355e-19
2.6802481e-19
2.6806711e-19
5.0637998e-19
5.0608444e-19
5.0590351e-19
5.057953e-19
5.0573444e-19
5.0570477e-19
5.0569694e-19
5.0570752e-19
5.0573917e-19
5.0580262e-19
5.0608444e-19
5.057899e-19
5.0560934e-19
5.0550132e-19
5.0544063e-19
5.0541119e-19
5.0540382e-19
5.0541545e-19
5.0544979e-19
5.0552109e-19
5.0590351e-19
5.0560934e-19
5.0542906e-19
5.0532124e-19
5.0526076e-19
5.0523164e-19
5.0522483e-19
5.0523751e-19
5.0527372e-19
5.0534769e-19
5.057953e-19
5.0550132e-19
5.0532124e-19
5.0521363e-19
5.0515336e-19
5.0512454e-19
5.0511821e-19
5.0513163e-19
5.0516889e-19
5.0524389e-19
5.0573444e-19
5.0544063e-19
5.0526076e-19
5.0515336e-19
5.0509332e-19
5.0506476e-19
5.0505878e-19
5.0507267e-19
5.0511047e-19
5.0518591e-19
5.0570477e-19
5.0541119e-19
5.0523164e-19
5.0512454e-19
5.0506476e-19
5.0503644e-19
5.0503071e-19
5.0504488e-19
5.0508297e-19
5.051586e-19
5.0569694e-19
5.0540382e-19
5.0522483e-19
5.0511821e-19
5.0505878e-19
5.0503071e-19
5.0502518e-19
5.0503953e-19
5.0507778e-19
5.0515351e-19
5.0570752e-19
5.0541545e-19
5.0523751e-19
5.0513163e-19
5.0507267e-19
5.0504488e-19
5.0503953e-19
5.0505401e-19
5.0509236e-19
5.0516816e-19
5.0573917e-19
5.0544979e-19
5.0527372e-19
5.0516889e-19
5.0511047e-19
5.0508297e-19
5.0507778e-19
5.0509236e-19
5.0513079e-19
5.0520667e-19
5.0580262e-19
5.0552109e-19
5.0534769e-19
5.0524389e-19
5.0518591e-19
5.051586e-19
5.0515351e-19
5.0516816e-19
5.0520667e-19
5.0528275e-19
9.6391039e-19
9.6336898e-19
9.6303616e-19
9.6283656e-19
9.6272409e-19
9.6266919e-19
9.6265461e-19
9.6267386e-19
9.6273139e-19
9.6284582e-19
9.6336898e-19
9.6282939e-19
9.6249725e-19
9.62298e-19
9.6218584e-19
9.6213137e-19
9.6211765e-19
9.6213887e-19
9.6220148e-19
9.6233069e-19
9.6303616e-19
9.6249725e-19
9.6216561e-19
9.6196674e-19
9.6185497e-19
9.6180109e-19
9.6178843e-19
9.6181162e-19
9.6187775e-19
9.6201198e-19
9.6283656e-19
9.62298e-19
9.6196674e-19
9.6176823e-19
9.6165687e-19
9.6160356e-19
9.6159179e-19
9.6161638e-19
9.6168447e-19
9.6182064e-19
9.6272409e-19
9.6218584e-19
9.6185497e-19
9.6165687e-19
9.6154593e-19
9.6149311e-19
9.6148199e-19
9.6150747e-19
9.6157658e-19
9.6171357e-19
9.6266919e-19
9.6213137e-19
9.6180109e-19
9.6160356e-19
9.6149311e-19
9.6144074e-19
9.6143009e-19
9.6145609e-19
9.6152575e-19
9.6166311e-19
9.6265461e-19
9.6211765e-19
9.6178843e-19
9.6159179e-19
9.6148199e-19
9.6143009e-19
9.6141983e-19
9.6144617e-19
9.6151611e-19
9.6165366e-19
9.6267386e-19
9.6213887e-19
9.6181162e-19
9.6161638e-19
9.6150747e-19
9.6145609e-19
9.6144617e-19
9.6147275e-19
9.6154288e-19
9.6168055e-19
9.6273139e-19
9.6220148e-19
9.6187775e-19
9.6168447e-19
9.6157658e-19
9.6152575e-19
9.6151611e-19
9.6154288e-19
9.6161316e-19
9.6175098e-19
9.6284582e-19
9.6233069e-19
9.6201198e-19
9.6182064e-19
9.6171357e-19
9.6166311e-19
9.6165366e-19
9.6168055e-19
9.6175098e-19
9.6188917e-19
1.8531193e-18
1.8521181e-18
1.8515002e-18
1.8511285e-18
1.8509188e-18
1.8508162e-18
1.8507889e-18
1.8508242e-18
1.8509298e-18
1.8511382e-18
1.8521181e-18
1.8511203e-18
1.8505036e-18
1.8501326e-18
1.8499234e-18
1.8498217e-18
1.8497959e-18
1.849835e-18
1.8499503e-18
1.8501867e-18
1.8515002e-18
1.8505036e-18
1.8498878e-18
1.8495175e-18
1.849309e-18
1.8492084e-18
1.8491847e-18
1.8492275e-18
1.8493495e-18
1.8495955e-18
1.8511285e-18
1.8501326e-18
1.8495175e-18
1.8491479e-18
1.8489402e-18
1.8488407e-18
1.8488186e-18
1.8488641e-18
1.8489898e-18
1.8492395e-18
1.8509188e-18
1.8499234e-18
1.849309e-18
1.8489402e-18
1.8487333e-18
1.8486347e-18
1.8486139e-18
1.8486611e-18
1.8487887e-18
1.8490399e-18
1.8508162e-18
1.8498217e-18
1.8492084e-18
1.8488407e-18
1.8486347e-18
1.848537e-18
1.8485171e-18
1.8485652e-18
1.8486939e-18
1.8489458e-18
1.8507889e-18
1.8497959e-18
1.8491847e-18
1.8488186e-18
1.8486139e-18
1.8485171e-18
1.8484978e-18
1.8485467e-18
1.8486758e-18
1.8489281e-18
1.8508242e-18
1.849835e-18
1.8492275e-18
1.8488641e-18
1.8486611e-18
1.8485652e-18
1.8485467e-18
1.8485959e-18
1.8487255e-18
1.848978e-18
1.8509298e-18
1.8499503e-18
1.8493495e-18
1.8489898e-18
1.8487887e-18
1.8486939e-18
1.8486758e-18
1.8487255e-18
1.8488553e-18
1.8491081e-18
1.8511382e-18
1.8501867e-18
1.8495955e-18
1.8492395e-18
1.8490399e-18
1.8489458e-18
1.8489281e-18
1.848978e-18
1.8491081e-18
1.8493615e-18
3.5981498e-18
3.5962809e-18
3.5951227e-18
3.5944243e-18
3.5940295e-18
3.5938362e-18
3.5937843e-18
3.5938499e-18
3.5940456e-18
3.5944287e-18
3.5962809e-18
3.5944182e-18
3.5932623e-18
3.5925652e-18
3.5921714e-18
3.5919797e-18
3.5919309e-18
3.5920037e-18
3.5922179e-18
3.5926549e-18
3.5951227e-18
3.5932623e-18
3.5921082e-18
3.5914123e-18
3.59102e-18
3.5908304e-18
3.5907854e-18
3.5908654e-18
3.5910925e-18
3.5915477e-18
3.5944243e-18
3.5925652e-18
3.5914123e-18
3.5907178e-18
3.5903269e-18
3.5901394e-18
3.5900976e-18
3.5901827e-18
3.5904169e-18
3.5908792e-18
3.5940295e-18
3.5921714e-18
3.59102e-18
3.5903269e-18
3.5899375e-18
3.5897517e-18
3.5897124e-18
3.5898006e-18
3.5900385e-18
3.5905038e-18
3.5938362e-18
3.5919797e-18
3.5908304e-18
3.5901394e-18
3.5897517e-18
3.5895676e-18
3.58953e-18
3.5896201e-18
3.58986e-18
3.5903266e-18
3.5937843e-18
3.5919309e-18
3.5907854e-18
3.5900976e-18
3.5897124e-18
3.58953e-18
3.5894937e-18
3.5895851e-18
3.589826e-18
3.5902933e-18
3.5938499e-18
3.5920037e-18
3.5908654e-18
3.5901827e-18
3.5898006e-18
3.5896201e-18
3.5895851e-18
3.5896774e-18
3.589919e-18
3.5903867e-18
3.5940456e-18
3.5922179e-18
3.5910925e-18
3.5904169e-18
3.5900385e-18
3.58986e-18
3.589826e-18
3.589919e-18
3.5901611e-18
3.5906293e-18
3.5944287e-18
3.5926549e-18
3.5915477e-18
3.5908792e-18
3.5905038e-18
3.5903266e-18
3.5902933e-18
3.5903867e-18
3.5906293e-18
3.5910988e-18
7.0560632e-18
7.0525418e-18
7.0503509e-18
7.0490262e-18
7.048276e-18
7.0479084e-18
7.0478092e-18
7.0479322e-18
7.0482985e-18
7.0490094e-18
7.0525418e-18
7.049032e-18
7.0468454e-18
7.0455231e-18
7.0447749e-18
7.0444102e-18
7.044317e-18
7.044454e-18
7.0448561e-18
7.0456714e-18
7.0503509e-18
7.0468454e-18
7.044662e-18
7.0433422e-18
7.0425967e-18
7.0422362e-18
7.0421504e-18
7.0423012e-18
7.0427281e-18
7.0435789e-18
7.0490262e-18
7.0455231e-18
7.0433422e-18
7.0420249e-18
7.0412823e-18
7.0409257e-18
7.0408461e-18
7.0410068e-18
7.0414475e-18
7.0423119e-18
7.048276e-18
7.0447749e-18
7.0425967e-18
7.0412823e-18
7.0405425e-18
7.0401894e-18
7.0401144e-18
7.0402811e-18
7.0407291e-18
7.0415993e-18
7.0479084e-18
7.0444102e-18
7.0422362e-18
7.0409257e-18
7.0401894e-18
7.0398393e-18
7.0397677e-18
7.0399381e-18
7.0403899e-18
7.0412627e-18
7.0478092e-18
7.044317e-18
7.0421504e-18
7.0408461e-18
7.0401144e-18
7.0397677e-18
7.0396986e-18
7.0398715e-18
7.0403252e-18
7.0411994e-18
7.0479322e-18
7.044454e-18
7.0423012e-18
7.0410068e-18
7.0402811e-18
7.0399381e-18
7.0398715e-18
7.040046e-18
7.0405011e-18
7.0413761e-18
7.0482985e-18
7.0448561e-18
7.0427281e-18
7.0414475e-18
7.0407291e-18
7.0403899e-18
7.0403252e-18
7.0405011e-18
7.0409572e-18
7.0418331e-18
7.0490094e-18
7.0456714e-18
7.0435789e-18
7.0423119e-18
7.0415993e-18
7.0412627e-18
7.0411994e-18
7.0413761e-18
7.0418331e-18
7.0427112e-18
1.3974837e-17
1.396814e-17
1.3963957e-17
1.3961421e-17
1.3959983e-17
1.3959277e-17
1.3959085e-17
1.3959318e-17
1.3960011e-17
1.3961343e-17
1.396814e-17
1.3961465e-17
1.395729e-17
1.3954758e-17
1.3953324e-17
1.3952624e-17
1.3952444e-17
1.3952704e-17
1.3953467e-17
1.3955003e-17
1.3963957e-17
1.395729e-17
1.3953121e-17
1.3950594e-17
1.3949165e-17
1.3948473e-17
1.3948308e-17
1.3948595e-17
1.3949406e-17
1.3951011e-17
1.3961421e-17
1.3954758e-17
1.3950594e-17
1.3948072e-17
1.3946649e-17
1.3945964e-17
1.3945811e-17
1.3946118e-17
1.3946955e-17
1.3948588e-17
1.3959983e-17
1.3953324e-17
1.3949165e-17
1.3946649e-17
1.394523e-17
1.3944553e-17
1.3944409e-17
1.3944727e-17
1.3945579e-17
1.3947222e-17
1.3959277e-17
1.3952624e-17
1.3948473e-17
1.3945964e-17
1.3944553e-17
1.3943881e-17
1.3943744e-17
1.3944069e-17
1.3944928e-17
1.3946577e-17
1.3959085e-17
1.3952444e-17
1.3948308e-17
1.3945811e-17
1.3944409e-17
1.3943744e-17
1.3943611e-17
1.3943941e-17
1.3944804e-17
1.3946456e-17
1.3959318e-17
1.3952704e-17
1.3948595e-17
1.3946118e-17
1.3944727e-17
1.3944069e-17
1.3943941e-17
1.3944275e-17
1.394514e-17
1.3946793e-17
1.3960011e-17
1.3953467e-17
1.3949406e-17
1.3946955e-17
1.3945579e-17
1.3944928e-17
1.3944804e-17
1.394514e-17
1.3946008e-17
1.3947663e-17
1.3961343e-17
1.3955003e-17
1.3951011e-17
1.3948588e-17
1.3947222e-17
1.3946577e-17
1.3946456e-17
1.3946793e-17
1.3947663e-17
1.3949321e-17
2.7952521e-17
2.7939664e-17
2.7931603e-17
2.7926704e-17
2.7923921e-17
2.7922554e-17
2.7922182e-17
2.7922627e-17
2.7923948e-17
2.7926468e-17
2.7939664e-17
2.792685e-17
2.7918804e-17
2.7913914e-17
2.7911138e-17
2.7909782e-17
2.7909433e-17
2.7909932e-17
2.7911391e-17
2.7914315e-17
2.7931603e-17
2.7918804e-17
2.7910771e-17
2.7905889e-17
2.7903124e-17
2.7901784e-17
2.7901463e-17
2.7902015e-17
2.790357e-17
2.790663e-17
2.7926704e-17
2.7913914e-17
2.7905889e-17
2.7901018e-17
2.7898263e-17
2.7896938e-17
2.7896641e-17
2.7897231e-17
2.7898839e-17
2.7901952e-17
2.7923921e-17
2.7911138e-17
2.7903124e-17
2.7898263e-17
2.7895519e-17
2.7894207e-17
2.7893928e-17
2.7894542e-17
2.7896177e-17
2.7899312e-17
2.7922554e-17
2.7909782e-17
2.7901784e-17
2.7896938e-17
2.7894207e-17
2.7892907e-17
2.7892641e-17
2.7893269e-17
2.7894919e-17
2.7898064e-17
2.7922182e-17
2.7909433e-17
2.7901463e-17
2.7896641e-17
2.7893928e-17
2.7892641e-17
2.7892385e-17
2.7893022e-17
2.7894679e-17
2.7897829e-17
2.7922627e-17
2.7909932e-17
2.7902015e-17
2.7897231e-17
2.7894542e-17
2.7893269e-17
2.7893022e-17
2.7893665e-17
2.7895328e-17
2.7898481e-17
2.7923948e-17
2.7911391e-17
2.790357e-17
2.7898839e-17
2.7896177e-17
2.7894919e-17
2.7894679e-17
2.7895328e-17
2.7896994e-17
2.790015e-17
2.7926468e-17
2.7914315e-17
2.790663e-17
2.7901952e-17
2.7899312e-17
2.7898064e-17
2.7897829e-17
2.7898481e-17
2.790015e-17
2.7903315e-17
5.6463632e-17
5.6438723e-17
5.6423046e-17
5.6413496e-17
5.640806e-17
5.6405388e-17
5.6404658e-17
5.6405518e-17
5.6408064e-17
5.6412878e-17
5.6438723e-17
5.6413896e-17
5.6398249e-17
5.6388714e-17
5.6383294e-17
5.6380644e-17
5.637996e-17
5.6380927e-17
5.6383747e-17
5.6389364e-17
5.6423046e-17
5.6398249e-17
5.6382625e-17
5.6373109e-17
5.6367708e-17
5.636509e-17
5.6364462e-17
5.6365535e-17
5.6368545e-17
5.6374434e-17
5.6413496e-17
5.6388714e-17
5.6373109e-17
5.6363611e-17
5.6358232e-17
5.6355643e-17
5.6355063e-17
5.6356211e-17
5.6359327e-17
5.636532e-17
5.640806e-17
5.6383294e-17
5.6367708e-17
5.6358232e-17
5.6352874e-17
5.6350312e-17
5.6349767e-17
5.6350962e-17
5.6354132e-17
5.636017e-17
5.6405388e-17
5.6380644e-17
5.636509e-17
5.6355643e-17
5.6350312e-17
5.6347773e-17
5.6347253e-17
5.6348476e-17
5.6351676e-17
5.6357734e-17
5.6404658e-17
5.637996e-17
5.6364462e-17
5.6355063e-17
5.6349767e-17
5.6347253e-17
5.6346754e-17
5.6347995e-17
5.635121e-17
5.6357278e-17
5.6405518e-17
5.6380927e-17
5.6365535e-17
5.6356211e-17
5.6350962e-17
5.6348476e-17
5.6347995e-17
5.6349249e-17
5.6352473e-17
5.6358547e-17
5.6408064e-17
5.6383747e-17
5.6368545e-17
5.6359327e-17
5.6354132e-17
5.6351676e-17
5.635121e-17
5.6352473e-17
5.6355706e-17
5.6361786e-17
5.6412878e-17
5.6389364e-17
5.6374434e-17
5.636532e-17
5.636017e-17