/*--------------------------------*- C++ -*----------------------------------*\
| =========                 |                                                 |
| \\      /  F ield         | OpenFOAM: The Open Source CFD Toolbox           |
|  \\    /   O peration     | Version:  dev                                   |
|   \\  /    A nd           | Web:      www.OpenFOAM.org                      |
|    \\/     M anipulation  |                                                 |
\*---------------------------------------------------------------------------*/
FoamFile
{
    version     2.0;
    format      ascii;
    class       volScalarField;
    location    "88.995";
    object      A_0;
}
// * * * * * * * * * * * * * * * * * * * * * * * * * * * * * * * * * * * * * //

dimensions      [0 0 0 0 1 0 0];

internalField   nonuniform List<scalar> 
10000
(
1.1263293e-22
1.1252814e-22
1.1247026e-22
1.1243697e-22
1.1241868e-22
1.1240995e-22
1.1240788e-22
1.1241176e-22
1.1242326e-22
1.1244591e-22
1.1252814e-22
1.1242374e-22
1.1236601e-22
1.1233278e-22
1.1231455e-22
1.1230588e-22
1.1230393e-22
1.1230807e-22
1.1232022e-22
1.1234475e-22
1.1247026e-22
1.1236601e-22
1.1230836e-22
1.122752e-22
1.1225703e-22
1.1224844e-22
1.1224663e-22
1.1225103e-22
1.1226365e-22
1.1228883e-22
1.1243697e-22
1.1233278e-22
1.122752e-22
1.122421e-22
1.1222398e-22
1.1221547e-22
1.1221378e-22
1.1221838e-22
1.1223125e-22
1.1225668e-22
1.1241868e-22
1.1231455e-22
1.1225703e-22
1.1222398e-22
1.1220593e-22
1.1219748e-22
1.1219588e-22
1.1220059e-22
1.122136e-22
1.1223914e-22
1.1240995e-22
1.1230588e-22
1.1224844e-22
1.1221547e-22
1.1219748e-22
1.121891e-22
1.1218756e-22
1.1219234e-22
1.1220542e-22
1.1223101e-22
1.1240788e-22
1.1230393e-22
1.1224663e-22
1.1221378e-22
1.1219588e-22
1.1218756e-22
1.1218608e-22
1.1219091e-22
1.1220402e-22
1.1222964e-22
1.1241176e-22
1.1230807e-22
1.1225103e-22
1.1221838e-22
1.1220059e-22
1.1219234e-22
1.1219091e-22
1.1219577e-22
1.1220891e-22
1.1223455e-22
1.1242326e-22
1.1232022e-22
1.1226365e-22
1.1223125e-22
1.122136e-22
1.1220542e-22
1.1220402e-22
1.1220891e-22
1.1222208e-22
1.1224775e-22
1.1244591e-22
1.1234475e-22
1.1228883e-22
1.1225668e-22
1.1223914e-22
1.1223101e-22
1.1222964e-22
1.1223455e-22
1.1224775e-22
1.1227349e-22
3.7055623e-22
3.7022488e-22
3.7003644e-22
3.699278e-22
3.6986807e-22
3.6983952e-22
3.6983274e-22
3.6984536e-22
3.6988284e-22
3.6995933e-22
3.7022488e-22
3.6989477e-22
3.6970679e-22
3.6959836e-22
3.695388e-22
3.6951045e-22
3.6950406e-22
3.6951753e-22
3.6955717e-22
3.6963986e-22
3.7003644e-22
3.6970679e-22
3.695191e-22
3.6941088e-22
3.6935151e-22
3.6932344e-22
3.6931751e-22
3.6933184e-22
3.69373e-22
3.6945783e-22
3.699278e-22
3.6959836e-22
3.6941088e-22
3.6930285e-22
3.6924367e-22
3.6921585e-22
3.6921032e-22
3.6922527e-22
3.6926727e-22
3.6935293e-22
3.6986807e-22
3.695388e-22
3.6935151e-22
3.6924367e-22
3.6918469e-22
3.6915709e-22
3.6915185e-22
3.6916718e-22
3.6920963e-22
3.6929565e-22
3.6983952e-22
3.6951045e-22
3.6932344e-22
3.6921585e-22
3.6915709e-22
3.6912969e-22
3.6912466e-22
3.6914022e-22
3.6918291e-22
3.6926909e-22
3.6983274e-22
3.6950406e-22
3.6931751e-22
3.6921032e-22
3.6915185e-22
3.6912466e-22
3.6911979e-22
3.6913551e-22
3.6917833e-22
3.6926459e-22
3.6984536e-22
3.6951753e-22
3.6933184e-22
3.6922527e-22
3.6916718e-22
3.6914022e-22
3.6913551e-22
3.6915134e-22
3.6919425e-22
3.6928057e-22
3.6988284e-22
3.6955717e-22
3.69373e-22
3.6926727e-22
3.6920963e-22
3.6918291e-22
3.6917833e-22
3.6919425e-22
3.6923724e-22
3.6932365e-22
3.6995933e-22
3.6963986e-22
3.6945783e-22
3.6935293e-22
3.6929565e-22
3.6926909e-22
3.6926459e-22
3.6928057e-22
3.6932365e-22
3.6941031e-22
7.3796849e-22
7.3733065e-22
7.3696217e-22
7.3674905e-22
7.3663173e-22
7.3657559e-22
7.3656217e-22
7.3658673e-22
7.3665993e-22
7.3681424e-22
7.3733065e-22
7.3669515e-22
7.3632755e-22
7.3611486e-22
7.3599786e-22
7.3594212e-22
7.3592946e-22
7.359557e-22
7.360332e-22
7.3619984e-22
7.3696217e-22
7.3632755e-22
7.3596053e-22
7.3574824e-22
7.3563162e-22
7.3557641e-22
7.3556468e-22
7.3559263e-22
7.3567314e-22
7.3584401e-22
7.3674905e-22
7.3611486e-22
7.3574824e-22
7.3553631e-22
7.3542008e-22
7.3536538e-22
7.3535442e-22
7.3538359e-22
7.3546578e-22
7.3563831e-22
7.3663173e-22
7.3599786e-22
7.3563162e-22
7.3542008e-22
7.3530423e-22
7.3524996e-22
7.3523958e-22
7.3526951e-22
7.353526e-22
7.3552581e-22
7.3657559e-22
7.3594212e-22
7.3557641e-22
7.3536538e-22
7.3524996e-22
7.3519609e-22
7.3518613e-22
7.3521652e-22
7.3530007e-22
7.3547361e-22
7.3656217e-22
7.3592946e-22
7.3556468e-22
7.3535442e-22
7.3523958e-22
7.3518613e-22
7.3517649e-22
7.3520719e-22
7.35291e-22
7.354647e-22
7.3658673e-22
7.359557e-22
7.3559263e-22
7.3538359e-22
7.3526951e-22
7.3521652e-22
7.3520719e-22
7.352381e-22
7.3532209e-22
7.3549591e-22
7.3665993e-22
7.360332e-22
7.3567314e-22
7.3546578e-22
7.353526e-22
7.3530007e-22
7.35291e-22
7.3532209e-22
7.3540624e-22
7.3558025e-22
7.3681424e-22
7.3619984e-22
7.3584401e-22
7.3563831e-22
7.3552581e-22
7.3547361e-22
7.354647e-22
7.3549591e-22
7.3558025e-22
7.3575477e-22
1.3284163e-21
1.3273061e-21
1.3266583e-21
1.3262824e-21
1.3260751e-21
1.3259757e-21
1.3259518e-21
1.3259946e-21
1.3261226e-21
1.3263957e-21
1.3273061e-21
1.3261999e-21
1.3255536e-21
1.3251784e-21
1.3249717e-21
1.3248731e-21
1.3248505e-21
1.3248963e-21
1.325032e-21
1.3253272e-21
1.3266583e-21
1.3255536e-21
1.3249083e-21
1.3245339e-21
1.3243278e-21
1.3242301e-21
1.3242092e-21
1.3242581e-21
1.3243992e-21
1.3247019e-21
1.3262824e-21
1.3251784e-21
1.3245339e-21
1.3241601e-21
1.3239547e-21
1.3238579e-21
1.3238384e-21
1.3238894e-21
1.3240335e-21
1.3243392e-21
1.3260751e-21
1.3249717e-21
1.3243278e-21
1.3239547e-21
1.32375e-21
1.323654e-21
1.3236355e-21
1.3236879e-21
1.3238336e-21
1.3241406e-21
1.3259757e-21
1.3248731e-21
1.3242301e-21
1.3238579e-21
1.323654e-21
1.3235587e-21
1.3235409e-21
1.3235942e-21
1.3237407e-21
1.3240482e-21
1.3259518e-21
1.3248505e-21
1.3242092e-21
1.3238384e-21
1.3236355e-21
1.3235409e-21
1.3235237e-21
1.3235775e-21
1.3237245e-21
1.3240323e-21
1.3259946e-21
1.3248963e-21
1.3242581e-21
1.3238894e-21
1.3236879e-21
1.3235942e-21
1.3235775e-21
1.3236317e-21
1.323779e-21
1.324087e-21
1.3261226e-21
1.325032e-21
1.3243992e-21
1.3240335e-21
1.3238336e-21
1.3237407e-21
1.3237245e-21
1.323779e-21
1.3239266e-21
1.324235e-21
1.3263957e-21
1.3253272e-21
1.3247019e-21
1.3243392e-21
1.3241406e-21
1.3240482e-21
1.3240323e-21
1.324087e-21
1.324235e-21
1.3245443e-21
2.3335064e-21
2.3316211e-21
2.3305134e-21
2.3298685e-21
2.3295122e-21
2.3293411e-21
2.3292994e-21
2.3293719e-21
2.3295888e-21
2.330052e-21
2.3316211e-21
2.3297426e-21
2.3286374e-21
2.3279938e-21
2.3276384e-21
2.3274686e-21
2.3274293e-21
2.327507e-21
2.3277374e-21
2.3282393e-21
2.3305134e-21
2.3286374e-21
2.327534e-21
2.3268916e-21
2.3265374e-21
2.3263692e-21
2.3263328e-21
2.3264158e-21
2.3266556e-21
2.3271708e-21
2.3298685e-21
2.3279938e-21
2.3268916e-21
2.3262503e-21
2.3258972e-21
2.3257306e-21
2.3256966e-21
2.3257834e-21
2.3260285e-21
2.3265488e-21
2.3295122e-21
2.3276384e-21
2.3265374e-21
2.3258972e-21
2.3255454e-21
2.3253801e-21
2.3253479e-21
2.3254371e-21
2.3256849e-21
2.3262074e-21
2.3293411e-21
2.3274686e-21
2.3263692e-21
2.3257306e-21
2.3253801e-21
2.3252161e-21
2.3251852e-21
2.3252758e-21
2.3255251e-21
2.3260486e-21
2.3292994e-21
2.3274293e-21
2.3263328e-21
2.3256966e-21
2.3253479e-21
2.3251852e-21
2.3251553e-21
2.3252469e-21
2.3254969e-21
2.326021e-21
2.3293719e-21
2.327507e-21
2.3264158e-21
2.3257834e-21
2.3254371e-21
2.3252758e-21
2.3252469e-21
2.3253391e-21
2.3255897e-21
2.3261141e-21
2.3295888e-21
2.3277374e-21
2.3266556e-21
2.3260285e-21
2.3256849e-21
2.3255251e-21
2.3254969e-21
2.3255897e-21
2.3258408e-21
2.3263657e-21
2.330052e-21
2.3282393e-21
2.3271708e-21
2.3265488e-21
2.3262074e-21
2.3260486e-21
2.326021e-21
2.3261141e-21
2.3263657e-21
2.3268923e-21
4.0921888e-21
4.088994e-21
4.0871065e-21
4.0860041e-21
4.0853937e-21
4.0851002e-21
4.085028e-21
4.0851499e-21
4.0855154e-21
4.0862927e-21
4.088994e-21
4.0858106e-21
4.0839274e-21
4.0828271e-21
4.0822184e-21
4.081927e-21
4.0818589e-21
4.08199e-21
4.0823789e-21
4.0832238e-21
4.0871065e-21
4.0839274e-21
4.0820472e-21
4.080949e-21
4.0803423e-21
4.0800537e-21
4.0799906e-21
4.080131e-21
4.0805362e-21
4.0814042e-21
4.0860041e-21
4.0828271e-21
4.080949e-21
4.0798526e-21
4.079248e-21
4.0789622e-21
4.0789033e-21
4.0790502e-21
4.0794646e-21
4.0803416e-21
4.0853937e-21
4.0822184e-21
4.0803423e-21
4.079248e-21
4.0786454e-21
4.0783619e-21
4.0783061e-21
4.0784572e-21
4.0788764e-21
4.0797571e-21
4.0851002e-21
4.081927e-21
4.0800537e-21
4.0789622e-21
4.0783619e-21
4.0780806e-21
4.078027e-21
4.0781806e-21
4.0786023e-21
4.0794848e-21
4.085028e-21
4.0818589e-21
4.0799906e-21
4.0789033e-21
4.0783061e-21
4.078027e-21
4.0779752e-21
4.0781304e-21
4.0785536e-21
4.0794369e-21
4.0851499e-21
4.08199e-21
4.080131e-21
4.0790502e-21
4.0784572e-21
4.0781806e-21
4.0781304e-21
4.0782868e-21
4.0787109e-21
4.0795949e-21
4.0855154e-21
4.0823789e-21
4.0805362e-21
4.0794646e-21
4.0788764e-21
4.0786023e-21
4.0785536e-21
4.0787109e-21
4.0791358e-21
4.0800207e-21
4.0862927e-21
4.0832238e-21
4.0814042e-21
4.0803416e-21
4.0797571e-21
4.0794848e-21
4.0794369e-21
4.0795949e-21
4.0800207e-21
4.0809083e-21
7.2183872e-21
7.2129441e-21
7.2097126e-21
7.2078192e-21
7.2067688e-21
7.2062627e-21
7.206137e-21
7.2063431e-21
7.206961e-21
7.2082674e-21
7.2129441e-21
7.2075203e-21
7.204296e-21
7.2024062e-21
7.2013587e-21
7.2008564e-21
7.2007377e-21
7.2009599e-21
7.2016188e-21
7.2030436e-21
7.2097126e-21
7.204296e-21
7.2010767e-21
7.1991905e-21
7.1981465e-21
7.1976491e-21
7.1975392e-21
7.1977775e-21
7.198465e-21
7.1999303e-21
7.2078192e-21
7.2024062e-21
7.1991905e-21
7.1973076e-21
7.1962671e-21
7.1957744e-21
7.1956719e-21
7.1959217e-21
7.1966253e-21
7.1981063e-21
7.2067688e-21
7.2013587e-21
7.1981465e-21
7.1962671e-21
7.1952301e-21
7.1947416e-21
7.1946445e-21
7.1949015e-21
7.1956135e-21
7.1971011e-21
7.2062627e-21
7.2008564e-21
7.1976491e-21
7.1957744e-21
7.1947416e-21
7.1942567e-21
7.1941635e-21
7.1944249e-21
7.1951414e-21
7.196632e-21
7.206137e-21
7.2007377e-21
7.1975392e-21
7.1956719e-21
7.1946445e-21
7.1941635e-21
7.1940734e-21
7.1943377e-21
7.1950565e-21
7.1965487e-21
7.2063431e-21
7.2009599e-21
7.1977775e-21
7.1959217e-21
7.1949015e-21
7.1944249e-21
7.1943377e-21
7.1946039e-21
7.1953244e-21
7.1968177e-21
7.206961e-21
7.2016188e-21
7.198465e-21
7.1966253e-21
7.1956135e-21
7.1951414e-21
7.1950565e-21
7.1953244e-21
7.1960463e-21
7.1975411e-21
7.2082674e-21
7.2030436e-21
7.1999303e-21
7.1981063e-21
7.1971011e-21
7.196632e-21
7.1965487e-21
7.1968177e-21
7.1975411e-21
7.1990404e-21
1.2840128e-20
1.283078e-20
1.2825205e-20
1.2821928e-20
1.2820107e-20
1.2819228e-20
1.2819007e-20
1.2819358e-20
1.282041e-20
1.282262e-20
1.283078e-20
1.2821465e-20
1.2815902e-20
1.2812632e-20
1.2810815e-20
1.2809943e-20
1.2809735e-20
1.2810114e-20
1.2811239e-20
1.2813657e-20
1.2825205e-20
1.2815902e-20
1.2810348e-20
1.2807083e-20
1.2805273e-20
1.2804409e-20
1.2804217e-20
1.2804624e-20
1.2805799e-20
1.280829e-20
1.2821928e-20
1.2812632e-20
1.2807083e-20
1.2803825e-20
1.2802021e-20
1.2801165e-20
1.2800985e-20
1.2801413e-20
1.2802617e-20
1.2805135e-20
1.2820107e-20
1.2810815e-20
1.2805273e-20
1.2802021e-20
1.2800223e-20
1.2799374e-20
1.2799204e-20
1.2799645e-20
1.2800863e-20
1.2803393e-20
1.2819228e-20
1.2809943e-20
1.2804409e-20
1.2801165e-20
1.2799374e-20
1.2798533e-20
1.2798369e-20
1.2798818e-20
1.2800044e-20
1.2802578e-20
1.2819007e-20
1.2809735e-20
1.2804217e-20
1.2800985e-20
1.2799204e-20
1.2798369e-20
1.2798211e-20
1.2798665e-20
1.2799895e-20
1.2802433e-20
1.2819358e-20
1.2810114e-20
1.2804624e-20
1.2801413e-20
1.2799645e-20
1.2798818e-20
1.2798665e-20
1.2799122e-20
1.2800355e-20
1.2802894e-20
1.282041e-20
1.2811239e-20
1.2805799e-20
1.2802617e-20
1.2800863e-20
1.2800044e-20
1.2799895e-20
1.2800355e-20
1.280159e-20
1.2804132e-20
1.282262e-20
1.2813657e-20
1.280829e-20
1.2805135e-20
1.2803393e-20
1.2802578e-20
1.2802433e-20
1.2802894e-20
1.2804132e-20
1.2806682e-20
2.305288e-20
2.3036683e-20
2.302698e-20
2.302126e-20
2.3018074e-20
2.3016534e-20
2.3016144e-20
2.3016746e-20
2.3018554e-20
2.3022321e-20
2.3036683e-20
2.3020543e-20
2.3010861e-20
2.3005152e-20
2.3001975e-20
2.3000446e-20
2.3000078e-20
2.3000731e-20
2.3002668e-20
2.3006808e-20
2.302698e-20
2.3010861e-20
2.3001193e-20
2.2995495e-20
2.2992329e-20
2.2990815e-20
2.2990475e-20
2.2991179e-20
2.2993205e-20
2.2997472e-20
2.302126e-20
2.3005152e-20
2.2995495e-20
2.2989807e-20
2.2986651e-20
2.2985153e-20
2.2984835e-20
2.2985575e-20
2.2987651e-20
2.2991968e-20
2.3018074e-20
2.3001975e-20
2.2992329e-20
2.2986651e-20
2.2983507e-20
2.2982021e-20
2.298172e-20
2.2982483e-20
2.2984585e-20
2.2988923e-20
2.3016534e-20
2.3000446e-20
2.2990815e-20
2.2985153e-20
2.2982021e-20
2.2980547e-20
2.2980258e-20
2.2981034e-20
2.2983151e-20
2.2987498e-20
2.3016144e-20
2.3000078e-20
2.2990475e-20
2.2984835e-20
2.298172e-20
2.2980258e-20
2.2979979e-20
2.2980764e-20
2.2982888e-20
2.298724e-20
2.3016746e-20
2.3000731e-20
2.2991179e-20
2.2985575e-20
2.2982483e-20
2.2981034e-20
2.2980764e-20
2.2981555e-20
2.2983684e-20
2.298804e-20
2.3018554e-20
2.3002668e-20
2.2993205e-20
2.2987651e-20
2.2984585e-20
2.2983151e-20
2.2982888e-20
2.2983684e-20
2.2985818e-20
2.2990178e-20
2.3022321e-20
2.3006808e-20
2.2997472e-20
2.2991968e-20
2.2988923e-20
2.2987498e-20
2.298724e-20
2.298804e-20
2.2990178e-20
2.2994551e-20
4.1787571e-20
4.175925e-20
4.1742207e-20
4.1732132e-20
4.1726509e-20
4.1723786e-20
4.172309e-20
4.1724135e-20
4.1727268e-20
4.173375e-20
4.175925e-20
4.1731027e-20
4.1714021e-20
4.1703965e-20
4.1698357e-20
4.1695655e-20
4.1694998e-20
4.1696134e-20
4.1699499e-20
4.1706652e-20
4.1742207e-20
4.1714021e-20
4.1697042e-20
4.1687004e-20
4.1681416e-20
4.1678741e-20
4.1678133e-20
4.167936e-20
4.1682886e-20
4.1690268e-20
4.1732132e-20
4.1703965e-20
4.1687004e-20
4.1676984e-20
4.1671415e-20
4.1668767e-20
4.1668201e-20
4.1669492e-20
4.1673108e-20
4.1680578e-20
4.1726509e-20
4.1698357e-20
4.1681416e-20
4.1671415e-20
4.1665866e-20
4.166324e-20
4.1662704e-20
4.1664036e-20
4.1667699e-20
4.1675207e-20
4.1723786e-20
4.1695655e-20
4.1678741e-20
4.1668767e-20
4.166324e-20
4.1660635e-20
4.1660121e-20
4.1661477e-20
4.1665165e-20
4.167269e-20
4.172309e-20
4.1694998e-20
4.1678133e-20
4.1668201e-20
4.1662704e-20
4.1660121e-20
4.1659624e-20
4.1660996e-20
4.1664698e-20
4.1672231e-20
4.1724135e-20
4.1696134e-20
4.167936e-20
4.1669492e-20
4.1664036e-20
4.1661477e-20
4.1660996e-20
4.1662379e-20
4.166609e-20
4.1673629e-20
4.1727268e-20
4.1699499e-20
4.1682886e-20
4.1673108e-20
4.1667699e-20
4.1665165e-20
4.1664698e-20
4.166609e-20
4.1669808e-20
4.1677355e-20
4.173375e-20
4.1706652e-20
4.1690268e-20
4.1680578e-20
4.1675207e-20
4.167269e-20
4.1672231e-20
4.1673629e-20
4.1677355e-20
4.1684924e-20
7.6488105e-20
7.6438121e-20
7.6407912e-20
7.6390001e-20
7.6379986e-20
7.6375127e-20
7.6373875e-20
7.6375705e-20
7.6381187e-20
7.6392442e-20
7.6438121e-20
7.6388309e-20
7.6358165e-20
7.6340287e-20
7.6330299e-20
7.6325477e-20
7.6324297e-20
7.6326291e-20
7.6332194e-20
7.6344667e-20
7.6407912e-20
7.6358165e-20
7.6328067e-20
7.6310222e-20
7.6300268e-20
7.6295497e-20
7.6294405e-20
7.6296563e-20
7.6302757e-20
7.6315647e-20
7.6390001e-20
7.6340287e-20
7.6310222e-20
7.629241e-20
7.6282491e-20
7.6277767e-20
7.6276749e-20
7.6279024e-20
7.6285382e-20
7.6298432e-20
7.6379986e-20
7.6330299e-20
7.6300268e-20
7.6282491e-20
7.6272607e-20
7.6267924e-20
7.6266962e-20
7.626931e-20
7.6275753e-20
7.6288871e-20
7.6375127e-20
7.6325477e-20
7.6295497e-20
7.6277767e-20
7.6267924e-20
7.6263279e-20
7.6262356e-20
7.6264748e-20
7.6271237e-20
7.6284385e-20
7.6373875e-20
7.6324297e-20
7.6294405e-20
7.6276749e-20
7.6266962e-20
7.6262356e-20
7.6261464e-20
7.6263885e-20
7.6270398e-20
7.6283562e-20
7.6375705e-20
7.6326291e-20
7.6296563e-20
7.6279024e-20
7.626931e-20
7.6264748e-20
7.6263885e-20
7.6266326e-20
7.6272855e-20
7.628603e-20
7.6381187e-20
7.6332194e-20
7.6302757e-20
7.6285382e-20
7.6275753e-20
7.6271237e-20
7.6270398e-20
7.6272855e-20
7.6279397e-20
7.6292586e-20
7.6392442e-20
7.6344667e-20
7.6315647e-20
7.6298432e-20
7.6288871e-20
7.6284385e-20
7.6283562e-20
7.628603e-20
7.6292586e-20
7.6305813e-20
1.4138281e-19
1.4129376e-19
1.4123971e-19
1.4120758e-19
1.4118957e-19
1.4118083e-19
1.4117855e-19
1.4118179e-19
1.4119147e-19
1.412112e-19
1.4129376e-19
1.4120502e-19
1.4115109e-19
1.4111901e-19
1.4110106e-19
1.4109237e-19
1.4109023e-19
1.4109377e-19
1.4110422e-19
1.4112618e-19
1.4123971e-19
1.4115109e-19
1.4109724e-19
1.4106522e-19
1.4104733e-19
1.4103874e-19
1.4103676e-19
1.4104059e-19
1.4105158e-19
1.410743e-19
1.4120758e-19
1.4111901e-19
1.4106522e-19
1.4103326e-19
1.4101543e-19
1.4100693e-19
1.4100508e-19
1.4100913e-19
1.4102042e-19
1.4104343e-19
1.4118957e-19
1.4110106e-19
1.4104733e-19
1.4101543e-19
1.4099766e-19
1.4098924e-19
1.4098749e-19
1.4099167e-19
1.4100312e-19
1.4102626e-19
1.4118083e-19
1.4109237e-19
1.4103874e-19
1.4100693e-19
1.4098924e-19
1.4098088e-19
1.409792e-19
1.4098347e-19
1.4099499e-19
1.4101819e-19
1.4117855e-19
1.4109023e-19
1.4103676e-19
1.4100508e-19
1.4098749e-19
1.409792e-19
1.4097759e-19
1.409819e-19
1.4099347e-19
1.410167e-19
1.4118179e-19
1.4109377e-19
1.4104059e-19
1.4100913e-19
1.4099167e-19
1.4098347e-19
1.409819e-19
1.4098625e-19
1.4099785e-19
1.410211e-19
1.4119147e-19
1.4110422e-19
1.4105158e-19
1.4102042e-19
1.4100312e-19
1.4099499e-19
1.4099347e-19
1.4099785e-19
1.4100948e-19
1.4103275e-19
1.412112e-19
1.4112618e-19
1.410743e-19
1.4104343e-19
1.4102626e-19
1.4101819e-19
1.410167e-19
1.410211e-19
1.4103275e-19
1.4105608e-19
2.6392199e-19
2.6376187e-19
2.6366427e-19
2.6360606e-19
2.635734e-19
2.635575e-19
2.6355334e-19
2.6355911e-19
2.6357638e-19
2.636113e-19
2.6376187e-19
2.6360229e-19
2.6350489e-19
2.6344679e-19
2.6341421e-19
2.6339844e-19
2.6339452e-19
2.6340085e-19
2.6341954e-19
2.6345859e-19
2.6366427e-19
2.6350489e-19
2.6340764e-19
2.6334965e-19
2.6331718e-19
2.6330158e-19
2.6329796e-19
2.6330483e-19
2.6332452e-19
2.6336497e-19
2.6360606e-19
2.6344679e-19
2.6334965e-19
2.6329177e-19
2.6325942e-19
2.6324397e-19
2.632406e-19
2.6324787e-19
2.6326811e-19
2.633091e-19
2.635734e-19
2.6341421e-19
2.6331718e-19
2.6325942e-19
2.6322719e-19
2.6321188e-19
2.6320869e-19
2.6321621e-19
2.6323673e-19
2.6327796e-19
2.635575e-19
2.6339844e-19
2.6330158e-19
2.6324397e-19
2.6321188e-19
2.631967e-19
2.6319364e-19
2.6320131e-19
2.6322198e-19
2.6326331e-19
2.6355334e-19
2.6339452e-19
2.6329796e-19
2.632406e-19
2.6320869e-19
2.6319364e-19
2.631907e-19
2.6319846e-19
2.6321921e-19
2.632606e-19
2.6355911e-19
2.6340085e-19
2.6330483e-19
2.6324787e-19
2.6321621e-19
2.6320131e-19
2.6319846e-19
2.6320629e-19
2.632271e-19
2.6326852e-19
2.6357638e-19
2.6341954e-19
2.6332452e-19
2.6326811e-19
2.6323673e-19
2.6322198e-19
2.6321921e-19
2.632271e-19
2.6324795e-19
2.6328941e-19
2.636113e-19
2.6345859e-19
2.6336497e-19
2.633091e-19
2.6327796e-19
2.6326331e-19
2.632606e-19
2.6326852e-19
2.6328941e-19
2.6333099e-19
4.9756018e-19
4.9726951e-19
4.9709159e-19
4.969852e-19
4.9692538e-19
4.9689623e-19
4.9688854e-19
4.9689894e-19
4.9693005e-19
4.9699243e-19
4.9726951e-19
4.9697982e-19
4.9680227e-19
4.9669608e-19
4.9663642e-19
4.9660749e-19
4.9660026e-19
4.9661169e-19
4.9664545e-19
4.9671554e-19
4.9709159e-19
4.9680227e-19
4.9662499e-19
4.9651899e-19
4.9645954e-19
4.9643093e-19
4.9642425e-19
4.9643671e-19
4.9647231e-19
4.9654502e-19
4.969852e-19
4.9669608e-19
4.9651899e-19
4.9641319e-19
4.9635395e-19
4.9632563e-19
4.9631942e-19
4.9633262e-19
4.9636924e-19
4.9644297e-19
4.9692538e-19
4.9663642e-19
4.9645954e-19
4.9635395e-19
4.9629494e-19
4.9626688e-19
4.96261e-19
4.9627466e-19
4.9631182e-19
4.9638598e-19
4.9689623e-19
4.9660749e-19
4.9643093e-19
4.9632563e-19
4.9626688e-19
4.9623905e-19
4.9623342e-19
4.9624736e-19
4.962848e-19
4.9635915e-19
4.9688854e-19
4.9660026e-19
4.9642425e-19
4.9631942e-19
4.96261e-19
4.9623342e-19
4.9622799e-19
4.962421e-19
4.962797e-19
4.9635415e-19
4.9689894e-19
4.9661169e-19
4.9643671e-19
4.9633262e-19
4.9627466e-19
4.9624736e-19
4.962421e-19
4.9625634e-19
4.9629404e-19
4.9636855e-19
4.9693005e-19
4.9664545e-19
4.9647231e-19
4.9636924e-19
4.9631182e-19
4.962848e-19
4.962797e-19
4.9629404e-19
4.9633181e-19
4.964064e-19
4.9699243e-19
4.9671554e-19
4.9654502e-19
4.9644297e-19
4.9638598e-19
4.9635915e-19
4.9635415e-19
4.9636855e-19
4.964064e-19
4.964812e-19
9.4736479e-19
9.4683218e-19
9.4650481e-19
9.4630852e-19
9.4619795e-19
9.4614399e-19
9.4612967e-19
9.461486e-19
9.4620516e-19
9.4631768e-19
9.4683218e-19
9.4630135e-19
9.4597465e-19
9.4577871e-19
9.4566844e-19
9.456149e-19
9.4560143e-19
9.456223e-19
9.4568386e-19
9.458109e-19
9.4650481e-19
9.4597465e-19
9.4564845e-19
9.4545287e-19
9.4534299e-19
9.4529003e-19
9.452776e-19
9.4530041e-19
9.4536543e-19
9.4549742e-19
9.4630852e-19
9.4577871e-19
9.4545287e-19
9.4525766e-19
9.4514818e-19
9.4509578e-19
9.4508422e-19
9.4510841e-19
9.4517536e-19
9.4530925e-19
9.4619795e-19
9.4566844e-19
9.4534299e-19
9.4514818e-19
9.4503911e-19
9.4498719e-19
9.4497627e-19
9.4500132e-19
9.4506928e-19
9.4520399e-19
9.4614399e-19
9.456149e-19
9.4529003e-19
9.4509578e-19
9.4498719e-19
9.4493571e-19
9.4492526e-19
9.4495083e-19
9.4501932e-19
9.4515439e-19
9.4612967e-19
9.4560143e-19
9.452776e-19
9.4508422e-19
9.4497627e-19
9.4492526e-19
9.4491518e-19
9.4494108e-19
9.4500986e-19
9.4514511e-19
9.461486e-19
9.456223e-19
9.4530041e-19
9.4510841e-19
9.4500132e-19
9.4495083e-19
9.4494108e-19
9.4496722e-19
9.4503618e-19
9.4517155e-19
9.4620516e-19
9.4568386e-19
9.4536543e-19
9.4517536e-19
9.4506928e-19
9.4501932e-19
9.4500986e-19
9.4503618e-19
9.4510529e-19
9.4524081e-19
9.4631768e-19
9.458109e-19
9.4549742e-19
9.4530925e-19
9.4520399e-19
9.4515439e-19
9.4514511e-19
9.4517155e-19
9.4524081e-19
9.4537669e-19
1.8217848e-18
1.8207996e-18
1.8201916e-18
1.8198261e-18
1.8196198e-18
1.819519e-18
1.8194921e-18
1.8195269e-18
1.8196307e-18
1.8198356e-18
1.8207996e-18
1.8198177e-18
1.819211e-18
1.818846e-18
1.8186403e-18
1.8185403e-18
1.818515e-18
1.8185535e-18
1.8186668e-18
1.8188994e-18
1.8201916e-18
1.819211e-18
1.8186051e-18
1.8182409e-18
1.8180359e-18
1.817937e-18
1.8179136e-18
1.8179558e-18
1.8180757e-18
1.8183177e-18
1.8198261e-18
1.818846e-18
1.8182409e-18
1.8178773e-18
1.8176731e-18
1.8175752e-18
1.8175536e-18
1.8175983e-18
1.8177219e-18
1.8179675e-18
1.8196198e-18
1.8186403e-18
1.8180359e-18
1.8176731e-18
1.8174696e-18
1.8173727e-18
1.8173522e-18
1.8173986e-18
1.8175241e-18
1.8177712e-18
1.819519e-18
1.8185403e-18
1.817937e-18
1.8175752e-18
1.8173727e-18
1.8172766e-18
1.817257e-18
1.8173044e-18
1.8174309e-18
1.8176787e-18
1.8194921e-18
1.818515e-18
1.8179136e-18
1.8175536e-18
1.8173522e-18
1.817257e-18
1.8172381e-18
1.8172862e-18
1.8174132e-18
1.8176613e-18
1.8195269e-18
1.8185535e-18
1.8179558e-18
1.8175983e-18
1.8173986e-18
1.8173044e-18
1.8172862e-18
1.8173346e-18
1.817462e-18
1.8177104e-18
1.8196307e-18
1.8186668e-18
1.8180757e-18
1.8177219e-18
1.8175241e-18
1.8174309e-18
1.8174132e-18
1.817462e-18
1.8175897e-18
1.8178383e-18
1.8198356e-18
1.8188994e-18
1.8183177e-18
1.8179675e-18
1.8177712e-18
1.8176787e-18
1.8176613e-18
1.8177104e-18
1.8178383e-18
1.8180876e-18
3.538243e-18
3.5364035e-18
3.5352637e-18
3.5345766e-18
3.5341881e-18
3.5339981e-18
3.5339471e-18
3.5340117e-18
3.5342042e-18
3.534581e-18
3.5364035e-18
3.5345701e-18
3.5334326e-18
3.5327466e-18
3.5323593e-18
3.5321707e-18
3.5321228e-18
3.5321945e-18
3.5324052e-18
3.5328351e-18
3.5352637e-18
3.5334326e-18
3.5322968e-18
3.5316121e-18
3.5312261e-18
3.5310397e-18
3.5309955e-18
3.5310742e-18
3.5312976e-18
3.5317455e-18
3.5345766e-18
3.5327466e-18
3.5316121e-18
3.5309287e-18
3.5305442e-18
3.5303598e-18
3.5303188e-18
3.5304025e-18
3.5306329e-18
3.5310877e-18
3.5341881e-18
3.5323593e-18
3.5312261e-18
3.5305442e-18
3.5301611e-18
3.5299785e-18
3.5299398e-18
3.5300267e-18
3.5302607e-18
3.5307185e-18
3.5339981e-18
3.5321707e-18
3.5310397e-18
3.5303598e-18
3.5299785e-18
3.5297974e-18
3.5297604e-18
3.5298492e-18
3.5300851e-18
3.5305442e-18
3.5339471e-18
3.5321228e-18
3.5309955e-18
3.5303188e-18
3.5299398e-18
3.5297604e-18
3.5297248e-18
3.5298147e-18
3.5300517e-18
3.5305115e-18
3.5340117e-18
3.5321945e-18
3.5310742e-18
3.5304025e-18
3.5300267e-18
3.5298492e-18
3.5298147e-18
3.5299055e-18
3.5301432e-18
3.5306034e-18
3.5342042e-18
3.5324052e-18
3.5312976e-18
3.5306329e-18
3.5302607e-18
3.5300851e-18
3.5300517e-18
3.5301432e-18
3.5303814e-18
3.5308421e-18
3.534581e-18
3.5328351e-18
3.5317455e-18
3.5310877e-18
3.5307185e-18
3.5305442e-18
3.5305115e-18
3.5306034e-18
3.5308421e-18
3.531304e-18
6.9404437e-18
6.9369767e-18
6.9348199e-18
6.9335162e-18
6.9327781e-18
6.9324165e-18
6.9323189e-18
6.93244e-18
6.9328005e-18
6.9335e-18
6.9369767e-18
6.9335211e-18
6.9313686e-18
6.9300672e-18
6.929331e-18
6.9289724e-18
6.9288807e-18
6.9290155e-18
6.9294113e-18
6.9302136e-18
6.9348199e-18
6.9313686e-18
6.9292193e-18
6.9279204e-18
6.9271869e-18
6.9268322e-18
6.9267479e-18
6.9268964e-18
6.9273165e-18
6.9281537e-18
6.9335162e-18
6.9300672e-18
6.9279204e-18
6.9266239e-18
6.9258932e-18
6.9255424e-18
6.9254643e-18
6.9256224e-18
6.9260561e-18
6.9269068e-18
6.9327781e-18
6.929331e-18
6.9271869e-18
6.9258932e-18
6.9251653e-18
6.9248179e-18
6.9247442e-18
6.9249084e-18
6.9253492e-18
6.9262056e-18
6.9324165e-18
6.9289724e-18
6.9268322e-18
6.9255424e-18
6.9248179e-18
6.9244736e-18
6.9244032e-18
6.924571e-18
6.9250155e-18
6.9258745e-18
6.9323189e-18
6.9288807e-18
6.9267479e-18
6.9254643e-18
6.9247442e-18
6.9244032e-18
6.9243354e-18
6.9245055e-18
6.924952e-18
6.9258123e-18
6.93244e-18
6.9290155e-18
6.9268964e-18
6.9256224e-18
6.9249084e-18
6.924571e-18
6.9245055e-18
6.9246773e-18
6.9251251e-18
6.9259861e-18
6.9328005e-18
6.9294113e-18
6.9273165e-18
6.9260561e-18
6.9253492e-18
6.9250155e-18
6.924952e-18
6.9251251e-18
6.9255739e-18
6.9264359e-18
6.9335e-18
6.9302136e-18
6.9281537e-18
6.9269068e-18
6.9262056e-18
6.9258745e-18
6.9258123e-18
6.9259861e-18
6.9264359e-18
6.9273001e-18
1.3749582e-17
1.3742986e-17
1.3738867e-17
1.3736371e-17
1.3734955e-17
1.3734261e-17
1.3734073e-17
1.3734302e-17
1.3734983e-17
1.3736295e-17
1.3742986e-17
1.3736412e-17
1.3732301e-17
1.3729809e-17
1.3728397e-17
1.3727709e-17
1.3727532e-17
1.3727788e-17
1.3728539e-17
1.3730051e-17
1.3738867e-17
1.3732301e-17
1.3728196e-17
1.3725709e-17
1.3724302e-17
1.3723622e-17
1.3723459e-17
1.3723742e-17
1.372454e-17
1.372612e-17
1.3736371e-17
1.3729809e-17
1.3725709e-17
1.3723227e-17
1.3721825e-17
1.3721152e-17
1.3721002e-17
1.3721303e-17
1.3722128e-17
1.3723735e-17
1.3734955e-17
1.3728397e-17
1.3724302e-17
1.3721825e-17
1.3720429e-17
1.3719763e-17
1.3719621e-17
1.3719935e-17
1.3720773e-17
1.3722391e-17
1.3734261e-17
1.3727709e-17
1.3723622e-17
1.3721152e-17
1.3719763e-17
1.3719102e-17
1.3718967e-17
1.3719287e-17
1.3720133e-17
1.3721756e-17
1.3734073e-17
1.3727532e-17
1.3723459e-17
1.3721002e-17
1.3719621e-17
1.3718967e-17
1.3718837e-17
1.3719162e-17
1.3720011e-17
1.3721637e-17
1.3734302e-17
1.3727788e-17
1.3723742e-17
1.3721303e-17
1.3719935e-17
1.3719287e-17
1.3719162e-17
1.371949e-17
1.3720342e-17
1.3721969e-17
1.3734983e-17
1.3728539e-17
1.372454e-17
1.3722128e-17
1.3720773e-17
1.3720133e-17
1.3720011e-17
1.3720342e-17
1.3721196e-17
1.3722825e-17
1.3736295e-17
1.3730051e-17
1.372612e-17
1.3723735e-17
1.3722391e-17
1.3721756e-17
1.3721637e-17
1.3721969e-17
1.3722825e-17
1.3724458e-17
2.7509537e-17
2.7496873e-17
2.7488933e-17
2.7484109e-17
2.7481369e-17
2.7480023e-17
2.7479657e-17
2.7480096e-17
2.7481396e-17
2.7483878e-17
2.7496873e-17
2.7484249e-17
2.7476325e-17
2.7471509e-17
2.7468776e-17
2.7467442e-17
2.7467099e-17
2.746759e-17
2.7469027e-17
2.7471905e-17
2.7488933e-17
2.7476325e-17
2.7468412e-17
2.7463606e-17
2.7460883e-17
2.7459564e-17
2.7459249e-17
2.7459793e-17
2.7461323e-17
2.7464336e-17
2.7484109e-17
2.7471509e-17
2.7463606e-17
2.7458808e-17
2.7456096e-17
2.7454792e-17
2.7454501e-17
2.7455082e-17
2.7456664e-17
2.7459729e-17
2.7481369e-17
2.7468776e-17
2.7460883e-17
2.7456096e-17
2.7453395e-17
2.7452104e-17
2.7451829e-17
2.7452434e-17
2.7454044e-17
2.7457131e-17
2.7480023e-17
2.7467442e-17
2.7459564e-17
2.7454792e-17
2.7452104e-17
2.7450824e-17
2.7450563e-17
2.7451181e-17
2.7452805e-17
2.7455902e-17
2.7479657e-17
2.7467099e-17
2.7459249e-17
2.7454501e-17
2.7451829e-17
2.7450563e-17
2.7450311e-17
2.7450938e-17
2.745257e-17
2.7455672e-17
2.7480096e-17
2.746759e-17
2.7459793e-17
2.7455082e-17
2.7452434e-17
2.7451181e-17
2.7450938e-17
2.7451572e-17
2.7453209e-17
2.7456313e-17
2.7481396e-17
2.7469027e-17
2.7461323e-17
2.7456664e-17
2.7454044e-17
2.7452805e-17
2.745257e-17
2.7453209e-17
2.7454849e-17
2.7457957e-17
2.7483878e-17
2.7471905e-17
2.7464336e-17
2.7459729e-17
2.7457131e-17
2.7455902e-17
2.7455672e-17
2.7456313e-17
2.7457957e-17
2.7461073e-17
5.558432e-17
5.5559776e-17
5.5544331e-17
5.5534924e-17
5.5529571e-17
5.552694e-17
5.5526222e-17
5.552707e-17
5.5529577e-17
5.5534318e-17
5.5559776e-17
5.5535312e-17
5.5519897e-17
5.5510505e-17
5.5505167e-17
5.5502558e-17
5.5501886e-17
5.5502838e-17
5.5505616e-17
5.5511148e-17
5.5544331e-17
5.5519897e-17
5.5504504e-17
5.5495131e-17
5.5489812e-17
5.5487234e-17
5.5486617e-17
5.5487674e-17
5.5490639e-17
5.5496439e-17
5.5534924e-17
5.5510505e-17
5.5495131e-17
5.5485775e-17
5.5480478e-17
5.5477929e-17
5.5477359e-17
5.547849e-17
5.5481558e-17
5.5487462e-17
5.5529571e-17
5.5505167e-17
5.5489812e-17
5.5480478e-17
5.5475202e-17
5.5472679e-17
5.5472143e-17
5.547332e-17
5.5476443e-17
5.548239e-17
5.552694e-17
5.5502558e-17
5.5487234e-17
5.5477929e-17
5.5472679e-17
5.547018e-17
5.5469669e-17
5.5470874e-17
5.5474025e-17
5.5479991e-17
5.5526222e-17
5.5501886e-17
5.5486617e-17
5.5477359e-17
5.5472143e-17
5.5469669e-17
5.5469177e-17
5.54704e-17
5.5473566e-17
5.5479543e-17
5.552707e-17
5.5502838e-17
5.5487674e-17
5.547849e-17
5.547332e-17
5.5470874e-17
5.54704e-17
5.5471635e-17
5.5474811e-17
5.5480794e-17
5.5529577e-17
5.5505616e-17
5.5490639e-17
5.5481558e-17
5.5476443e-17
5.5474025e-17
5.5473566e-17
5.5474811e-17
5.5477994e-17
5.5483983e-17
5.5534318e-17
5.5511148e-17
5.5496439e-17
5.5487462e-17
5.548239e-17
5.5479991e-17
5.5479543e-17