/*--------------------------------*- C++ -*----------------------------------*\
| =========                 |                                                 |
| \\      /  F ield         | OpenFOAM: The Open Source CFD Toolbox           |
|  \\    /   O peration     | Version:  dev                                   |
|   \\  /    A nd           | Web:      www.OpenFOAM.org                      |
|    \\/     M anipulation  |                                                 |
\*---------------------------------------------------------------------------*/
FoamFile
{
    version     2.0;
    format      ascii;
    class       volScalarField;
    location    "6";
    object      A;
}
// * * * * * * * * * * * * * * * * * * * * * * * * * * * * * * * * * * * * * //

dimensions      [0 0 0 0 1 0 0];

internalField   nonuniform List<scalar> 
10000
(
3.3500754e-86
3.3474493e-86
3.346838e-86
3.3467306e-86
3.3467157e-86
3.346714e-86
3.3467139e-86
3.3467142e-86
3.3467161e-86
3.3467271e-86
3.3474493e-86
3.3448263e-86
3.3442157e-86
3.3441084e-86
3.3440936e-86
3.3440919e-86
3.3440918e-86
3.3440925e-86
3.3440972e-86
3.344122e-86
3.346838e-86
3.3442157e-86
3.3436052e-86
3.343498e-86
3.3434831e-86
3.3434814e-86
3.3434814e-86
3.3434823e-86
3.3434878e-86
3.3435153e-86
3.3467306e-86
3.3441084e-86
3.343498e-86
3.3433908e-86
3.3433759e-86
3.3433742e-86
3.3433742e-86
3.3433751e-86
3.3433808e-86
3.3434087e-86
3.3467157e-86
3.3440936e-86
3.3434831e-86
3.3433759e-86
3.343361e-86
3.3433594e-86
3.3433593e-86
3.3433603e-86
3.343366e-86
3.343394e-86
3.346714e-86
3.3440919e-86
3.3434814e-86
3.3433742e-86
3.3433594e-86
3.3433577e-86
3.3433577e-86
3.3433586e-86
3.3433643e-86
3.3433923e-86
3.3467139e-86
3.3440918e-86
3.3434814e-86
3.3433742e-86
3.3433593e-86
3.3433577e-86
3.3433576e-86
3.3433586e-86
3.3433643e-86
3.3433923e-86
3.3467142e-86
3.3440925e-86
3.3434823e-86
3.3433751e-86
3.3433603e-86
3.3433586e-86
3.3433586e-86
3.3433595e-86
3.3433652e-86
3.3433932e-86
3.3467161e-86
3.3440972e-86
3.3434878e-86
3.3433808e-86
3.343366e-86
3.3433643e-86
3.3433643e-86
3.3433652e-86
3.343371e-86
3.3433989e-86
3.3467271e-86
3.344122e-86
3.3435153e-86
3.3434087e-86
3.343394e-86
3.3433923e-86
3.3433923e-86
3.3433932e-86
3.3433989e-86
3.3434269e-86
3.4278501e-85
3.4252327e-85
3.4246213e-85
3.4245139e-85
3.424499e-85
3.4244974e-85
3.4244972e-85
3.4244975e-85
3.4244995e-85
3.4245108e-85
3.4252327e-85
3.4226183e-85
3.4220076e-85
3.4219004e-85
3.4218855e-85
3.4218838e-85
3.4218837e-85
3.4218845e-85
3.4218892e-85
3.4219145e-85
3.4246213e-85
3.4220076e-85
3.4213972e-85
3.4212899e-85
3.421275e-85
3.4212734e-85
3.4212733e-85
3.4212742e-85
3.4212798e-85
3.4213079e-85
3.4245139e-85
3.4219004e-85
3.4212899e-85
3.4211827e-85
3.4211678e-85
3.4211661e-85
3.4211661e-85
3.421167e-85
3.4211728e-85
3.4212013e-85
3.424499e-85
3.4218855e-85
3.421275e-85
3.4211678e-85
3.4211529e-85
3.4211512e-85
3.4211512e-85
3.4211522e-85
3.4211579e-85
3.4211865e-85
3.4244974e-85
3.4218838e-85
3.4212734e-85
3.4211661e-85
3.4211512e-85
3.4211496e-85
3.4211495e-85
3.4211505e-85
3.4211563e-85
3.4211848e-85
3.4244972e-85
3.4218837e-85
3.4212733e-85
3.4211661e-85
3.4211512e-85
3.4211495e-85
3.4211495e-85
3.4211505e-85
3.4211562e-85
3.4211848e-85
3.4244975e-85
3.4218845e-85
3.4212742e-85
3.421167e-85
3.4211522e-85
3.4211505e-85
3.4211505e-85
3.4211514e-85
3.4211572e-85
3.4211857e-85
3.4244995e-85
3.4218892e-85
3.4212798e-85
3.4211728e-85
3.4211579e-85
3.4211563e-85
3.4211562e-85
3.4211572e-85
3.421163e-85
3.4211915e-85
3.4245108e-85
3.4219145e-85
3.4213079e-85
3.4212013e-85
3.4211865e-85
3.4211848e-85
3.4211848e-85
3.4211857e-85
3.4211915e-85
3.4212201e-85
3.2187997e-84
3.2164087e-84
3.2158496e-84
3.2157514e-84
3.2157377e-84
3.2157362e-84
3.2157361e-84
3.2157364e-84
3.2157381e-84
3.2157483e-84
3.2164087e-84
3.2140204e-84
3.2134619e-84
3.2133638e-84
3.2133502e-84
3.2133486e-84
3.2133486e-84
3.2133493e-84
3.2133536e-84
3.2133767e-84
3.2158496e-84
3.2134619e-84
3.2129036e-84
3.2128055e-84
3.2127919e-84
3.2127903e-84
3.2127903e-84
3.2127912e-84
3.2127963e-84
3.212822e-84
3.2157514e-84
3.2133638e-84
3.2128055e-84
3.2127074e-84
3.2126938e-84
3.2126922e-84
3.2126922e-84
3.2126931e-84
3.2126984e-84
3.2127245e-84
3.2157377e-84
3.2133502e-84
3.2127919e-84
3.2126938e-84
3.2126802e-84
3.2126786e-84
3.2126786e-84
3.2126795e-84
3.2126848e-84
3.212711e-84
3.2157362e-84
3.2133486e-84
3.2127903e-84
3.2126922e-84
3.2126786e-84
3.2126771e-84
3.2126771e-84
3.2126779e-84
3.2126833e-84
3.2127094e-84
3.2157361e-84
3.2133486e-84
3.2127903e-84
3.2126922e-84
3.2126786e-84
3.2126771e-84
3.212677e-84
3.2126779e-84
3.2126832e-84
3.2127094e-84
3.2157364e-84
3.2133493e-84
3.2127912e-84
3.2126931e-84
3.2126795e-84
3.2126779e-84
3.2126779e-84
3.2126788e-84
3.2126841e-84
3.2127103e-84
3.2157381e-84
3.2133536e-84
3.2127963e-84
3.2126984e-84
3.2126848e-84
3.2126833e-84
3.2126832e-84
3.2126841e-84
3.2126895e-84
3.2127156e-84
3.2157483e-84
3.2133767e-84
3.212822e-84
3.2127245e-84
3.212711e-84
3.2127094e-84
3.2127094e-84
3.2127103e-84
3.2127156e-84
3.2127418e-84
3.1012527e-83
3.0990126e-83
3.0984883e-83
3.0983961e-83
3.0983833e-83
3.0983819e-83
3.0983818e-83
3.098382e-83
3.0983837e-83
3.098393e-83
3.0990126e-83
3.0967751e-83
3.0962514e-83
3.0961593e-83
3.0961465e-83
3.0961451e-83
3.096145e-83
3.0961457e-83
3.0961498e-83
3.0961714e-83
3.0984883e-83
3.0962514e-83
3.0957277e-83
3.0956357e-83
3.0956229e-83
3.0956215e-83
3.0956214e-83
3.0956222e-83
3.0956271e-83
3.0956512e-83
3.0983961e-83
3.0961593e-83
3.0956357e-83
3.0955436e-83
3.0955308e-83
3.0955294e-83
3.0955294e-83
3.0955302e-83
3.0955352e-83
3.0955597e-83
3.0983833e-83
3.0961465e-83
3.0956229e-83
3.0955308e-83
3.0955181e-83
3.0955166e-83
3.0955166e-83
3.0955175e-83
3.0955225e-83
3.095547e-83
3.0983819e-83
3.0961451e-83
3.0956215e-83
3.0955294e-83
3.0955166e-83
3.0955152e-83
3.0955152e-83
3.095516e-83
3.0955211e-83
3.0955456e-83
3.0983818e-83
3.096145e-83
3.0956214e-83
3.0955294e-83
3.0955166e-83
3.0955152e-83
3.0955152e-83
3.095516e-83
3.095521e-83
3.0955456e-83
3.098382e-83
3.0961457e-83
3.0956222e-83
3.0955302e-83
3.0955175e-83
3.095516e-83
3.095516e-83
3.0955168e-83
3.0955219e-83
3.0955464e-83
3.0983837e-83
3.0961498e-83
3.0956271e-83
3.0955352e-83
3.0955225e-83
3.0955211e-83
3.095521e-83
3.0955219e-83
3.0955269e-83
3.0955515e-83
3.098393e-83
3.0961714e-83
3.0956512e-83
3.0955597e-83
3.095547e-83
3.0955456e-83
3.0955456e-83
3.0955464e-83
3.0955515e-83
3.095576e-83
3.0694654e-82
3.0673106e-82
3.0668057e-82
3.0667169e-82
3.0667046e-82
3.0667032e-82
3.0667031e-82
3.0667033e-82
3.0667049e-82
3.0667137e-82
3.0673106e-82
3.0651581e-82
3.0646538e-82
3.0645651e-82
3.0645528e-82
3.0645514e-82
3.0645513e-82
3.064552e-82
3.0645559e-82
3.0645768e-82
3.0668057e-82
3.0646538e-82
3.0641495e-82
3.0640608e-82
3.0640485e-82
3.0640471e-82
3.0640471e-82
3.0640479e-82
3.0640526e-82
3.0640759e-82
3.0667169e-82
3.0645651e-82
3.0640608e-82
3.0639722e-82
3.0639599e-82
3.0639585e-82
3.0639585e-82
3.0639593e-82
3.0639641e-82
3.0639877e-82
3.0667046e-82
3.0645528e-82
3.0640485e-82
3.0639599e-82
3.0639476e-82
3.0639462e-82
3.0639462e-82
3.063947e-82
3.0639519e-82
3.0639755e-82
3.0667032e-82
3.0645514e-82
3.0640471e-82
3.0639585e-82
3.0639462e-82
3.0639448e-82
3.0639448e-82
3.0639456e-82
3.0639505e-82
3.0639741e-82
3.0667031e-82
3.0645513e-82
3.0640471e-82
3.0639585e-82
3.0639462e-82
3.0639448e-82
3.0639447e-82
3.0639456e-82
3.0639505e-82
3.0639741e-82
3.0667033e-82
3.064552e-82
3.0640479e-82
3.0639593e-82
3.063947e-82
3.0639456e-82
3.0639456e-82
3.0639464e-82
3.0639513e-82
3.0639749e-82
3.0667049e-82
3.0645559e-82
3.0640526e-82
3.0639641e-82
3.0639519e-82
3.0639505e-82
3.0639505e-82
3.0639513e-82
3.0639562e-82
3.0639798e-82
3.0667137e-82
3.0645768e-82
3.0640759e-82
3.0639877e-82
3.0639755e-82
3.0639741e-82
3.0639741e-82
3.0639749e-82
3.0639798e-82
3.0640035e-82
3.1207025e-81
3.1185742e-81
3.118075e-81
3.1179872e-81
3.117975e-81
3.1179736e-81
3.1179735e-81
3.1179738e-81
3.1179753e-81
3.1179838e-81
3.1185742e-81
3.1164482e-81
3.1159495e-81
3.1158618e-81
3.1158496e-81
3.1158483e-81
3.1158482e-81
3.1158488e-81
3.1158528e-81
3.1158734e-81
3.118075e-81
3.1159495e-81
3.115451e-81
3.1153633e-81
3.1153511e-81
3.1153497e-81
3.1153497e-81
3.1153505e-81
3.1153552e-81
3.1153782e-81
3.1179872e-81
3.1158618e-81
3.1153633e-81
3.1152756e-81
3.1152634e-81
3.115262e-81
3.115262e-81
3.1152628e-81
3.1152677e-81
3.1152911e-81
3.117975e-81
3.1158496e-81
3.1153511e-81
3.1152634e-81
3.1152512e-81
3.1152499e-81
3.1152499e-81
3.1152507e-81
3.1152556e-81
3.115279e-81
3.1179736e-81
3.1158483e-81
3.1153497e-81
3.115262e-81
3.1152499e-81
3.1152485e-81
3.1152485e-81
3.1152493e-81
3.1152542e-81
3.1152776e-81
3.1179735e-81
3.1158482e-81
3.1153497e-81
3.115262e-81
3.1152499e-81
3.1152485e-81
3.1152485e-81
3.1152493e-81
3.1152542e-81
3.1152776e-81
3.1179738e-81
3.1158488e-81
3.1153505e-81
3.1152628e-81
3.1152507e-81
3.1152493e-81
3.1152493e-81
3.1152501e-81
3.115255e-81
3.1152784e-81
3.1179753e-81
3.1158528e-81
3.1153552e-81
3.1152677e-81
3.1152556e-81
3.1152542e-81
3.1152542e-81
3.115255e-81
3.1152599e-81
3.1152833e-81
3.1179838e-81
3.1158734e-81
3.1153782e-81
3.1152911e-81
3.115279e-81
3.1152776e-81
3.1152776e-81
3.1152784e-81
3.1152833e-81
3.1153067e-81
3.2589469e-80
3.2567888e-80
3.2562821e-80
3.256193e-80
3.2561806e-80
3.2561792e-80
3.2561791e-80
3.2561794e-80
3.256181e-80
3.2561894e-80
3.2567888e-80
3.254633e-80
3.2541269e-80
3.2540378e-80
3.2540254e-80
3.254024e-80
3.254024e-80
3.2540246e-80
3.2540287e-80
3.2540496e-80
3.2562821e-80
3.2541269e-80
3.2536208e-80
3.2535318e-80
3.2535194e-80
3.253518e-80
3.253518e-80
3.2535188e-80
3.2535236e-80
3.253547e-80
3.256193e-80
3.2540378e-80
3.2535318e-80
3.2534427e-80
3.2534304e-80
3.253429e-80
3.2534289e-80
3.2534298e-80
3.2534348e-80
3.2534586e-80
3.2561806e-80
3.2540254e-80
3.2535194e-80
3.2534304e-80
3.253418e-80
3.2534166e-80
3.2534166e-80
3.2534174e-80
3.2534225e-80
3.2534463e-80
3.2561792e-80
3.254024e-80
3.253518e-80
3.253429e-80
3.2534166e-80
3.2534152e-80
3.2534152e-80
3.253416e-80
3.2534211e-80
3.2534449e-80
3.2561791e-80
3.254024e-80
3.253518e-80
3.2534289e-80
3.2534166e-80
3.2534152e-80
3.2534152e-80
3.253416e-80
3.2534211e-80
3.2534449e-80
3.2561794e-80
3.2540246e-80
3.2535188e-80
3.2534298e-80
3.2534174e-80
3.253416e-80
3.253416e-80
3.2534169e-80
3.2534219e-80
3.2534457e-80
3.256181e-80
3.2540287e-80
3.2535236e-80
3.2534348e-80
3.2534225e-80
3.2534211e-80
3.2534211e-80
3.2534219e-80
3.2534269e-80
3.2534508e-80
3.2561894e-80
3.2540496e-80
3.253547e-80
3.2534586e-80
3.2534463e-80
3.2534449e-80
3.2534449e-80
3.2534457e-80
3.2534508e-80
3.2534746e-80
3.4954567e-79
3.4932102e-79
3.4926823e-79
3.4925894e-79
3.4925765e-79
3.492575e-79
3.4925749e-79
3.4925752e-79
3.4925768e-79
3.4925855e-79
3.4932102e-79
3.4909661e-79
3.4904387e-79
3.4903458e-79
3.4903329e-79
3.4903315e-79
3.4903314e-79
3.4903321e-79
3.4903364e-79
3.4903583e-79
3.4926823e-79
3.4904387e-79
3.4899114e-79
3.4898186e-79
3.4898057e-79
3.4898042e-79
3.4898042e-79
3.4898051e-79
3.4898102e-79
3.4898346e-79
3.4925894e-79
3.4903458e-79
3.4898186e-79
3.4897258e-79
3.4897129e-79
3.4897114e-79
3.4897114e-79
3.4897123e-79
3.4897176e-79
3.4897424e-79
3.4925765e-79
3.4903329e-79
3.4898057e-79
3.4897129e-79
3.4897e-79
3.4896986e-79
3.4896985e-79
3.4896994e-79
3.4897047e-79
3.4897296e-79
3.492575e-79
3.4903315e-79
3.4898042e-79
3.4897114e-79
3.4896986e-79
3.4896971e-79
3.4896971e-79
3.489698e-79
3.4897033e-79
3.4897282e-79
3.4925749e-79
3.4903314e-79
3.4898042e-79
3.4897114e-79
3.4896985e-79
3.4896971e-79
3.4896971e-79
3.489698e-79
3.4897033e-79
3.4897282e-79
3.4925752e-79
3.4903321e-79
3.4898051e-79
3.4897123e-79
3.4896994e-79
3.489698e-79
3.489698e-79
3.4896989e-79
3.4897042e-79
3.4897291e-79
3.4925768e-79
3.4903364e-79
3.4898102e-79
3.4897176e-79
3.4897047e-79
3.4897033e-79
3.4897033e-79
3.4897042e-79
3.4897095e-79
3.4897344e-79
3.4925855e-79
3.4903583e-79
3.4898346e-79
3.4897424e-79
3.4897296e-79
3.4897282e-79
3.4897282e-79
3.4897291e-79
3.4897344e-79
3.4897593e-79
3.8502929e-78
3.8478925e-78
3.8473278e-78
3.8472284e-78
3.8472146e-78
3.847213e-78
3.8472129e-78
3.8472132e-78
3.847215e-78
3.8472241e-78
3.8478925e-78
3.8454945e-78
3.8449305e-78
3.8448311e-78
3.8448173e-78
3.8448158e-78
3.8448157e-78
3.8448165e-78
3.8448211e-78
3.8448445e-78
3.8473278e-78
3.8449305e-78
3.8443665e-78
3.8442672e-78
3.8442534e-78
3.8442519e-78
3.8442519e-78
3.8442528e-78
3.8442583e-78
3.8442846e-78
3.8472284e-78
3.8448311e-78
3.8442672e-78
3.8441679e-78
3.8441541e-78
3.8441526e-78
3.8441526e-78
3.8441535e-78
3.8441592e-78
3.8441859e-78
3.8472146e-78
3.8448173e-78
3.8442534e-78
3.8441541e-78
3.8441404e-78
3.8441388e-78
3.8441388e-78
3.8441398e-78
3.8441455e-78
3.8441723e-78
3.847213e-78
3.8448158e-78
3.8442519e-78
3.8441526e-78
3.8441388e-78
3.8441373e-78
3.8441372e-78
3.8441382e-78
3.844144e-78
3.8441707e-78
3.8472129e-78
3.8448157e-78
3.8442519e-78
3.8441526e-78
3.8441388e-78
3.8441372e-78
3.8441372e-78
3.8441382e-78
3.8441439e-78
3.8441707e-78
3.8472132e-78
3.8448165e-78
3.8442528e-78
3.8441535e-78
3.8441398e-78
3.8441382e-78
3.8441382e-78
3.8441392e-78
3.8441449e-78
3.8441717e-78
3.847215e-78
3.8448211e-78
3.8442583e-78
3.8441592e-78
3.8441455e-78
3.844144e-78
3.8441439e-78
3.8441449e-78
3.8441506e-78
3.8441774e-78
3.8472241e-78
3.8448445e-78
3.8442846e-78
3.8441859e-78
3.8441723e-78
3.8441707e-78
3.8441707e-78
3.8441717e-78
3.8441774e-78
3.8442042e-78
4.3551511e-77
4.3525187e-77
4.3518989e-77
4.3517898e-77
4.3517746e-77
4.3517729e-77
4.3517728e-77
4.3517731e-77
4.3517751e-77
4.3517849e-77
4.3525187e-77
4.349889e-77
4.3492698e-77
4.3491607e-77
4.3491456e-77
4.3491439e-77
4.3491438e-77
4.3491447e-77
4.3491498e-77
4.3491756e-77
4.3518989e-77
4.3492698e-77
4.3486508e-77
4.3485418e-77
4.3485266e-77
4.3485249e-77
4.3485249e-77
4.3485259e-77
4.3485321e-77
4.348561e-77
4.3517898e-77
4.3491607e-77
4.3485418e-77
4.3484327e-77
4.3484176e-77
4.3484159e-77
4.3484159e-77
4.348417e-77
4.3484233e-77
4.3484528e-77
4.3517746e-77
4.3491456e-77
4.3485266e-77
4.3484176e-77
4.3484025e-77
4.3484008e-77
4.3484008e-77
4.3484018e-77
4.3484082e-77
4.3484377e-77
4.3517729e-77
4.3491439e-77
4.3485249e-77
4.3484159e-77
4.3484008e-77
4.3483991e-77
4.348399e-77
4.3484001e-77
4.3484065e-77
4.348436e-77
4.3517728e-77
4.3491438e-77
4.3485249e-77
4.3484159e-77
4.3484008e-77
4.348399e-77
4.348399e-77
4.3484001e-77
4.3484065e-77
4.348436e-77
4.3517731e-77
4.3491447e-77
4.3485259e-77
4.348417e-77
4.3484018e-77
4.3484001e-77
4.3484001e-77
4.3484012e-77
4.3484076e-77
4.3484371e-77
4.3517751e-77
4.3491498e-77
4.3485321e-77
4.3484233e-77
4.3484082e-77
4.3484065e-77
4.3484065e-77
4.3484076e-77
4.3484139e-77
4.3484435e-77
4.3517849e-77
4.3491756e-77
4.348561e-77
4.3484528e-77
4.3484377e-77
4.348436e-77
4.348436e-77
4.3484371e-77
4.3484435e-77
4.348473e-77
5.0580556e-76
5.0550931e-76
5.0543951e-76
5.0542721e-76
5.054255e-76
5.0542531e-76
5.0542529e-76
5.0542533e-76
5.0542555e-76
5.0542664e-76
5.0550931e-76
5.0521336e-76
5.0514362e-76
5.0513133e-76
5.0512962e-76
5.0512943e-76
5.0512942e-76
5.0512952e-76
5.0513011e-76
5.0513302e-76
5.0543951e-76
5.0514362e-76
5.0507389e-76
5.0506161e-76
5.050599e-76
5.0505971e-76
5.0505971e-76
5.0505982e-76
5.0506052e-76
5.050638e-76
5.0542721e-76
5.0513133e-76
5.0506161e-76
5.0504932e-76
5.0504762e-76
5.0504742e-76
5.0504742e-76
5.0504755e-76
5.0504827e-76
5.0505161e-76
5.054255e-76
5.0512962e-76
5.050599e-76
5.0504762e-76
5.0504591e-76
5.0504572e-76
5.0504572e-76
5.0504584e-76
5.0504657e-76
5.0504991e-76
5.0542531e-76
5.0512943e-76
5.0505971e-76
5.0504742e-76
5.0504572e-76
5.0504553e-76
5.0504553e-76
5.0504565e-76
5.0504638e-76
5.0504972e-76
5.0542529e-76
5.0512942e-76
5.0505971e-76
5.0504742e-76
5.0504572e-76
5.0504553e-76
5.0504552e-76
5.0504565e-76
5.0504637e-76
5.0504972e-76
5.0542533e-76
5.0512952e-76
5.0505982e-76
5.0504755e-76
5.0504584e-76
5.0504565e-76
5.0504565e-76
5.0504577e-76
5.050465e-76
5.0504984e-76
5.0542555e-76
5.0513011e-76
5.0506052e-76
5.0504827e-76
5.0504657e-76
5.0504638e-76
5.0504637e-76
5.050465e-76
5.0504723e-76
5.0505057e-76
5.0542664e-76
5.0513302e-76
5.050638e-76
5.0505161e-76
5.0504991e-76
5.0504972e-76
5.0504972e-76
5.0504984e-76
5.0505057e-76
5.0505392e-76
6.0308824e-75
6.0274615e-75
6.0266547e-75
6.0265125e-75
6.0264928e-75
6.0264906e-75
6.0264904e-75
6.0264908e-75
6.0264934e-75
6.0265058e-75
6.0274615e-75
6.0240439e-75
6.0232379e-75
6.0230958e-75
6.0230761e-75
6.0230739e-75
6.0230738e-75
6.023075e-75
6.0230818e-75
6.0231157e-75
6.0266547e-75
6.0232379e-75
6.0224321e-75
6.02229e-75
6.0222703e-75
6.0222681e-75
6.0222681e-75
6.0222695e-75
6.0222777e-75
6.0223158e-75
6.0265125e-75
6.0230958e-75
6.02229e-75
6.022148e-75
6.0221283e-75
6.0221261e-75
6.0221261e-75
6.0221275e-75
6.022136e-75
6.0221748e-75
6.0264928e-75
6.0230761e-75
6.0222703e-75
6.0221283e-75
6.0221086e-75
6.0221064e-75
6.0221064e-75
6.0221078e-75
6.0221163e-75
6.0221552e-75
6.0264906e-75
6.0230739e-75
6.0222681e-75
6.0221261e-75
6.0221064e-75
6.0221042e-75
6.0221041e-75
6.0221056e-75
6.0221141e-75
6.022153e-75
6.0264904e-75
6.0230738e-75
6.0222681e-75
6.0221261e-75
6.0221064e-75
6.0221041e-75
6.0221041e-75
6.0221056e-75
6.0221141e-75
6.022153e-75
6.0264908e-75
6.023075e-75
6.0222695e-75
6.0221275e-75
6.0221078e-75
6.0221056e-75
6.0221056e-75
6.022107e-75
6.0221155e-75
6.0221545e-75
6.0264934e-75
6.0230818e-75
6.0222777e-75
6.022136e-75
6.0221163e-75
6.0221141e-75
6.0221141e-75
6.0221155e-75
6.0221241e-75
6.022163e-75
6.0265058e-75
6.0231157e-75
6.0223158e-75
6.0221748e-75
6.0221552e-75
6.022153e-75
6.022153e-75
6.0221545e-75
6.022163e-75
6.0222019e-75
7.3813454e-74
7.3772928e-74
7.3763363e-74
7.3761677e-74
7.3761443e-74
7.3761416e-74
7.3761415e-74
7.376142e-74
7.3761451e-74
7.3761596e-74
7.3772928e-74
7.3732442e-74
7.3722885e-74
7.3721201e-74
7.3720967e-74
7.372094e-74
7.3720939e-74
7.3720953e-74
7.3721036e-74
7.372144e-74
7.3763363e-74
7.3722885e-74
7.3713331e-74
7.3711646e-74
7.3711413e-74
7.3711386e-74
7.3711386e-74
7.3711403e-74
7.3711501e-74
7.3711957e-74
7.3761677e-74
7.3721201e-74
7.3711646e-74
7.3709962e-74
7.3709728e-74
7.3709702e-74
7.3709702e-74
7.3709719e-74
7.3709821e-74
7.3710285e-74
7.3761443e-74
7.3720967e-74
7.3711413e-74
7.3709728e-74
7.3709495e-74
7.3709468e-74
7.3709468e-74
7.3709486e-74
7.3709588e-74
7.3710053e-74
7.3761416e-74
7.372094e-74
7.3711386e-74
7.3709702e-74
7.3709468e-74
7.3709442e-74
7.3709442e-74
7.3709459e-74
7.3709562e-74
7.3710027e-74
7.3761415e-74
7.3720939e-74
7.3711386e-74
7.3709702e-74
7.3709468e-74
7.3709442e-74
7.3709442e-74
7.3709459e-74
7.3709561e-74
7.3710027e-74
7.376142e-74
7.3720953e-74
7.3711403e-74
7.3709719e-74
7.3709486e-74
7.3709459e-74
7.3709459e-74
7.3709477e-74
7.3709579e-74
7.3710044e-74
7.3761451e-74
7.3721036e-74
7.3711501e-74
7.3709821e-74
7.3709588e-74
7.3709562e-74
7.3709561e-74
7.3709579e-74
7.3709681e-74
7.3710146e-74
7.3761596e-74
7.372144e-74
7.3711957e-74
7.3710285e-74
7.3710053e-74
7.3710027e-74
7.3710027e-74
7.3710044e-74
7.3710146e-74
7.3710611e-74
9.2721947e-73
9.2672703e-73
9.2661071e-73
9.265902e-73
9.2658735e-73
9.2658703e-73
9.2658701e-73
9.2658707e-73
9.2658745e-73
9.265892e-73
9.2672703e-73
9.2623506e-73
9.2611884e-73
9.2609835e-73
9.260955e-73
9.2609518e-73
9.2609517e-73
9.2609534e-73
9.2609635e-73
9.2610131e-73
9.2661071e-73
9.2611884e-73
9.2600264e-73
9.2598215e-73
9.2597931e-73
9.2597899e-73
9.2597899e-73
9.2597919e-73
9.2598041e-73
9.25986e-73
9.265902e-73
9.2609835e-73
9.2598215e-73
9.2596167e-73
9.2595882e-73
9.259585e-73
9.259585e-73
9.2595872e-73
9.2595997e-73
9.2596566e-73
9.2658735e-73
9.260955e-73
9.2597931e-73
9.2595882e-73
9.2595598e-73
9.2595566e-73
9.2595566e-73
9.2595587e-73
9.2595713e-73
9.2596284e-73
9.2658703e-73
9.2609518e-73
9.2597899e-73
9.259585e-73
9.2595566e-73
9.2595534e-73
9.2595534e-73
9.2595555e-73
9.2595681e-73
9.2596252e-73
9.2658701e-73
9.2609517e-73
9.2597899e-73
9.259585e-73
9.2595566e-73
9.2595534e-73
9.2595533e-73
9.2595555e-73
9.2595681e-73
9.2596252e-73
9.2658707e-73
9.2609534e-73
9.2597919e-73
9.2595872e-73
9.2595587e-73
9.2595555e-73
9.2595555e-73
9.2595577e-73
9.2595703e-73
9.2596273e-73
9.2658745e-73
9.2609635e-73
9.2598041e-73
9.2595997e-73
9.2595713e-73
9.2595681e-73
9.2595681e-73
9.2595703e-73
9.2595829e-73
9.25964e-73
9.265892e-73
9.2610131e-73
9.25986e-73
9.2596566e-73
9.2596284e-73
9.2596252e-73
9.2596252e-73
9.2596273e-73
9.25964e-73
9.259697e-73
1.1952288e-71
1.1946152e-71
1.1944701e-71
1.1944445e-71
1.194441e-71
1.1944406e-71
1.1944405e-71
1.1944406e-71
1.1944411e-71
1.1944433e-71
1.1946152e-71
1.1940021e-71
1.1938571e-71
1.1938316e-71
1.193828e-71
1.1938276e-71
1.1938276e-71
1.1938278e-71
1.1938291e-71
1.1938353e-71
1.1944701e-71
1.1938571e-71
1.1937122e-71
1.1936867e-71
1.1936831e-71
1.1936827e-71
1.1936827e-71
1.193683e-71
1.1936845e-71
1.1936915e-71
1.1944445e-71
1.1938316e-71
1.1936867e-71
1.1936611e-71
1.1936576e-71
1.1936572e-71
1.1936572e-71
1.1936574e-71
1.193659e-71
1.1936662e-71
1.194441e-71
1.193828e-71
1.1936831e-71
1.1936576e-71
1.193654e-71
1.1936536e-71
1.1936536e-71
1.1936539e-71
1.1936555e-71
1.1936627e-71
1.1944406e-71
1.1938276e-71
1.1936827e-71
1.1936572e-71
1.1936536e-71
1.1936532e-71
1.1936532e-71
1.1936535e-71
1.1936551e-71
1.1936623e-71
1.1944405e-71
1.1938276e-71
1.1936827e-71
1.1936572e-71
1.1936536e-71
1.1936532e-71
1.1936532e-71
1.1936535e-71
1.1936551e-71
1.1936623e-71
1.1944406e-71
1.1938278e-71
1.193683e-71
1.1936574e-71
1.1936539e-71
1.1936535e-71
1.1936535e-71
1.1936538e-71
1.1936554e-71
1.1936625e-71
1.1944411e-71
1.1938291e-71
1.1936845e-71
1.193659e-71
1.1936555e-71
1.1936551e-71
1.1936551e-71
1.1936554e-71
1.193657e-71
1.1936641e-71
1.1944433e-71
1.1938353e-71
1.1936915e-71
1.1936662e-71
1.1936627e-71
1.1936623e-71
1.1936623e-71
1.1936625e-71
1.1936641e-71
1.1936713e-71
1.5807541e-70
1.57997e-70
1.5797844e-70
1.5797517e-70
1.5797472e-70
1.5797467e-70
1.5797466e-70
1.5797467e-70
1.5797473e-70
1.5797501e-70
1.57997e-70
1.5791866e-70
1.5790012e-70
1.5789685e-70
1.578964e-70
1.5789634e-70
1.5789634e-70
1.5789637e-70
1.5789654e-70
1.5789734e-70
1.5797844e-70
1.5790012e-70
1.5788159e-70
1.5787832e-70
1.5787787e-70
1.5787781e-70
1.5787781e-70
1.5787785e-70
1.5787805e-70
1.5787896e-70
1.5797517e-70
1.5789685e-70
1.5787832e-70
1.5787505e-70
1.578746e-70
1.5787455e-70
1.5787455e-70
1.5787458e-70
1.5787479e-70
1.5787571e-70
1.5797472e-70
1.578964e-70
1.5787787e-70
1.578746e-70
1.5787414e-70
1.5787409e-70
1.5787409e-70
1.5787413e-70
1.5787433e-70
1.5787526e-70
1.5797467e-70
1.5789634e-70
1.5787781e-70
1.5787455e-70
1.5787409e-70
1.5787404e-70
1.5787404e-70
1.5787408e-70
1.5787428e-70
1.5787521e-70
1.5797466e-70
1.5789634e-70
1.5787781e-70
1.5787455e-70
1.5787409e-70
1.5787404e-70
1.5787404e-70
1.5787408e-70
1.5787428e-70
1.5787521e-70
1.5797467e-70
1.5789637e-70
1.5787785e-70
1.5787458e-70
1.5787413e-70
1.5787408e-70
1.5787408e-70
1.5787411e-70
1.5787432e-70
1.5787525e-70
1.5797473e-70
1.5789654e-70
1.5787805e-70
1.5787479e-70
1.5787433e-70
1.5787428e-70
1.5787428e-70
1.5787432e-70
1.5787453e-70
1.5787545e-70
1.5797501e-70
1.5789734e-70
1.5787896e-70
1.5787571e-70
1.5787526e-70
1.5787521e-70
1.5787521e-70
1.5787525e-70
1.5787545e-70
1.5787638e-70
2.1445656e-69
2.1435385e-69
2.1432954e-69
2.1432524e-69
2.1432465e-69
2.1432458e-69
2.1432458e-69
2.1432459e-69
2.1432467e-69
2.1432503e-69
2.1435385e-69
2.1425124e-69
2.1422694e-69
2.1422265e-69
2.1422206e-69
2.1422199e-69
2.1422199e-69
2.1422203e-69
2.1422225e-69
2.1422331e-69
2.1432954e-69
2.1422694e-69
2.1420265e-69
2.1419836e-69
2.1419777e-69
2.141977e-69
2.141977e-69
2.1419774e-69
2.1419801e-69
2.1419921e-69
2.1432524e-69
2.1422265e-69
2.1419836e-69
2.1419408e-69
2.1419348e-69
2.1419341e-69
2.1419341e-69
2.1419346e-69
2.1419374e-69
2.1419496e-69
2.1432465e-69
2.1422206e-69
2.1419777e-69
2.1419348e-69
2.1419289e-69
2.1419282e-69
2.1419282e-69
2.1419287e-69
2.1419314e-69
2.1419437e-69
2.1432458e-69
2.1422199e-69
2.141977e-69
2.1419341e-69
2.1419282e-69
2.1419275e-69
2.1419275e-69
2.141928e-69
2.1419308e-69
2.141943e-69
2.1432458e-69
2.1422199e-69
2.141977e-69
2.1419341e-69
2.1419282e-69
2.1419275e-69
2.1419275e-69
2.141928e-69
2.1419308e-69
2.141943e-69
2.1432459e-69
2.1422203e-69
2.1419774e-69
2.1419346e-69
2.1419287e-69
2.141928e-69
2.141928e-69
2.1419285e-69
2.1419312e-69
2.1419435e-69
2.1432467e-69
2.1422225e-69
2.1419801e-69
2.1419374e-69
2.1419314e-69
2.1419308e-69
2.1419308e-69
2.1419312e-69
2.141934e-69
2.1419463e-69
2.1432503e-69
2.1422331e-69
2.1419921e-69
2.1419496e-69
2.1419437e-69
2.141943e-69
2.141943e-69
2.1419435e-69
2.1419463e-69
2.1419586e-69
2.9839178e-68
2.982539e-68
2.9822123e-68
2.9821547e-68
2.9821467e-68
2.9821458e-68
2.9821457e-68
2.9821459e-68
2.982147e-68
2.9821517e-68
2.982539e-68
2.9811614e-68
2.980835e-68
2.9807774e-68
2.9807694e-68
2.9807685e-68
2.9807685e-68
2.980769e-68
2.980772e-68
2.9807864e-68
2.9822123e-68
2.980835e-68
2.9805087e-68
2.9804511e-68
2.9804431e-68
2.9804422e-68
2.9804422e-68
2.9804428e-68
2.9804464e-68
2.9804627e-68
2.9821547e-68
2.9807774e-68
2.9804511e-68
2.9803935e-68
2.9803855e-68
2.9803846e-68
2.9803846e-68
2.9803852e-68
2.980389e-68
2.9804056e-68
2.9821467e-68
2.9807694e-68
2.9804431e-68
2.9803855e-68
2.9803775e-68
2.9803766e-68
2.9803766e-68
2.9803772e-68
2.980381e-68
2.9803977e-68
2.9821458e-68
2.9807685e-68
2.9804422e-68
2.9803846e-68
2.9803766e-68
2.9803757e-68
2.9803757e-68
2.9803763e-68
2.9803801e-68
2.9803968e-68
2.9821457e-68
2.9807685e-68
2.9804422e-68
2.9803846e-68
2.9803766e-68
2.9803757e-68
2.9803757e-68
2.9803763e-68
2.9803801e-68
2.9803968e-68
2.9821459e-68
2.980769e-68
2.9804428e-68
2.9803852e-68
2.9803772e-68
2.9803763e-68
2.9803763e-68
2.980377e-68
2.9803807e-68
2.9803974e-68
2.982147e-68
2.980772e-68
2.9804464e-68
2.980389e-68
2.980381e-68
2.9803801e-68
2.9803801e-68
2.9803807e-68
2.9803845e-68
2.9804012e-68
2.9821517e-68
2.9807864e-68
2.9804627e-68
2.9804056e-68
2.9803977e-68
2.9803968e-68
2.9803968e-68
2.9803974e-68
2.9804012e-68
2.9804179e-68
4.257072e-67
4.2551754e-67
4.2547257e-67
4.2546463e-67
4.2546353e-67
4.2546341e-67
4.254634e-67
4.2546343e-67
4.2546358e-67
4.2546423e-67
4.2551754e-67
4.2532804e-67
4.2528311e-67
4.2527518e-67
4.2527408e-67
4.2527395e-67
4.2527395e-67
4.2527402e-67
4.2527444e-67
4.2527645e-67
4.2547257e-67
4.2528311e-67
4.2523819e-67
4.2523026e-67
4.2522916e-67
4.2522903e-67
4.2522903e-67
4.2522912e-67
4.2522963e-67
4.252319e-67
4.2546463e-67
4.2527518e-67
4.2523026e-67
4.2522233e-67
4.2522123e-67
4.252211e-67
4.252211e-67
4.2522119e-67
4.2522172e-67
4.2522404e-67
4.2546353e-67
4.2527408e-67
4.2522916e-67
4.2522123e-67
4.2522013e-67
4.2522e-67
4.2522e-67
4.2522009e-67
4.2522062e-67
4.2522295e-67
4.2546341e-67
4.2527395e-67
4.2522903e-67
4.252211e-67
4.2522e-67
4.2521988e-67
4.2521988e-67
4.2521997e-67
4.252205e-67
4.2522282e-67
4.254634e-67
4.2527395e-67
4.2522903e-67
4.252211e-67
4.2522e-67
4.2521988e-67
4.2521988e-67
4.2521997e-67
4.252205e-67
4.2522282e-67
4.2546343e-67
4.2527402e-67
4.2522912e-67
4.2522119e-67
4.2522009e-67
4.2521997e-67
4.2521997e-67
4.2522006e-67
4.2522059e-67
4.2522291e-67
4.2546358e-67
4.2527444e-67
4.2522963e-67
4.2522172e-67
4.2522062e-67
4.252205e-67
4.252205e-67
4.2522059e-67
4.2522112e-67
4.2522344e-67
4.2546423e-67
4.2527645e-67
4.252319e-67
4.2522404e-67
4.2522295e-67
4.2522282e-67
4.2522282e-67
4.2522291e-67
4.2522344e-67
4.2522577e-67
6.2259987e-66
6.2233263e-66
6.2226923e-66
6.2225803e-66
6.2225647e-66
6.222563e-66
6.2225629e-66
6.2225633e-66
6.2225655e-66
6.2225746e-66
6.2233263e-66
6.2206561e-66
6.2200226e-66
6.2199107e-66
6.2198952e-66
6.2198934e-66
6.2198934e-66
6.2198944e-66
6.2199005e-66
6.2199291e-66
6.2226923e-66
6.2200226e-66
6.2193892e-66
6.2192773e-66
6.2192618e-66
6.2192601e-66
6.2192601e-66
6.2192613e-66
6.2192686e-66
6.2193011e-66
6.2225803e-66
6.2199107e-66
6.2192773e-66
6.2191655e-66
6.21915e-66
6.2191482e-66
6.2191482e-66
6.2191495e-66
6.2191571e-66
6.2191902e-66
6.2225647e-66
6.2198952e-66
6.2192618e-66
6.21915e-66
6.2191344e-66
6.2191327e-66
6.2191327e-66
6.219134e-66
6.2191416e-66
6.2191748e-66
6.222563e-66
6.2198934e-66
6.2192601e-66
6.2191482e-66
6.2191327e-66
6.2191309e-66
6.2191309e-66
6.2191322e-66
6.2191398e-66
6.219173e-66
6.2225629e-66
6.2198934e-66
6.2192601e-66
6.2191482e-66
6.2191327e-66
6.2191309e-66
6.219131e-66
6.2191323e-66
6.2191398e-66
6.219173e-66
6.2225633e-66
6.2198944e-66
6.2192613e-66
6.2191495e-66
6.219134e-66
6.2191322e-66
6.2191323e-66
6.2191336e-66
6.2191411e-66
6.2191743e-66
6.2225655e-66
6.2199005e-66
6.2192686e-66
6.2191571e-66
6.2191416e-66
6.2191398e-66
6.2191398e-66
6.2191411e-66
6.2191487e-66
6.2191819e-66
6.2225746e-66
6.2199291e-66
6.2193011e-66
6.2191902e-66
6.2191748e-66
6.219173e-66
6.219173e-66
6.2191743e-66
6.2191819e-66
6.2192151e-66
9.3319224e-65
9.3280662e-65
9.3271507e-65
9.326989e-65
9.3269665e-65
9.326964e-65
9.3269638e-65
9.3269644e-65
9.3269676e-65
9.3269807e-65
9.3280662e-65
9.3242131e-65
9.3232983e-65
9.3231367e-65
9.3231143e-65
9.3231118e-65
9.3231117e-65
9.3231132e-65
9.3231221e-65
9.323164e-65
9.3271507e-65
9.3232983e-65
9.3223837e-65
9.3222222e-65
9.3221997e-65
9.3221972e-65
9.3221972e-65
9.322199e-65
9.3222098e-65
9.3222573e-65
9.326989e-65
9.3231367e-65
9.3222222e-65
9.3220606e-65
9.3220382e-65
9.3220357e-65
9.3220357e-65
9.3220376e-65
9.3220487e-65
9.3220971e-65
9.3269665e-65
9.3231143e-65
9.3221997e-65
9.3220382e-65
9.3220158e-65
9.3220132e-65
9.3220132e-65
9.3220152e-65
9.3220263e-65
9.3220749e-65
9.326964e-65
9.3231118e-65
9.3221972e-65
9.3220357e-65
9.3220132e-65
9.3220107e-65
9.3220107e-65
9.3220126e-65
9.3220238e-65
9.3220724e-65
9.3269638e-65
9.3231117e-65
9.3221972e-65
9.3220357e-65
9.3220132e-65
9.3220107e-65
9.3220107e-65
9.3220127e-65
9.3220238e-65
9.3220724e-65
9.3269644e-65
9.3231132e-65
9.322199e-65
9.3220376e-65
9.3220152e-65
9.3220126e-65
9.3220127e-65
9.3220146e-65
9.3220257e-65
9.3220743e-65
9.3269676e-65
9.3231221e-65
9.3222098e-65
9.3220487e-65
9.3220263e-65
9.3220238e-65
9.3220238e-65
9.3220257e-65
9.3220368e-65
9.3220854e-65
9.3269807e-65
9.323164e-65
9.3222573e-65
9.3220971e-65
9.3220749e-65
9.3220724e-65
9.3220724e-65
9.3220743e-65
9.3220854e-65