/*--------------------------------*- C++ -*----------------------------------*\
| =========                 |                                                 |
| \\      /  F ield         | OpenFOAM: The Open Source CFD Toolbox           |
|  \\    /   O peration     | Version:  dev                                   |
|   \\  /    A nd           | Web:      www.OpenFOAM.org                      |
|    \\/     M anipulation  |                                                 |
\*---------------------------------------------------------------------------*/
FoamFile
{
    version     2.0;
    format      ascii;
    class       volScalarField;
    location    "6";
    object      A_0;
}
// * * * * * * * * * * * * * * * * * * * * * * * * * * * * * * * * * * * * * //

dimensions      [0 0 0 0 1 0 0];

internalField   nonuniform List<scalar> 
10000
(
3.1709622e-86
3.1684735e-86
3.1678946e-86
3.167793e-86
3.1677789e-86
3.1677773e-86
3.1677772e-86
3.1677775e-86
3.1677793e-86
3.1677897e-86
3.1684735e-86
3.1659879e-86
3.1654096e-86
3.1653081e-86
3.165294e-86
3.1652924e-86
3.1652924e-86
3.1652931e-86
3.1652975e-86
3.1653209e-86
3.1678946e-86
3.1654096e-86
3.1648314e-86
3.16473e-86
3.1647159e-86
3.1647143e-86
3.1647143e-86
3.1647152e-86
3.1647204e-86
3.1647464e-86
3.167793e-86
3.1653081e-86
3.16473e-86
3.1646285e-86
3.1646145e-86
3.1646129e-86
3.1646129e-86
3.1646137e-86
3.1646191e-86
3.1646456e-86
3.1677789e-86
3.165294e-86
3.1647159e-86
3.1646145e-86
3.1646004e-86
3.1645988e-86
3.1645988e-86
3.1645997e-86
3.1646051e-86
3.1646316e-86
3.1677773e-86
3.1652924e-86
3.1647143e-86
3.1646129e-86
3.1645988e-86
3.1645972e-86
3.1645972e-86
3.1645981e-86
3.1646035e-86
3.16463e-86
3.1677772e-86
3.1652924e-86
3.1647143e-86
3.1646129e-86
3.1645988e-86
3.1645972e-86
3.1645972e-86
3.1645981e-86
3.1646035e-86
3.16463e-86
3.1677775e-86
3.1652931e-86
3.1647152e-86
3.1646137e-86
3.1645997e-86
3.1645981e-86
3.1645981e-86
3.164599e-86
3.1646044e-86
3.1646309e-86
3.1677793e-86
3.1652975e-86
3.1647204e-86
3.1646191e-86
3.1646051e-86
3.1646035e-86
3.1646035e-86
3.1646044e-86
3.1646098e-86
3.1646363e-86
3.1677897e-86
3.1653209e-86
3.1647464e-86
3.1646456e-86
3.1646316e-86
3.16463e-86
3.16463e-86
3.1646309e-86
3.1646363e-86
3.1646628e-86
3.2466015e-85
3.2441196e-85
3.2435403e-85
3.2434386e-85
3.2434245e-85
3.2434229e-85
3.2434228e-85
3.2434231e-85
3.2434249e-85
3.2434356e-85
3.2441196e-85
3.2416406e-85
3.2410619e-85
3.2409603e-85
3.2409462e-85
3.2409446e-85
3.2409446e-85
3.2409453e-85
3.2409497e-85
3.2409737e-85
3.2435403e-85
3.2410619e-85
3.2404834e-85
3.2403818e-85
3.2403678e-85
3.2403662e-85
3.2403661e-85
3.240367e-85
3.2403723e-85
3.2403989e-85
3.2434386e-85
3.2409603e-85
3.2403818e-85
3.2402803e-85
3.2402662e-85
3.2402646e-85
3.2402646e-85
3.2402655e-85
3.2402709e-85
3.2402979e-85
3.2434245e-85
3.2409462e-85
3.2403678e-85
3.2402662e-85
3.2402521e-85
3.2402506e-85
3.2402505e-85
3.2402514e-85
3.2402569e-85
3.2402839e-85
3.2434229e-85
3.2409446e-85
3.2403662e-85
3.2402646e-85
3.2402506e-85
3.240249e-85
3.2402489e-85
3.2402498e-85
3.2402553e-85
3.2402824e-85
3.2434228e-85
3.2409446e-85
3.2403661e-85
3.2402646e-85
3.2402505e-85
3.2402489e-85
3.2402489e-85
3.2402498e-85
3.2402553e-85
3.2402823e-85
3.2434231e-85
3.2409453e-85
3.240367e-85
3.2402655e-85
3.2402514e-85
3.2402498e-85
3.2402498e-85
3.2402507e-85
3.2402562e-85
3.2402832e-85
3.2434249e-85
3.2409497e-85
3.2403723e-85
3.2402709e-85
3.2402569e-85
3.2402553e-85
3.2402553e-85
3.2402562e-85
3.2402616e-85
3.2402887e-85
3.2434356e-85
3.2409737e-85
3.2403989e-85
3.2402979e-85
3.2402839e-85
3.2402824e-85
3.2402823e-85
3.2402832e-85
3.2402887e-85
3.2403157e-85
3.0507662e-84
3.0484973e-84
3.0479671e-84
3.047874e-84
3.0478611e-84
3.0478596e-84
3.0478595e-84
3.0478598e-84
3.0478615e-84
3.0478711e-84
3.0484973e-84
3.0462311e-84
3.0457015e-84
3.0456084e-84
3.0455956e-84
3.0455941e-84
3.045594e-84
3.0455947e-84
3.0455988e-84
3.0456207e-84
3.0479671e-84
3.0457015e-84
3.045172e-84
3.045079e-84
3.0450661e-84
3.0450647e-84
3.0450646e-84
3.0450654e-84
3.0450703e-84
3.0450947e-84
3.047874e-84
3.0456084e-84
3.045079e-84
3.044986e-84
3.0449731e-84
3.0449717e-84
3.0449717e-84
3.0449725e-84
3.0449775e-84
3.0450023e-84
3.0478611e-84
3.0455956e-84
3.0450661e-84
3.0449731e-84
3.0449603e-84
3.0449588e-84
3.0449588e-84
3.0449596e-84
3.0449647e-84
3.0449895e-84
3.0478596e-84
3.0455941e-84
3.0450647e-84
3.0449717e-84
3.0449588e-84
3.0449574e-84
3.0449573e-84
3.0449582e-84
3.0449632e-84
3.044988e-84
3.0478595e-84
3.045594e-84
3.0450646e-84
3.0449717e-84
3.0449588e-84
3.0449573e-84
3.0449573e-84
3.0449582e-84
3.0449632e-84
3.044988e-84
3.0478598e-84
3.0455947e-84
3.0450654e-84
3.0449725e-84
3.0449596e-84
3.0449582e-84
3.0449582e-84
3.044959e-84
3.044964e-84
3.0449888e-84
3.0478615e-84
3.0455988e-84
3.0450703e-84
3.0449775e-84
3.0449647e-84
3.0449632e-84
3.0449632e-84
3.044964e-84
3.0449691e-84
3.0449939e-84
3.0478711e-84
3.0456207e-84
3.0450947e-84
3.0450023e-84
3.0449895e-84
3.044988e-84
3.044988e-84
3.0449888e-84
3.0449939e-84
3.0450187e-84
2.9414577e-83
2.9393306e-83
2.938833e-83
2.9387456e-83
2.9387335e-83
2.9387321e-83
2.938732e-83
2.9387323e-83
2.9387338e-83
2.9387427e-83
2.9393306e-83
2.9372059e-83
2.9367089e-83
2.9366216e-83
2.9366095e-83
2.9366081e-83
2.936608e-83
2.9366087e-83
2.9366125e-83
2.9366331e-83
2.938833e-83
2.9367089e-83
2.936212e-83
2.9361247e-83
2.9361126e-83
2.9361112e-83
2.9361112e-83
2.9361119e-83
2.9361165e-83
2.9361394e-83
2.9387456e-83
2.9366216e-83
2.9361247e-83
2.9360374e-83
2.9360253e-83
2.9360239e-83
2.9360239e-83
2.9360247e-83
2.9360294e-83
2.9360527e-83
2.9387335e-83
2.9366095e-83
2.9361126e-83
2.9360253e-83
2.9360132e-83
2.9360118e-83
2.9360118e-83
2.9360126e-83
2.9360174e-83
2.9360406e-83
2.9387321e-83
2.9366081e-83
2.9361112e-83
2.9360239e-83
2.9360118e-83
2.9360104e-83
2.9360104e-83
2.9360112e-83
2.936016e-83
2.9360393e-83
2.938732e-83
2.936608e-83
2.9361112e-83
2.9360239e-83
2.9360118e-83
2.9360104e-83
2.9360104e-83
2.9360112e-83
2.936016e-83
2.9360393e-83
2.9387323e-83
2.9366087e-83
2.9361119e-83
2.9360247e-83
2.9360126e-83
2.9360112e-83
2.9360112e-83
2.936012e-83
2.9360168e-83
2.9360401e-83
2.9387338e-83
2.9366125e-83
2.9361165e-83
2.9360294e-83
2.9360174e-83
2.936016e-83
2.936016e-83
2.9360168e-83
2.9360216e-83
2.9360448e-83
2.9387427e-83
2.9366331e-83
2.9361394e-83
2.9360527e-83
2.9360406e-83
2.9360393e-83
2.9360393e-83
2.9360401e-83
2.9360448e-83
2.9360681e-83
2.9134008e-82
2.9113532e-82
2.9108737e-82
2.9107894e-82
2.9107778e-82
2.9107764e-82
2.9107763e-82
2.9107766e-82
2.9107781e-82
2.9107864e-82
2.9113532e-82
2.9093078e-82
2.9088288e-82
2.9087447e-82
2.908733e-82
2.9087317e-82
2.9087316e-82
2.9087322e-82
2.908736e-82
2.9087558e-82
2.9108737e-82
2.9088288e-82
2.90835e-82
2.9082658e-82
2.9082542e-82
2.9082528e-82
2.9082528e-82
2.9082536e-82
2.9082581e-82
2.9082801e-82
2.9107894e-82
2.9087447e-82
2.9082658e-82
2.9081817e-82
2.90817e-82
2.9081687e-82
2.9081687e-82
2.9081694e-82
2.9081741e-82
2.9081965e-82
2.9107778e-82
2.908733e-82
2.9082542e-82
2.90817e-82
2.9081583e-82
2.908157e-82
2.908157e-82
2.9081578e-82
2.9081624e-82
2.9081849e-82
2.9107764e-82
2.9087317e-82
2.9082528e-82
2.9081687e-82
2.908157e-82
2.9081557e-82
2.9081557e-82
2.9081565e-82
2.9081611e-82
2.9081836e-82
2.9107763e-82
2.9087316e-82
2.9082528e-82
2.9081687e-82
2.908157e-82
2.9081557e-82
2.9081557e-82
2.9081565e-82
2.9081611e-82
2.9081836e-82
2.9107766e-82
2.9087322e-82
2.9082536e-82
2.9081694e-82
2.9081578e-82
2.9081565e-82
2.9081565e-82
2.9081572e-82
2.9081619e-82
2.9081843e-82
2.9107781e-82
2.908736e-82
2.9082581e-82
2.9081741e-82
2.9081624e-82
2.9081611e-82
2.9081611e-82
2.9081619e-82
2.9081665e-82
2.908189e-82
2.9107864e-82
2.9087558e-82
2.9082801e-82
2.9081965e-82
2.9081849e-82
2.9081836e-82
2.9081836e-82
2.9081843e-82
2.908189e-82
2.9082114e-82
2.964172e-81
2.9621481e-81
2.9616737e-81
2.9615903e-81
2.9615787e-81
2.9615774e-81
2.9615773e-81
2.9615776e-81
2.9615791e-81
2.9615871e-81
2.9621481e-81
2.9601264e-81
2.9596525e-81
2.9595692e-81
2.9595576e-81
2.9595563e-81
2.9595563e-81
2.9595569e-81
2.9595607e-81
2.9595802e-81
2.9616737e-81
2.9596525e-81
2.9591787e-81
2.9590954e-81
2.9590839e-81
2.9590826e-81
2.9590826e-81
2.9590833e-81
2.9590878e-81
2.9591096e-81
2.9615903e-81
2.9595692e-81
2.9590954e-81
2.9590121e-81
2.9590006e-81
2.9589993e-81
2.9589993e-81
2.9590001e-81
2.9590047e-81
2.9590269e-81
2.9615787e-81
2.9595576e-81
2.9590839e-81
2.9590006e-81
2.9589891e-81
2.9589877e-81
2.9589877e-81
2.9589885e-81
2.9589932e-81
2.9590154e-81
2.9615774e-81
2.9595563e-81
2.9590826e-81
2.9589993e-81
2.9589877e-81
2.9589864e-81
2.9589864e-81
2.9589872e-81
2.9589919e-81
2.9590141e-81
2.9615773e-81
2.9595563e-81
2.9590826e-81
2.9589993e-81
2.9589877e-81
2.9589864e-81
2.9589864e-81
2.9589872e-81
2.9589918e-81
2.9590141e-81
2.9615776e-81
2.9595569e-81
2.9590833e-81
2.9590001e-81
2.9589885e-81
2.9589872e-81
2.9589872e-81
2.958988e-81
2.9589926e-81
2.9590149e-81
2.9615791e-81
2.9595607e-81
2.9590878e-81
2.9590047e-81
2.9589932e-81
2.9589919e-81
2.9589918e-81
2.9589926e-81
2.9589973e-81
2.9590195e-81
2.9615871e-81
2.9595802e-81
2.9591096e-81
2.9590269e-81
2.9590154e-81
2.9590141e-81
2.9590141e-81
2.9590149e-81
2.9590195e-81
2.9590418e-81
3.0977282e-80
3.0956745e-80
3.0951926e-80
3.0951079e-80
3.0950961e-80
3.0950948e-80
3.0950947e-80
3.095095e-80
3.0950965e-80
3.0951045e-80
3.0956745e-80
3.093623e-80
3.0931416e-80
3.0930569e-80
3.0930452e-80
3.0930439e-80
3.0930438e-80
3.0930444e-80
3.0930483e-80
3.0930682e-80
3.0951926e-80
3.0931416e-80
3.0926603e-80
3.0925757e-80
3.092564e-80
3.0925626e-80
3.0925626e-80
3.0925634e-80
3.092568e-80
3.0925902e-80
3.0951079e-80
3.0930569e-80
3.0925757e-80
3.0924911e-80
3.0924793e-80
3.092478e-80
3.092478e-80
3.0924788e-80
3.0924835e-80
3.0925061e-80
3.0950961e-80
3.0930452e-80
3.092564e-80
3.0924793e-80
3.0924676e-80
3.0924663e-80
3.0924663e-80
3.0924671e-80
3.0924718e-80
3.0924945e-80
3.0950948e-80
3.0930439e-80
3.0925626e-80
3.092478e-80
3.0924663e-80
3.092465e-80
3.0924649e-80
3.0924657e-80
3.0924705e-80
3.0924932e-80
3.0950947e-80
3.0930438e-80
3.0925626e-80
3.092478e-80
3.0924663e-80
3.0924649e-80
3.0924649e-80
3.0924657e-80
3.0924705e-80
3.0924932e-80
3.095095e-80
3.0930444e-80
3.0925634e-80
3.0924788e-80
3.0924671e-80
3.0924657e-80
3.0924657e-80
3.0924665e-80
3.0924713e-80
3.092494e-80
3.0950965e-80
3.0930483e-80
3.092568e-80
3.0924835e-80
3.0924718e-80
3.0924705e-80
3.0924705e-80
3.0924713e-80
3.0924761e-80
3.0924987e-80
3.0951045e-80
3.0930682e-80
3.0925902e-80
3.0925061e-80
3.0924945e-80
3.0924932e-80
3.0924932e-80
3.092494e-80
3.0924987e-80
3.0925214e-80
3.3249595e-79
3.3228201e-79
3.3223177e-79
3.3222293e-79
3.322217e-79
3.3222156e-79
3.3222156e-79
3.3222158e-79
3.3222174e-79
3.3222256e-79
3.3228201e-79
3.320683e-79
3.320181e-79
3.3200927e-79
3.3200805e-79
3.3200791e-79
3.320079e-79
3.3200797e-79
3.3200838e-79
3.3201046e-79
3.3223177e-79
3.320181e-79
3.3196792e-79
3.3195909e-79
3.3195787e-79
3.3195773e-79
3.3195773e-79
3.3195781e-79
3.3195829e-79
3.3196062e-79
3.3222293e-79
3.3200927e-79
3.3195909e-79
3.3195026e-79
3.3194904e-79
3.319489e-79
3.319489e-79
3.3194898e-79
3.3194949e-79
3.3195185e-79
3.322217e-79
3.3200805e-79
3.3195787e-79
3.3194904e-79
3.3194782e-79
3.3194768e-79
3.3194768e-79
3.3194776e-79
3.3194826e-79
3.3195063e-79
3.3222156e-79
3.3200791e-79
3.3195773e-79
3.319489e-79
3.3194768e-79
3.3194754e-79
3.3194754e-79
3.3194762e-79
3.3194813e-79
3.319505e-79
3.3222156e-79
3.320079e-79
3.3195773e-79
3.319489e-79
3.3194768e-79
3.3194754e-79
3.3194754e-79
3.3194762e-79
3.3194813e-79
3.319505e-79
3.3222158e-79
3.3200797e-79
3.3195781e-79
3.3194898e-79
3.3194776e-79
3.3194762e-79
3.3194762e-79
3.3194771e-79
3.3194821e-79
3.3195058e-79
3.3222174e-79
3.3200838e-79
3.3195829e-79
3.3194949e-79
3.3194826e-79
3.3194813e-79
3.3194813e-79
3.3194821e-79
3.3194871e-79
3.3195109e-79
3.3222256e-79
3.3201046e-79
3.3196062e-79
3.3195185e-79
3.3195063e-79
3.319505e-79
3.319505e-79
3.3195058e-79
3.3195109e-79
3.3195346e-79
3.6651689e-78
3.6628812e-78
3.6623434e-78
3.6622488e-78
3.6622357e-78
3.6622342e-78
3.6622341e-78
3.6622344e-78
3.6622361e-78
3.6622447e-78
3.6628812e-78
3.6605959e-78
3.6600587e-78
3.6599642e-78
3.659951e-78
3.6599496e-78
3.6599495e-78
3.6599502e-78
3.6599546e-78
3.6599769e-78
3.6623434e-78
3.6600587e-78
3.6595216e-78
3.6594271e-78
3.659414e-78
3.6594125e-78
3.6594125e-78
3.6594133e-78
3.6594186e-78
3.6594436e-78
3.6622488e-78
3.6599642e-78
3.6594271e-78
3.6593326e-78
3.6593195e-78
3.659318e-78
3.659318e-78
3.6593189e-78
3.6593243e-78
3.6593497e-78
3.6622357e-78
3.659951e-78
3.659414e-78
3.6593195e-78
3.6593064e-78
3.6593049e-78
3.6593049e-78
3.6593058e-78
3.6593112e-78
3.6593367e-78
3.6622342e-78
3.6599496e-78
3.6594125e-78
3.659318e-78
3.6593049e-78
3.6593034e-78
3.6593034e-78
3.6593043e-78
3.6593098e-78
3.6593352e-78
3.6622341e-78
3.6599495e-78
3.6594125e-78
3.659318e-78
3.6593049e-78
3.6593034e-78
3.6593034e-78
3.6593043e-78
3.6593098e-78
3.6593352e-78
3.6622344e-78
3.6599502e-78
3.6594133e-78
3.6593189e-78
3.6593058e-78
3.6593043e-78
3.6593043e-78
3.6593052e-78
3.6593107e-78
3.6593362e-78
3.6622361e-78
3.6599546e-78
3.6594186e-78
3.6593243e-78
3.6593112e-78
3.6593098e-78
3.6593098e-78
3.6593107e-78
3.6593161e-78
3.6593416e-78
3.6622447e-78
3.6599769e-78
3.6594436e-78
3.6593497e-78
3.6593367e-78
3.6593352e-78
3.6593352e-78
3.6593362e-78
3.6593416e-78
3.6593671e-78
4.1488008e-77
4.1462902e-77
4.1456995e-77
4.1455956e-77
4.1455811e-77
4.1455795e-77
4.1455794e-77
4.1455797e-77
4.1455816e-77
4.1455909e-77
4.1462902e-77
4.1437822e-77
4.1431921e-77
4.1430882e-77
4.1430738e-77
4.1430721e-77
4.1430721e-77
4.1430729e-77
4.1430778e-77
4.1431024e-77
4.1456995e-77
4.1431921e-77
4.1426021e-77
4.1424982e-77
4.1424838e-77
4.1424822e-77
4.1424822e-77
4.1424831e-77
4.142489e-77
4.1425166e-77
4.1455956e-77
4.1430882e-77
4.1424982e-77
4.1423944e-77
4.14238e-77
4.1423783e-77
4.1423783e-77
4.1423794e-77
4.1423854e-77
4.1424135e-77
4.1455811e-77
4.1430738e-77
4.1424838e-77
4.14238e-77
4.1423656e-77
4.1423639e-77
4.1423639e-77
4.142365e-77
4.142371e-77
4.1423991e-77
4.1455795e-77
4.1430721e-77
4.1424822e-77
4.1423783e-77
4.1423639e-77
4.1423623e-77
4.1423623e-77
4.1423633e-77
4.1423694e-77
4.1423975e-77
4.1455794e-77
4.1430721e-77
4.1424822e-77
4.1423783e-77
4.1423639e-77
4.1423623e-77
4.1423623e-77
4.1423633e-77
4.1423694e-77
4.1423975e-77
4.1455797e-77
4.1430729e-77
4.1424831e-77
4.1423794e-77
4.142365e-77
4.1423633e-77
4.1423633e-77
4.1423644e-77
4.1423704e-77
4.1423986e-77
4.1455816e-77
4.1430778e-77
4.142489e-77
4.1423854e-77
4.142371e-77
4.1423694e-77
4.1423694e-77
4.1423704e-77
4.1423765e-77
4.1424046e-77
4.1455909e-77
4.1431024e-77
4.1425166e-77
4.1424135e-77
4.1423991e-77
4.1423975e-77
4.1423975e-77
4.1423986e-77
4.1424046e-77
4.1424328e-77
4.8219578e-76
4.8191303e-76
4.8184645e-76
4.8183472e-76
4.818331e-76
4.8183291e-76
4.818329e-76
4.8183294e-76
4.8183315e-76
4.8183419e-76
4.8191303e-76
4.8163056e-76
4.8156404e-76
4.8155233e-76
4.815507e-76
4.8155052e-76
4.8155051e-76
4.8155061e-76
4.8155117e-76
4.8155395e-76
4.8184645e-76
4.8156404e-76
4.8149753e-76
4.8148582e-76
4.814842e-76
4.8148402e-76
4.8148401e-76
4.8148413e-76
4.814848e-76
4.8148792e-76
4.8183472e-76
4.8155233e-76
4.8148582e-76
4.8147412e-76
4.8147249e-76
4.8147231e-76
4.8147231e-76
4.8147242e-76
4.8147311e-76
4.814763e-76
4.818331e-76
4.815507e-76
4.814842e-76
4.8147249e-76
4.8147087e-76
4.8147068e-76
4.8147068e-76
4.814708e-76
4.8147149e-76
4.8147468e-76
4.8183291e-76
4.8155052e-76
4.8148402e-76
4.8147231e-76
4.8147068e-76
4.814705e-76
4.814705e-76
4.8147062e-76
4.8147131e-76
4.814745e-76
4.818329e-76
4.8155051e-76
4.8148401e-76
4.8147231e-76
4.8147068e-76
4.814705e-76
4.814705e-76
4.8147062e-76
4.8147131e-76
4.814745e-76
4.8183294e-76
4.8155061e-76
4.8148413e-76
4.8147242e-76
4.814708e-76
4.8147062e-76
4.8147062e-76
4.8147073e-76
4.8147143e-76
4.8147462e-76
4.8183315e-76
4.8155117e-76
4.814848e-76
4.8147311e-76
4.8147149e-76
4.8147131e-76
4.8147131e-76
4.8147143e-76
4.8147212e-76
4.8147531e-76
4.8183419e-76
4.8155395e-76
4.8148792e-76
4.814763e-76
4.8147468e-76
4.814745e-76
4.814745e-76
4.8147462e-76
4.8147531e-76
4.814785e-76
5.753636e-75
5.7503686e-75
5.7495985e-75
5.7494629e-75
5.7494441e-75
5.7494419e-75
5.7494418e-75
5.7494422e-75
5.7494447e-75
5.7494565e-75
5.7503686e-75
5.7471044e-75
5.746335e-75
5.7461995e-75
5.7461807e-75
5.7461785e-75
5.7461785e-75
5.7461796e-75
5.7461861e-75
5.7462185e-75
5.7495985e-75
5.746335e-75
5.7455657e-75
5.7454303e-75
5.7454115e-75
5.7454094e-75
5.7454094e-75
5.7454107e-75
5.7454185e-75
5.7454549e-75
5.7494629e-75
5.7461995e-75
5.7454303e-75
5.7452948e-75
5.745276e-75
5.7452739e-75
5.7452739e-75
5.7452753e-75
5.7452834e-75
5.7453204e-75
5.7494441e-75
5.7461807e-75
5.7454115e-75
5.745276e-75
5.7452573e-75
5.7452551e-75
5.7452551e-75
5.7452565e-75
5.7452646e-75
5.7453018e-75
5.7494419e-75
5.7461785e-75
5.7454094e-75
5.7452739e-75
5.7452551e-75
5.745253e-75
5.745253e-75
5.7452544e-75
5.7452625e-75
5.7452997e-75
5.7494418e-75
5.7461785e-75
5.7454094e-75
5.7452739e-75
5.7452551e-75
5.745253e-75
5.745253e-75
5.7452544e-75
5.7452625e-75
5.7452996e-75
5.7494422e-75
5.7461796e-75
5.7454107e-75
5.7452753e-75
5.7452565e-75
5.7452544e-75
5.7452544e-75
5.7452558e-75
5.7452639e-75
5.745301e-75
5.7494447e-75
5.7461861e-75
5.7454185e-75
5.7452834e-75
5.7452646e-75
5.7452625e-75
5.7452625e-75
5.7452639e-75
5.745272e-75
5.7453091e-75
5.7494565e-75
5.7462185e-75
5.7454549e-75
5.7453204e-75
5.7453018e-75
5.7452997e-75
5.7452996e-75
5.745301e-75
5.7453091e-75
5.7453463e-75
7.0472555e-74
7.0433818e-74
7.0424681e-74
7.0423072e-74
7.0422848e-74
7.0422823e-74
7.0422821e-74
7.0422826e-74
7.0422856e-74
7.0422994e-74
7.0433818e-74
7.0395119e-74
7.038599e-74
7.0384382e-74
7.0384159e-74
7.0384134e-74
7.0384133e-74
7.0384146e-74
7.0384225e-74
7.0384611e-74
7.0424681e-74
7.038599e-74
7.0376863e-74
7.0375256e-74
7.0375033e-74
7.0375008e-74
7.0375007e-74
7.0375023e-74
7.0375117e-74
7.0375553e-74
7.0423072e-74
7.0384382e-74
7.0375256e-74
7.0373648e-74
7.0373425e-74
7.03734e-74
7.03734e-74
7.0373416e-74
7.0373514e-74
7.0373956e-74
7.0422848e-74
7.0384159e-74
7.0375033e-74
7.0373425e-74
7.0373202e-74
7.0373177e-74
7.0373177e-74
7.0373193e-74
7.0373291e-74
7.0373735e-74
7.0422823e-74
7.0384134e-74
7.0375008e-74
7.03734e-74
7.0373177e-74
7.0373152e-74
7.0373152e-74
7.0373168e-74
7.0373266e-74
7.037371e-74
7.0422821e-74
7.0384133e-74
7.0375007e-74
7.03734e-74
7.0373177e-74
7.0373152e-74
7.0373151e-74
7.0373168e-74
7.0373266e-74
7.037371e-74
7.0422826e-74
7.0384146e-74
7.0375023e-74
7.0373416e-74
7.0373193e-74
7.0373168e-74
7.0373168e-74
7.0373185e-74
7.0373283e-74
7.0373727e-74
7.0422856e-74
7.0384225e-74
7.0375117e-74
7.0373514e-74
7.0373291e-74
7.0373266e-74
7.0373266e-74
7.0373283e-74
7.037338e-74
7.0373824e-74
7.0422994e-74
7.0384611e-74
7.0375553e-74
7.0373956e-74
7.0373735e-74
7.037371e-74
7.037371e-74
7.0373727e-74
7.0373824e-74
7.0374268e-74
8.8591326e-73
8.8544221e-73
8.8533101e-73
8.8531141e-73
8.8530869e-73
8.8530839e-73
8.8530837e-73
8.8530843e-73
8.8530879e-73
8.8531046e-73
8.8544221e-73
8.8497161e-73
8.848605e-73
8.8484092e-73
8.8483821e-73
8.848379e-73
8.8483789e-73
8.8483805e-73
8.8483902e-73
8.8484376e-73
8.8533101e-73
8.848605e-73
8.8474942e-73
8.8472985e-73
8.8472714e-73
8.8472683e-73
8.8472683e-73
8.8472702e-73
8.8472819e-73
8.8473353e-73
8.8531141e-73
8.8484092e-73
8.8472985e-73
8.8471028e-73
8.8470756e-73
8.8470726e-73
8.8470726e-73
8.8470746e-73
8.8470866e-73
8.847141e-73
8.8530869e-73
8.8483821e-73
8.8472714e-73
8.8470756e-73
8.8470485e-73
8.8470454e-73
8.8470454e-73
8.8470475e-73
8.8470595e-73
8.847114e-73
8.8530839e-73
8.848379e-73
8.8472683e-73
8.8470726e-73
8.8470454e-73
8.8470424e-73
8.8470424e-73
8.8470444e-73
8.8470565e-73
8.847111e-73
8.8530837e-73
8.8483789e-73
8.8472683e-73
8.8470726e-73
8.8470454e-73
8.8470424e-73
8.8470424e-73
8.8470444e-73
8.8470565e-73
8.847111e-73
8.8530843e-73
8.8483805e-73
8.8472702e-73
8.8470746e-73
8.8470475e-73
8.8470444e-73
8.8470444e-73
8.8470465e-73
8.8470585e-73
8.847113e-73
8.8530879e-73
8.8483902e-73
8.8472819e-73
8.8470866e-73
8.8470595e-73
8.8470565e-73
8.8470565e-73
8.8470585e-73
8.8470706e-73
8.8471251e-73
8.8531046e-73
8.8484376e-73
8.8473353e-73
8.847141e-73
8.847114e-73
8.847111e-73
8.847111e-73
8.847113e-73
8.8471251e-73
8.8471796e-73
1.142839e-71
1.1422516e-71
1.1421128e-71
1.1420883e-71
1.1420849e-71
1.1420846e-71
1.1420845e-71
1.1420846e-71
1.1420851e-71
1.1420871e-71
1.1422516e-71
1.1416647e-71
1.141526e-71
1.1415016e-71
1.1414982e-71
1.1414978e-71
1.1414978e-71
1.141498e-71
1.1414992e-71
1.1415052e-71
1.1421128e-71
1.141526e-71
1.1413874e-71
1.1413629e-71
1.1413596e-71
1.1413592e-71
1.1413592e-71
1.1413594e-71
1.1413609e-71
1.1413676e-71
1.1420883e-71
1.1415016e-71
1.1413629e-71
1.1413385e-71
1.1413351e-71
1.1413347e-71
1.1413347e-71
1.141335e-71
1.1413365e-71
1.1413434e-71
1.1420849e-71
1.1414982e-71
1.1413596e-71
1.1413351e-71
1.1413317e-71
1.1413313e-71
1.1413313e-71
1.1413316e-71
1.1413331e-71
1.14134e-71
1.1420846e-71
1.1414978e-71
1.1413592e-71
1.1413347e-71
1.1413313e-71
1.141331e-71
1.141331e-71
1.1413312e-71
1.1413328e-71
1.1413396e-71
1.1420845e-71
1.1414978e-71
1.1413592e-71
1.1413347e-71
1.1413313e-71
1.141331e-71
1.141331e-71
1.1413312e-71
1.1413328e-71
1.1413396e-71
1.1420846e-71
1.141498e-71
1.1413594e-71
1.141335e-71
1.1413316e-71
1.1413312e-71
1.1413312e-71
1.1413315e-71
1.141333e-71
1.1413399e-71
1.1420851e-71
1.1414992e-71
1.1413609e-71
1.1413365e-71
1.1413331e-71
1.1413328e-71
1.1413328e-71
1.141333e-71
1.1413345e-71
1.1413414e-71
1.1420871e-71
1.1415052e-71
1.1413676e-71
1.1413434e-71
1.14134e-71
1.1413396e-71
1.1413396e-71
1.1413399e-71
1.1413414e-71
1.1413483e-71
1.5126024e-70
1.5118512e-70
1.5116736e-70
1.5116423e-70
1.511638e-70
1.5116375e-70
1.5116375e-70
1.5116376e-70
1.5116382e-70
1.5116408e-70
1.5118512e-70
1.5111007e-70
1.5109233e-70
1.510892e-70
1.5108877e-70
1.5108872e-70
1.5108872e-70
1.5108874e-70
1.510889e-70
1.5108967e-70
1.5116736e-70
1.5109233e-70
1.5107459e-70
1.5107146e-70
1.5107103e-70
1.5107098e-70
1.5107098e-70
1.5107101e-70
1.510712e-70
1.5107207e-70
1.5116423e-70
1.510892e-70
1.5107146e-70
1.5106833e-70
1.510679e-70
1.5106785e-70
1.5106785e-70
1.5106788e-70
1.5106808e-70
1.5106897e-70
1.511638e-70
1.5108877e-70
1.5107103e-70
1.510679e-70
1.5106746e-70
1.5106742e-70
1.5106742e-70
1.5106745e-70
1.5106765e-70
1.5106854e-70
1.5116375e-70
1.5108872e-70
1.5107098e-70
1.5106785e-70
1.5106742e-70
1.5106737e-70
1.5106737e-70
1.510674e-70
1.510676e-70
1.5106849e-70
1.5116375e-70
1.5108872e-70
1.5107098e-70
1.5106785e-70
1.5106742e-70
1.5106737e-70
1.5106737e-70
1.510674e-70
1.510676e-70
1.5106849e-70
1.5116376e-70
1.5108874e-70
1.5107101e-70
1.5106788e-70
1.5106745e-70
1.510674e-70
1.510674e-70
1.5106744e-70
1.5106763e-70
1.5106852e-70
1.5116382e-70
1.510889e-70
1.510712e-70
1.5106808e-70
1.5106765e-70
1.510676e-70
1.510676e-70
1.5106763e-70
1.5106783e-70
1.5106872e-70
1.5116408e-70
1.5108967e-70
1.5107207e-70
1.5106897e-70
1.5106854e-70
1.5106849e-70
1.5106849e-70
1.5106852e-70
1.5106872e-70
1.5106961e-70
2.0536547e-69
2.05267e-69
2.052437e-69
2.0523959e-69
2.0523902e-69
2.0523896e-69
2.0523895e-69
2.0523897e-69
2.0523904e-69
2.0523938e-69
2.05267e-69
2.0516862e-69
2.0514534e-69
2.0514123e-69
2.0514066e-69
2.051406e-69
2.051406e-69
2.0514063e-69
2.0514085e-69
2.0514186e-69
2.052437e-69
2.0514534e-69
2.0512206e-69
2.0511796e-69
2.0511739e-69
2.0511733e-69
2.0511733e-69
2.0511737e-69
2.0511763e-69
2.0511878e-69
2.0523959e-69
2.0514123e-69
2.0511796e-69
2.0511386e-69
2.0511329e-69
2.0511322e-69
2.0511322e-69
2.0511327e-69
2.0511353e-69
2.051147e-69
2.0523902e-69
2.0514066e-69
2.0511739e-69
2.0511329e-69
2.0511272e-69
2.0511265e-69
2.0511265e-69
2.051127e-69
2.0511296e-69
2.0511414e-69
2.0523896e-69
2.051406e-69
2.0511733e-69
2.0511322e-69
2.0511265e-69
2.0511259e-69
2.0511259e-69
2.0511264e-69
2.051129e-69
2.0511408e-69
2.0523895e-69
2.051406e-69
2.0511733e-69
2.0511322e-69
2.0511265e-69
2.0511259e-69
2.0511259e-69
2.0511264e-69
2.051129e-69
2.0511408e-69
2.0523897e-69
2.0514063e-69
2.0511737e-69
2.0511327e-69
2.051127e-69
2.0511264e-69
2.0511264e-69
2.0511268e-69
2.0511295e-69
2.0511412e-69
2.0523904e-69
2.0514085e-69
2.0511763e-69
2.0511353e-69
2.0511296e-69
2.051129e-69
2.051129e-69
2.0511295e-69
2.0511321e-69
2.0511439e-69
2.0523938e-69
2.0514186e-69
2.0511878e-69
2.051147e-69
2.0511414e-69
2.0511408e-69
2.0511408e-69
2.0511412e-69
2.0511439e-69
2.0511556e-69
2.8595889e-68
2.858266e-68
2.8579528e-68
2.8578976e-68
2.8578899e-68
2.857889e-68
2.857889e-68
2.8578892e-68
2.8578902e-68
2.8578948e-68
2.858266e-68
2.8569443e-68
2.8566313e-68
2.8565761e-68
2.8565685e-68
2.8565676e-68
2.8565676e-68
2.8565681e-68
2.856571e-68
2.8565848e-68
2.8579528e-68
2.8566313e-68
2.8563184e-68
2.8562632e-68
2.8562556e-68
2.8562547e-68
2.8562547e-68
2.8562553e-68
2.8562588e-68
2.8562745e-68
2.8578976e-68
2.8565761e-68
2.8562632e-68
2.8562081e-68
2.8562004e-68
2.8561995e-68
2.8561995e-68
2.8562002e-68
2.8562037e-68
2.8562197e-68
2.8578899e-68
2.8565685e-68
2.8562556e-68
2.8562004e-68
2.8561927e-68
2.8561919e-68
2.8561919e-68
2.8561925e-68
2.8561961e-68
2.8562121e-68
2.857889e-68
2.8565676e-68
2.8562547e-68
2.8561995e-68
2.8561919e-68
2.856191e-68
2.856191e-68
2.8561916e-68
2.8561952e-68
2.8562112e-68
2.857889e-68
2.8565676e-68
2.8562547e-68
2.8561995e-68
2.8561919e-68
2.856191e-68
2.856191e-68
2.8561916e-68
2.8561953e-68
2.8562112e-68
2.8578892e-68
2.8565681e-68
2.8562553e-68
2.8562002e-68
2.8561925e-68
2.8561916e-68
2.8561916e-68
2.8561923e-68
2.8561959e-68
2.8562119e-68
2.8578902e-68
2.856571e-68
2.8562588e-68
2.8562037e-68
2.8561961e-68
2.8561952e-68
2.8561953e-68
2.8561959e-68
2.8561995e-68
2.8562155e-68
2.8578948e-68
2.8565848e-68
2.8562745e-68
2.8562197e-68
2.8562121e-68
2.8562112e-68
2.8562112e-68
2.8562119e-68
2.8562155e-68
2.8562315e-68
4.082794e-67
4.0809729e-67
4.0805414e-67
4.0804653e-67
4.0804547e-67
4.0804535e-67
4.0804535e-67
4.0804537e-67
4.0804552e-67
4.0804614e-67
4.0809729e-67
4.0791534e-67
4.0787223e-67
4.0786462e-67
4.0786356e-67
4.0786345e-67
4.0786344e-67
4.0786351e-67
4.0786392e-67
4.0786584e-67
4.0805414e-67
4.0787223e-67
4.0782912e-67
4.0782152e-67
4.0782046e-67
4.0782034e-67
4.0782034e-67
4.0782043e-67
4.0782091e-67
4.078231e-67
4.0804653e-67
4.0786462e-67
4.0782152e-67
4.0781391e-67
4.0781286e-67
4.0781274e-67
4.0781274e-67
4.0781283e-67
4.0781333e-67
4.0781555e-67
4.0804547e-67
4.0786356e-67
4.0782046e-67
4.0781286e-67
4.078118e-67
4.0781168e-67
4.0781168e-67
4.0781177e-67
4.0781228e-67
4.0781451e-67
4.0804535e-67
4.0786345e-67
4.0782034e-67
4.0781274e-67
4.0781168e-67
4.0781156e-67
4.0781157e-67
4.0781165e-67
4.0781216e-67
4.0781439e-67
4.0804535e-67
4.0786344e-67
4.0782034e-67
4.0781274e-67
4.0781168e-67
4.0781157e-67
4.0781157e-67
4.0781165e-67
4.0781216e-67
4.0781439e-67
4.0804537e-67
4.0786351e-67
4.0782043e-67
4.0781283e-67
4.0781177e-67
4.0781165e-67
4.0781165e-67
4.0781174e-67
4.0781225e-67
4.0781448e-67
4.0804552e-67
4.0786392e-67
4.0782091e-67
4.0781333e-67
4.0781228e-67
4.0781216e-67
4.0781216e-67
4.0781225e-67
4.0781275e-67
4.0781498e-67
4.0804614e-67
4.0786584e-67
4.078231e-67
4.0781555e-67
4.0781451e-67
4.0781439e-67
4.0781439e-67
4.0781448e-67
4.0781498e-67
4.0781721e-67
5.9756649e-66
5.973097e-66
5.9724881e-66
5.9723807e-66
5.9723658e-66
5.9723641e-66
5.972364e-66
5.9723643e-66
5.9723664e-66
5.9723752e-66
5.973097e-66
5.9705312e-66
5.9699228e-66
5.9698154e-66
5.9698005e-66
5.9697989e-66
5.9697988e-66
5.9697998e-66
5.9698056e-66
5.9698331e-66
5.9724881e-66
5.9699228e-66
5.9693145e-66
5.9692072e-66
5.9691923e-66
5.9691906e-66
5.9691906e-66
5.9691918e-66
5.9691988e-66
5.96923e-66
5.9723807e-66
5.9698154e-66
5.9692072e-66
5.9690999e-66
5.969085e-66
5.9690833e-66
5.9690833e-66
5.9690846e-66
5.9690918e-66
5.9691236e-66
5.9723658e-66
5.9698005e-66
5.9691923e-66
5.969085e-66
5.9690701e-66
5.9690684e-66
5.9690684e-66
5.9690697e-66
5.9690769e-66
5.9691088e-66
5.9723641e-66
5.9697989e-66
5.9691906e-66
5.9690833e-66
5.9690684e-66
5.9690667e-66
5.9690667e-66
5.969068e-66
5.9690753e-66
5.9691071e-66
5.972364e-66
5.9697988e-66
5.9691906e-66
5.9690833e-66
5.9690684e-66
5.9690667e-66
5.9690668e-66
5.969068e-66
5.9690753e-66
5.9691072e-66
5.9723643e-66
5.9697998e-66
5.9691918e-66
5.9690846e-66
5.9690697e-66
5.969068e-66
5.969068e-66
5.9690693e-66
5.9690765e-66
5.9691084e-66
5.9723664e-66
5.9698056e-66
5.9691988e-66
5.9690918e-66
5.9690769e-66
5.9690753e-66
5.9690753e-66
5.9690765e-66
5.9690838e-66
5.9691157e-66
5.9723752e-66
5.9698331e-66
5.96923e-66
5.9691236e-66
5.9691088e-66
5.9691071e-66
5.9691072e-66
5.9691084e-66
5.9691157e-66
5.9691475e-66
8.9635502e-65
8.9598419e-65
8.958962e-65
8.9588068e-65
8.9587852e-65
8.9587828e-65
8.9587826e-65
8.9587832e-65
8.9587862e-65
8.9587988e-65
8.9598419e-65
8.9561366e-65
8.9552574e-65
8.9551023e-65
8.9550807e-65
8.9550783e-65
8.9550783e-65
8.9550797e-65
8.9550883e-65
8.9551285e-65
8.958962e-65
8.9552574e-65
8.9543785e-65
8.9542233e-65
8.9542018e-65
8.9541994e-65
8.9541994e-65
8.9542012e-65
8.9542114e-65
8.9542571e-65
8.9588068e-65
8.9551023e-65
8.9542233e-65
8.9540682e-65
8.9540467e-65
8.9540443e-65
8.9540443e-65
8.9540461e-65
8.9540567e-65
8.9541033e-65
8.9587852e-65
8.9550807e-65
8.9542018e-65
8.9540467e-65
8.9540252e-65
8.9540227e-65
8.9540228e-65
8.9540246e-65
8.9540353e-65
8.9540819e-65
8.9587828e-65
8.9550783e-65
8.9541994e-65
8.9540443e-65
8.9540227e-65
8.9540203e-65
8.9540203e-65
8.9540222e-65
8.9540328e-65
8.9540795e-65
8.9587826e-65
8.9550783e-65
8.9541994e-65
8.9540443e-65
8.9540228e-65
8.9540203e-65
8.9540203e-65
8.9540222e-65
8.9540329e-65
8.9540796e-65
8.9587832e-65
8.9550797e-65
8.9542012e-65
8.9540461e-65
8.9540246e-65
8.9540222e-65
8.9540222e-65
8.954024e-65
8.9540347e-65
8.9540814e-65
8.9587862e-65
8.9550883e-65
8.9542114e-65
8.9540567e-65
8.9540353e-65
8.9540328e-65
8.9540329e-65
8.9540347e-65
8.9540454e-65
8.9540921e-65
8.9587988e-65
8.9551285e-65
8.9542571e-65
8.9541033e-65
8.9540819e-65
8.9540795e-65
8.9540796e-65
8.9540814e-65
8.9540921e-65
8.9541388e-65