/*--------------------------------*- C++ -*----------------------------------*\
| =========                 |                                                 |
| \\      /  F ield         | OpenFOAM: The Open Source CFD Toolbox           |
|  \\    /   O peration     | Version:  dev                                   |
|   \\  /    A nd           | Web:      www.OpenFOAM.org                      |
|    \\/     M anipulation  |                                                 |
\*---------------------------------------------------------------------------*/
FoamFile
{
    version     2.0;
    format      ascii;
    class       volScalarField;
    location    "98.995";
    object      A;
}
// * * * * * * * * * * * * * * * * * * * * * * * * * * * * * * * * * * * * * //

dimensions      [0 0 0 0 1 0 0];

internalField   nonuniform List<scalar> 
10000
(
4.8314534e-21
4.8276791e-21
4.8255494e-21
4.8242841e-21
4.8235609e-21
4.8231988e-21
4.8231032e-21
4.8232527e-21
4.8237087e-21
4.8245915e-21
4.8276791e-21
4.8239187e-21
4.8217939e-21
4.8205311e-21
4.8198099e-21
4.8194503e-21
4.8193591e-21
4.8195183e-21
4.8199986e-21
4.8209501e-21
4.8255494e-21
4.8217939e-21
4.8196724e-21
4.8184121e-21
4.8176933e-21
4.8173371e-21
4.8172516e-21
4.8174207e-21
4.8179182e-21
4.8188937e-21
4.8242841e-21
4.8205311e-21
4.8184121e-21
4.8171543e-21
4.8164381e-21
4.8160852e-21
4.8160046e-21
4.816181e-21
4.8166884e-21
4.8176734e-21
4.8235609e-21
4.8198099e-21
4.8176933e-21
4.8164381e-21
4.8157245e-21
4.8153747e-21
4.8152979e-21
4.8154792e-21
4.815992e-21
4.8169811e-21
4.8231988e-21
4.8194503e-21
4.8173371e-21
4.8160852e-21
4.8153747e-21
4.8150277e-21
4.8149538e-21
4.8151382e-21
4.815654e-21
4.8166451e-21
4.8231032e-21
4.8193591e-21
4.8172516e-21
4.8160046e-21
4.8152979e-21
4.8149538e-21
4.8148823e-21
4.8150688e-21
4.8155864e-21
4.8165787e-21
4.8232527e-21
4.8195183e-21
4.8174207e-21
4.816181e-21
4.8154792e-21
4.8151382e-21
4.8150688e-21
4.8152569e-21
4.8157758e-21
4.8167689e-21
4.8237087e-21
4.8199986e-21
4.8179182e-21
4.8166884e-21
4.815992e-21
4.815654e-21
4.8155864e-21
4.8157758e-21
4.8162957e-21
4.81729e-21
4.8245915e-21
4.8209501e-21
4.8188937e-21
4.8176734e-21
4.8169811e-21
4.8166451e-21
4.8165787e-21
4.8167689e-21
4.81729e-21
4.818287e-21
1.5703397e-20
1.5691615e-20
1.5684762e-20
1.5680681e-20
1.5678346e-20
1.5677176e-20
1.5676866e-20
1.5677346e-20
1.5678817e-20
1.5681762e-20
1.5691615e-20
1.5679876e-20
1.5673038e-20
1.5668965e-20
1.5666636e-20
1.5665474e-20
1.5665179e-20
1.5665691e-20
1.566724e-20
1.5670409e-20
1.5684762e-20
1.5673038e-20
1.5666211e-20
1.5662146e-20
1.5659825e-20
1.5658675e-20
1.5658397e-20
1.5658941e-20
1.5660546e-20
1.5663794e-20
1.5680681e-20
1.5668965e-20
1.5662146e-20
1.5658088e-20
1.5655776e-20
1.5654636e-20
1.5654375e-20
1.5654942e-20
1.5656579e-20
1.5659858e-20
1.5678346e-20
1.5666636e-20
1.5659825e-20
1.5655776e-20
1.5653472e-20
1.5652342e-20
1.5652094e-20
1.5652677e-20
1.5654331e-20
1.5657623e-20
1.5677176e-20
1.5665474e-20
1.5658675e-20
1.5654636e-20
1.5652342e-20
1.5651222e-20
1.5650982e-20
1.5651575e-20
1.565324e-20
1.5656538e-20
1.5676866e-20
1.5665179e-20
1.5658397e-20
1.5654375e-20
1.5652094e-20
1.5650982e-20
1.565075e-20
1.5651351e-20
1.5653021e-20
1.5656322e-20
1.5677346e-20
1.5665691e-20
1.5658941e-20
1.5654942e-20
1.5652677e-20
1.5651575e-20
1.5651351e-20
1.5651956e-20
1.565363e-20
1.5656935e-20
1.5678817e-20
1.566724e-20
1.5660546e-20
1.5656579e-20
1.5654331e-20
1.565324e-20
1.5653021e-20
1.565363e-20
1.5655308e-20
1.5658616e-20
1.5681762e-20
1.5670409e-20
1.5663794e-20
1.5659858e-20
1.5657623e-20
1.5656538e-20
1.5656322e-20
1.5656935e-20
1.5658616e-20
1.5661934e-20
3.0561642e-20
3.0539489e-20
3.0526386e-20
3.0518556e-20
3.0514071e-20
3.0511821e-20
3.0511222e-20
3.0512135e-20
3.0514946e-20
3.0520763e-20
3.0539489e-20
3.0517415e-20
3.0504341e-20
3.0496526e-20
3.0492053e-20
3.0489819e-20
3.0489247e-20
3.0490221e-20
3.0493185e-20
3.0499439e-20
3.0526386e-20
3.0504341e-20
3.0491287e-20
3.0483488e-20
3.047903e-20
3.0476817e-20
3.047628e-20
3.0477317e-20
3.0480389e-20
3.0486794e-20
3.0518556e-20
3.0496526e-20
3.0483488e-20
3.0475703e-20
3.0471262e-20
3.046907e-20
3.0468564e-20
3.0469647e-20
3.0472781e-20
3.0479246e-20
3.0514071e-20
3.0492053e-20
3.047903e-20
3.0471262e-20
3.0466837e-20
3.0464664e-20
3.0464182e-20
3.0465295e-20
3.0468463e-20
3.0474954e-20
3.0511821e-20
3.0489819e-20
3.0476817e-20
3.046907e-20
3.0464664e-20
3.0462509e-20
3.0462045e-20
3.0463177e-20
3.0466365e-20
3.0472868e-20
3.0511222e-20
3.0489247e-20
3.047628e-20
3.0468564e-20
3.0464182e-20
3.0462045e-20
3.0461597e-20
3.0462742e-20
3.0465941e-20
3.0472451e-20
3.0512135e-20
3.0490221e-20
3.0477317e-20
3.0469647e-20
3.0465295e-20
3.0463177e-20
3.0462742e-20
3.0463898e-20
3.0467104e-20
3.047362e-20
3.0514946e-20
3.0493185e-20
3.0480389e-20
3.0472781e-20
3.0468463e-20
3.0466365e-20
3.0465941e-20
3.0467104e-20
3.0470317e-20
3.047684e-20
3.0520763e-20
3.0499439e-20
3.0486794e-20
3.0479246e-20
3.0474954e-20
3.0472868e-20
3.0472451e-20
3.047362e-20
3.047684e-20
3.0483382e-20
5.3329582e-20
5.329222e-20
5.3269878e-20
5.3256481e-20
5.3248793e-20
5.324493e-20
5.3243892e-20
5.3245435e-20
5.3250207e-20
5.3260218e-20
5.329222e-20
5.3254987e-20
5.3232695e-20
5.3219324e-20
5.3211656e-20
5.320782e-20
5.320683e-20
5.3208478e-20
5.3213517e-20
5.3224286e-20
5.3269878e-20
5.3232695e-20
5.3210437e-20
5.3197092e-20
5.3189451e-20
5.3185652e-20
5.3184723e-20
5.318648e-20
5.3191706e-20
5.3202738e-20
5.3256481e-20
5.3219324e-20
5.3197092e-20
5.3183773e-20
5.317616e-20
5.3172397e-20
5.3171522e-20
5.3173358e-20
5.3178692e-20
5.3189827e-20
5.3248793e-20
5.3211656e-20
5.3189451e-20
5.317616e-20
5.3168575e-20
5.3164845e-20
5.3164011e-20
5.31659e-20
5.3171293e-20
5.3182473e-20
5.324493e-20
5.320782e-20
5.3185652e-20
5.3172397e-20
5.3164845e-20
5.3161146e-20
5.3160344e-20
5.3162267e-20
5.3167692e-20
5.3178894e-20
5.3243892e-20
5.320683e-20
5.3184723e-20
5.3171522e-20
5.3164011e-20
5.3160344e-20
5.3159567e-20
5.3161513e-20
5.3166958e-20
5.3178172e-20
5.3245435e-20
5.3208478e-20
5.318648e-20
5.3173358e-20
5.31659e-20
5.3162267e-20
5.3161513e-20
5.3163477e-20
5.3168935e-20
5.3180158e-20
5.3250207e-20
5.3213517e-20
5.3191706e-20
5.3178692e-20
5.3171293e-20
5.3167692e-20
5.3166958e-20
5.3168935e-20
5.3174405e-20
5.3185641e-20
5.3260218e-20
5.3224286e-20
5.3202738e-20
5.3189827e-20
5.3182473e-20
5.3178894e-20
5.3178172e-20
5.3180158e-20
5.3185641e-20
5.3196911e-20
9.0337234e-20
9.0276079e-20
9.023923e-20
9.0217056e-20
9.0204304e-20
9.0197886e-20
9.0196145e-20
9.0198659e-20
9.0206465e-20
9.0222886e-20
9.0276079e-20
9.0215135e-20
9.0178366e-20
9.0156234e-20
9.0143516e-20
9.0137143e-20
9.0135483e-20
9.0138175e-20
9.0146429e-20
9.0164131e-20
9.023923e-20
9.0178366e-20
9.0141654e-20
9.0119566e-20
9.0106892e-20
9.010058e-20
9.0099022e-20
9.0101897e-20
9.0110467e-20
9.0128611e-20
9.0217056e-20
9.0156234e-20
9.0119566e-20
9.009752e-20
9.0084893e-20
9.0078642e-20
9.0077174e-20
9.0080183e-20
9.0088934e-20
9.0107252e-20
9.0204304e-20
9.0143516e-20
9.0106892e-20
9.0084893e-20
9.0072315e-20
9.0066119e-20
9.006472e-20
9.0067818e-20
9.0076668e-20
9.0095061e-20
9.0197886e-20
9.0137143e-20
9.010058e-20
9.0078642e-20
9.0066119e-20
9.0059975e-20
9.0058629e-20
9.0061783e-20
9.0070688e-20
9.0089118e-20
9.0196145e-20
9.0135483e-20
9.0099022e-20
9.0077174e-20
9.006472e-20
9.0058629e-20
9.0057327e-20
9.006052e-20
9.0069458e-20
9.0087908e-20
9.0198659e-20
9.0138175e-20
9.0101897e-20
9.0080183e-20
9.0067818e-20
9.0061783e-20
9.006052e-20
9.0063741e-20
9.0072702e-20
9.0091167e-20
9.0206465e-20
9.0146429e-20
9.0110467e-20
9.0088934e-20
9.0076668e-20
9.0070688e-20
9.0069458e-20
9.0072702e-20
9.0081682e-20
9.0100169e-20
9.0222886e-20
9.0164131e-20
9.0128611e-20
9.0107252e-20
9.0095061e-20
9.0089118e-20
9.0087908e-20
9.0091167e-20
9.0100169e-20
9.011871e-20
1.5229286e-19
1.5219328e-19
1.5213292e-19
1.5209648e-19
1.5207547e-19
1.5206488e-19
1.5206198e-19
1.5206604e-19
1.5207869e-19
1.5210522e-19
1.5219328e-19
1.5209405e-19
1.5203382e-19
1.5199744e-19
1.5197649e-19
1.5196597e-19
1.5196321e-19
1.5196756e-19
1.5198096e-19
1.5200965e-19
1.5213292e-19
1.5203382e-19
1.5197368e-19
1.5193737e-19
1.519165e-19
1.5190608e-19
1.5190349e-19
1.5190815e-19
1.5192208e-19
1.5195151e-19
1.5209648e-19
1.5199744e-19
1.5193737e-19
1.5190114e-19
1.5188034e-19
1.5187003e-19
1.5186758e-19
1.5187247e-19
1.518867e-19
1.5191642e-19
1.5207547e-19
1.5197649e-19
1.519165e-19
1.5188034e-19
1.5185963e-19
1.518494e-19
1.5184707e-19
1.5185211e-19
1.518665e-19
1.5189635e-19
1.5206488e-19
1.5196597e-19
1.5190608e-19
1.5187003e-19
1.518494e-19
1.5183927e-19
1.5183702e-19
1.5184216e-19
1.5185664e-19
1.5188655e-19
1.5206198e-19
1.5196321e-19
1.5190349e-19
1.5186758e-19
1.5184707e-19
1.5183702e-19
1.5183486e-19
1.5184005e-19
1.5185459e-19
1.5188453e-19
1.5206604e-19
1.5196756e-19
1.5190815e-19
1.5187247e-19
1.5185211e-19
1.5184216e-19
1.5184005e-19
1.5184529e-19
1.5185987e-19
1.5188984e-19
1.5207869e-19
1.5198096e-19
1.5192208e-19
1.518867e-19
1.518665e-19
1.5185664e-19
1.5185459e-19
1.5185987e-19
1.5187449e-19
1.5190448e-19
1.5210522e-19
1.5200965e-19
1.5195151e-19
1.5191642e-19
1.5189635e-19
1.5188655e-19
1.5188453e-19
1.5188984e-19
1.5190448e-19
1.5193457e-19
2.577639e-19
2.5760119e-19
2.5750204e-19
2.5744198e-19
2.5740729e-19
2.5738977e-19
2.5738491e-19
2.5739148e-19
2.57412e-19
2.5745484e-19
2.5760119e-19
2.5743903e-19
2.5734009e-19
2.5728015e-19
2.5724555e-19
2.5722814e-19
2.5722352e-19
2.5723059e-19
2.5725237e-19
2.5729882e-19
2.5750204e-19
2.5734009e-19
2.5724131e-19
2.5718148e-19
2.5714701e-19
2.5712977e-19
2.5712543e-19
2.5713302e-19
2.5715568e-19
2.5720338e-19
2.5744198e-19
2.5728015e-19
2.5718148e-19
2.5712177e-19
2.5708743e-19
2.5707036e-19
2.5706627e-19
2.5707423e-19
2.5709741e-19
2.5714559e-19
2.5740729e-19
2.5724555e-19
2.5714701e-19
2.5708743e-19
2.5705322e-19
2.5703631e-19
2.5703241e-19
2.5704062e-19
2.5706407e-19
2.5711247e-19
2.5738977e-19
2.5722814e-19
2.5712977e-19
2.5707036e-19
2.5703631e-19
2.5701954e-19
2.5701579e-19
2.5702416e-19
2.5704776e-19
2.5709627e-19
2.5738491e-19
2.5722352e-19
2.5712543e-19
2.5706627e-19
2.5703241e-19
2.5701579e-19
2.5701217e-19
2.5702064e-19
2.5704434e-19
2.570929e-19
2.5739148e-19
2.5723059e-19
2.5713302e-19
2.5707423e-19
2.5704062e-19
2.5702416e-19
2.5702064e-19
2.5702919e-19
2.5705295e-19
2.5710155e-19
2.57412e-19
2.5725237e-19
2.5715568e-19
2.5709741e-19
2.5706407e-19
2.5704776e-19
2.5704434e-19
2.5705295e-19
2.5707677e-19
2.5712542e-19
2.5745484e-19
2.5729882e-19
2.5720338e-19
2.5714559e-19
2.5711247e-19
2.5709627e-19
2.570929e-19
2.5710155e-19
2.5712542e-19
2.5717422e-19
4.3942643e-19
4.3915875e-19
4.3899486e-19
4.3889526e-19
4.3883761e-19
4.3880842e-19
4.3880025e-19
4.3881095e-19
4.3884442e-19
4.3891388e-19
4.3915875e-19
4.3889198e-19
4.3872843e-19
4.3862901e-19
4.3857151e-19
4.3854253e-19
4.3853475e-19
4.3854629e-19
4.385819e-19
4.3865748e-19
4.3899486e-19
4.3872843e-19
4.3856513e-19
4.3846592e-19
4.3840862e-19
4.3837993e-19
4.3837263e-19
4.3838503e-19
4.3842214e-19
4.3849983e-19
4.3889526e-19
4.3862901e-19
4.3846592e-19
4.3836689e-19
4.3830982e-19
4.3828141e-19
4.3827453e-19
4.3828757e-19
4.3832553e-19
4.3840405e-19
4.3883761e-19
4.3857151e-19
4.3840862e-19
4.3830982e-19
4.3825297e-19
4.3822482e-19
4.3821827e-19
4.3823172e-19
4.3827015e-19
4.3834904e-19
4.3880842e-19
4.3854253e-19
4.3837993e-19
4.3828141e-19
4.3822482e-19
4.3819691e-19
4.3819061e-19
4.3820433e-19
4.3824302e-19
4.3832208e-19
4.3880025e-19
4.3853475e-19
4.3837263e-19
4.3827453e-19
4.3821827e-19
4.3819061e-19
4.3818452e-19
4.3819842e-19
4.3823727e-19
4.3831642e-19
4.3881095e-19
4.3854629e-19
4.3838503e-19
4.3828757e-19
4.3823172e-19
4.3820433e-19
4.3819842e-19
4.3821246e-19
4.3825141e-19
4.3833063e-19
4.3884442e-19
4.385819e-19
4.3842214e-19
4.3832553e-19
4.3827015e-19
4.3824302e-19
4.3823727e-19
4.3825141e-19
4.3829045e-19
4.3836976e-19
4.3891388e-19
4.3865748e-19
4.3849983e-19
4.3840405e-19
4.3834904e-19
4.3832208e-19
4.3831642e-19
4.3833063e-19
4.3836976e-19
4.384493e-19
7.5541541e-19
7.5497154e-19
7.5469851e-19
7.5453206e-19
7.544355e-19
7.5438652e-19
7.5437269e-19
7.5439022e-19
7.5444524e-19
7.5455866e-19
7.5497154e-19
7.5452915e-19
7.5425669e-19
7.5409054e-19
7.5399425e-19
7.5394562e-19
7.5393243e-19
7.5395141e-19
7.5401006e-19
7.5413395e-19
7.5469851e-19
7.5425669e-19
7.5398465e-19
7.5381883e-19
7.5372288e-19
7.5367473e-19
7.5366237e-19
7.5368282e-19
7.5374403e-19
7.5387151e-19
7.5453206e-19
7.5409054e-19
7.5381883e-19
7.5365335e-19
7.5355776e-19
7.535101e-19
7.5349846e-19
7.5351999e-19
7.5358265e-19
7.5371154e-19
7.544355e-19
7.5399425e-19
7.5372288e-19
7.5355776e-19
7.5346256e-19
7.5341534e-19
7.5340426e-19
7.5342649e-19
7.5348995e-19
7.5361946e-19
7.5438652e-19
7.5394562e-19
7.5367473e-19
7.535101e-19
7.5341534e-19
7.5336854e-19
7.5335788e-19
7.5338057e-19
7.5344447e-19
7.5357427e-19
7.5437269e-19
7.5393243e-19
7.5366237e-19
7.5349846e-19
7.5340426e-19
7.5335788e-19
7.5334757e-19
7.5337056e-19
7.5343473e-19
7.5356469e-19
7.5439022e-19
7.5395141e-19
7.5368282e-19
7.5351999e-19
7.5342649e-19
7.5338057e-19
7.5337056e-19
7.5339379e-19
7.5345814e-19
7.5358821e-19
7.5444524e-19
7.5401006e-19
7.5374403e-19
7.5358265e-19
7.5348995e-19
7.5344447e-19
7.5343473e-19
7.5345814e-19
7.5352263e-19
7.5365285e-19
7.5455866e-19
7.5413395e-19
7.5387151e-19
7.5371154e-19
7.5361946e-19
7.5357427e-19
7.5356469e-19
7.5358821e-19
7.5365285e-19
7.5378346e-19
1.3101364e-18
1.3093941e-18
1.3089355e-18
1.308655e-18
1.308492e-18
1.3084091e-18
1.3083855e-18
1.3084145e-18
1.3085056e-18
1.3086923e-18
1.3093941e-18
1.3086543e-18
1.3081966e-18
1.3079167e-18
1.3077541e-18
1.3076718e-18
1.3076493e-18
1.3076808e-18
1.3077782e-18
1.3079829e-18
1.3089355e-18
1.3081966e-18
1.3077396e-18
1.3074602e-18
1.3072982e-18
1.3072168e-18
1.3071957e-18
1.3072297e-18
1.3073315e-18
1.3075424e-18
1.308655e-18
1.3079167e-18
1.3074602e-18
1.3071814e-18
1.30702e-18
1.3069394e-18
1.3069195e-18
1.3069554e-18
1.3070597e-18
1.307273e-18
1.308492e-18
1.3077541e-18
1.3072982e-18
1.30702e-18
1.3068593e-18
1.3067794e-18
1.3067605e-18
1.3067976e-18
1.3069033e-18
1.3071176e-18
1.3084091e-18
1.3076718e-18
1.3072168e-18
1.3069394e-18
1.3067794e-18
1.3067003e-18
1.3066821e-18
1.3067199e-18
1.3068264e-18
1.3070413e-18
1.3083855e-18
1.3076493e-18
1.3071957e-18
1.3069195e-18
1.3067605e-18
1.3066821e-18
1.3066645e-18
1.3067029e-18
1.3068098e-18
1.3070249e-18
1.3084145e-18
1.3076808e-18
1.3072297e-18
1.3069554e-18
1.3067976e-18
1.3067199e-18
1.3067029e-18
1.3067416e-18
1.3068488e-18
1.3070642e-18
1.3085056e-18
1.3077782e-18
1.3073315e-18
1.3070597e-18
1.3069033e-18
1.3068264e-18
1.3068098e-18
1.3068488e-18
1.3069563e-18
1.3071719e-18
1.3086923e-18
1.3079829e-18
1.3075424e-18
1.307273e-18
1.3071176e-18
1.3070413e-18
1.3070249e-18
1.3070642e-18
1.3071719e-18
1.3073881e-18
2.2927602e-18
2.2915083e-18
2.2907313e-18
2.2902547e-18
2.289977e-18
2.2898357e-18
2.289795e-18
2.2898434e-18
2.2899957e-18
2.2903057e-18
2.2915083e-18
2.2902605e-18
2.2894851e-18
2.2890094e-18
2.2887325e-18
2.2885921e-18
2.2885534e-18
2.2886061e-18
2.2887693e-18
2.2891105e-18
2.2907313e-18
2.2894851e-18
2.2887109e-18
2.2882361e-18
2.2879602e-18
2.2878213e-18
2.287785e-18
2.287842e-18
2.2880129e-18
2.2883648e-18
2.2902547e-18
2.2890094e-18
2.2882361e-18
2.2877623e-18
2.2874875e-18
2.28735e-18
2.2873158e-18
2.2873761e-18
2.2875512e-18
2.2879074e-18
2.289977e-18
2.2887325e-18
2.2879602e-18
2.2874875e-18
2.2872138e-18
2.2870776e-18
2.2870451e-18
2.2871074e-18
2.287285e-18
2.287643e-18
2.2898357e-18
2.2885921e-18
2.2878213e-18
2.28735e-18
2.2870776e-18
2.2869426e-18
2.2869114e-18
2.2869751e-18
2.2871539e-18
2.2875128e-18
2.289795e-18
2.2885534e-18
2.287785e-18
2.2873158e-18
2.2870451e-18
2.2869114e-18
2.2868812e-18
2.2869458e-18
2.2871254e-18
2.2874847e-18
2.2898434e-18
2.2886061e-18
2.287842e-18
2.2873761e-18
2.2871074e-18
2.2869751e-18
2.2869458e-18
2.287011e-18
2.2871912e-18
2.2875509e-18
2.2899957e-18
2.2887693e-18
2.2880129e-18
2.2875512e-18
2.287285e-18
2.2871539e-18
2.2871254e-18
2.2871912e-18
2.2873718e-18
2.2877319e-18
2.2903057e-18
2.2891105e-18
2.2883648e-18
2.2879074e-18
2.287643e-18
2.2875128e-18
2.2874847e-18
2.2875509e-18
2.2877319e-18
2.288093e-18
4.0490296e-18
4.0468998e-18
4.0455721e-18
4.0447553e-18
4.0442784e-18
4.0440352e-18
4.0439646e-18
4.044046e-18
4.044303e-18
4.0448221e-18
4.0468998e-18
4.0447771e-18
4.0434521e-18
4.0426367e-18
4.0421611e-18
4.0419196e-18
4.0418525e-18
4.0419414e-18
4.0422173e-18
4.0427911e-18
4.0455721e-18
4.0434521e-18
4.0421291e-18
4.0413153e-18
4.0408415e-18
4.0406025e-18
4.0405396e-18
4.0406361e-18
4.0409253e-18
4.0415179e-18
4.0447553e-18
4.0426367e-18
4.0413153e-18
4.0405032e-18
4.0400312e-18
4.0397948e-18
4.0397356e-18
4.0398377e-18
4.0401345e-18
4.0407344e-18
4.0442784e-18
4.0421611e-18
4.0408415e-18
4.0400312e-18
4.0395613e-18
4.0393271e-18
4.0392707e-18
4.0393765e-18
4.0396774e-18
4.0402806e-18
4.0440352e-18
4.0419196e-18
4.0406025e-18
4.0397948e-18
4.0393271e-18
4.039095e-18
4.0390409e-18
4.039149e-18
4.0394522e-18
4.0400569e-18
4.0439646e-18
4.0418525e-18
4.0405396e-18
4.0397356e-18
4.0392707e-18
4.0390409e-18
4.0389885e-18
4.0390982e-18
4.0394028e-18
4.0400083e-18
4.044046e-18
4.0419414e-18
4.0406361e-18
4.0398377e-18
4.0393765e-18
4.039149e-18
4.0390982e-18
4.0392091e-18
4.0395146e-18
4.0401207e-18
4.044303e-18
4.0422173e-18
4.0409253e-18
4.0401345e-18
4.0396774e-18
4.0394522e-18
4.0394028e-18
4.0395146e-18
4.0398208e-18
4.0404276e-18
4.0448221e-18
4.0427911e-18
4.0415179e-18
4.0407344e-18
4.0402806e-18
4.0400569e-18
4.0400083e-18
4.0401207e-18
4.0404276e-18
4.0410361e-18
7.2163244e-18
7.2126696e-18
7.2103812e-18
7.208969e-18
7.208143e-18
7.2077209e-18
7.2075976e-18
7.2077357e-18
7.2081729e-18
7.2090499e-18
7.2126696e-18
7.2090267e-18
7.2067429e-18
7.2053332e-18
7.2045094e-18
7.2040905e-18
7.203973e-18
7.2041244e-18
7.204595e-18
7.2055686e-18
7.2103812e-18
7.2067429e-18
7.2044625e-18
7.2030557e-18
7.202235e-18
7.2018204e-18
7.2017104e-18
7.2018753e-18
7.2023693e-18
7.203376e-18
7.208969e-18
7.2053332e-18
7.2030557e-18
7.2016518e-18
7.2008343e-18
7.2004241e-18
7.2003207e-18
7.2004954e-18
7.2010028e-18
7.2020225e-18
7.208143e-18
7.2045094e-18
7.202235e-18
7.2008343e-18
7.2000204e-18
7.1996141e-18
7.1995158e-18
7.1996969e-18
7.2002116e-18
7.2012369e-18
7.2077209e-18
7.2040905e-18
7.2018204e-18
7.2004241e-18
7.1996141e-18
7.1992117e-18
7.1991172e-18
7.1993024e-18
7.1998211e-18
7.2008491e-18
7.2075976e-18
7.203973e-18
7.2017104e-18
7.2003207e-18
7.1995158e-18
7.1991172e-18
7.1990258e-18
7.1992139e-18
7.1997349e-18
7.2007644e-18
7.2077357e-18
7.2041244e-18
7.2018753e-18
7.2004954e-18
7.1996969e-18
7.1993024e-18
7.1992139e-18
7.1994041e-18
7.1999267e-18
7.2009572e-18
7.2081729e-18
7.204595e-18
7.2023693e-18
7.2010028e-18
7.2002116e-18
7.1998211e-18
7.1997349e-18
7.1999267e-18
7.2004506e-18
7.2014823e-18
7.2090499e-18
7.2055686e-18
7.203376e-18
7.2020225e-18
7.2012369e-18
7.2008491e-18
7.2007644e-18
7.2009572e-18
7.2014823e-18
7.2025169e-18
1.297983e-17
1.2973503e-17
1.2969525e-17
1.2967062e-17
1.2965619e-17
1.2964881e-17
1.2964663e-17
1.29649e-17
1.296565e-17
1.2967145e-17
1.2973503e-17
1.2967197e-17
1.2963226e-17
1.2960768e-17
1.2959329e-17
1.2958596e-17
1.2958389e-17
1.2958649e-17
1.2959459e-17
1.2961126e-17
1.2969525e-17
1.2963226e-17
1.2959262e-17
1.2956809e-17
1.2955375e-17
1.2954649e-17
1.2954456e-17
1.295474e-17
1.2955591e-17
1.2957317e-17
1.2967062e-17
1.2960768e-17
1.2956809e-17
1.2954361e-17
1.2952933e-17
1.2952215e-17
1.2952033e-17
1.2952335e-17
1.295321e-17
1.2954959e-17
1.2965619e-17
1.2959329e-17
1.2955375e-17
1.2952933e-17
1.2951511e-17
1.29508e-17
1.2950627e-17
1.295094e-17
1.2951828e-17
1.2953587e-17
1.2964881e-17
1.2958596e-17
1.2954649e-17
1.2952215e-17
1.29508e-17
1.2950096e-17
1.294993e-17
1.295025e-17
1.2951146e-17
1.2952909e-17
1.2964663e-17
1.2958389e-17
1.2954456e-17
1.2952033e-17
1.2950627e-17
1.294993e-17
1.2949769e-17
1.2950095e-17
1.2950994e-17
1.295276e-17
1.29649e-17
1.2958649e-17
1.295474e-17
1.2952335e-17
1.295094e-17
1.295025e-17
1.2950095e-17
1.2950424e-17
1.2951326e-17
1.2953094e-17
1.296565e-17
1.2959459e-17
1.2955591e-17
1.295321e-17
1.2951828e-17
1.2951146e-17
1.2950994e-17
1.2951326e-17
1.2952231e-17
1.2954001e-17
1.2967145e-17
1.2961126e-17
1.2957317e-17
1.2954959e-17
1.2953587e-17
1.2952909e-17
1.295276e-17
1.2953094e-17
1.2954001e-17
1.2955775e-17
2.3562436e-17
2.3551388e-17
2.3544411e-17
2.354008e-17
2.3537537e-17
2.3536233e-17
2.3535846e-17
2.3536256e-17
2.3537555e-17
2.3540125e-17
2.3551388e-17
2.3540375e-17
2.3533412e-17
2.3529089e-17
2.3526552e-17
2.3525258e-17
2.3524891e-17
2.3525342e-17
2.3526749e-17
2.3529628e-17
2.3544411e-17
2.3533412e-17
2.3526459e-17
2.3522145e-17
2.3519618e-17
2.3518338e-17
2.3517994e-17
2.3518488e-17
2.3519969e-17
2.3522954e-17
2.354008e-17
2.3529089e-17
2.3522145e-17
2.3517839e-17
2.3515323e-17
2.3514057e-17
2.3513733e-17
2.3514259e-17
2.3515783e-17
2.3518809e-17
2.3537537e-17
2.3526552e-17
2.3519618e-17
2.3515323e-17
2.3512817e-17
2.3511564e-17
2.3511257e-17
2.3511803e-17
2.351335e-17
2.3516394e-17
2.3536233e-17
2.3525258e-17
2.3518338e-17
2.3514057e-17
2.3511564e-17
2.3510322e-17
2.3510027e-17
2.3510587e-17
2.3512146e-17
2.3515199e-17
2.3535846e-17
2.3524891e-17
2.3517994e-17
2.3513733e-17
2.3511257e-17
2.3510027e-17
2.3509742e-17
2.3510311e-17
2.3511878e-17
2.3514935e-17
2.3536256e-17
2.3525342e-17
2.3518488e-17
2.3514259e-17
2.3511803e-17
2.3510587e-17
2.3510311e-17
2.3510885e-17
2.3512457e-17
2.3515518e-17
2.3537555e-17
2.3526749e-17
2.3519969e-17
2.3515783e-17
2.351335e-17
2.3512146e-17
2.3511878e-17
2.3512457e-17
2.3514034e-17
2.3517098e-17
2.3540125e-17
2.3529628e-17
2.3522954e-17
2.3518809e-17
2.3516394e-17
2.3515199e-17
2.3514935e-17
2.3515518e-17
2.3517098e-17
2.352017e-17
4.3169393e-17
4.3149931e-17
4.3137589e-17
4.3129906e-17
4.3125386e-17
4.3123065e-17
4.3122372e-17
4.3123086e-17
4.3125357e-17
4.3129816e-17
4.3149931e-17
4.3130531e-17
4.3118213e-17
4.3110544e-17
4.3106036e-17
4.3103733e-17
4.3103074e-17
4.3103865e-17
4.3106329e-17
4.3111347e-17
4.3137589e-17
4.3118213e-17
4.3105914e-17
4.309826e-17
4.309377e-17
4.3091491e-17
4.3090875e-17
4.3091744e-17
4.3094343e-17
4.3099553e-17
4.3129906e-17
4.3110544e-17
4.309826e-17
4.3090623e-17
4.308615e-17
4.3083897e-17
4.3083319e-17
4.3084244e-17
4.308692e-17
4.3092205e-17
4.3125386e-17
4.3106036e-17
4.309377e-17
4.308615e-17
4.3081698e-17
4.3079467e-17
4.3078918e-17
4.307988e-17
4.3082598e-17
4.3087916e-17
4.3123065e-17
4.3103733e-17
4.3091491e-17
4.3083897e-17
4.3079467e-17
4.3077258e-17
4.3076731e-17
4.3077717e-17
4.3080458e-17
4.3085791e-17
4.3122372e-17
4.3103074e-17
4.3090875e-17
4.3083319e-17
4.3078918e-17
4.3076731e-17
4.3076222e-17
4.3077224e-17
4.3079979e-17
4.308532e-17
4.3123086e-17
4.3103865e-17
4.3091744e-17
4.3084244e-17
4.307988e-17
4.3077717e-17
4.3077224e-17
4.3078237e-17
4.3081001e-17
4.3086348e-17
4.3125357e-17
4.3106329e-17
4.3094343e-17
4.308692e-17
4.3082598e-17
4.3080458e-17
4.3079979e-17
4.3081001e-17
4.3083772e-17
4.3089126e-17
4.3129816e-17
4.3111347e-17
4.3099553e-17
4.3092205e-17
4.3087916e-17
4.3085791e-17
4.308532e-17
4.3086348e-17
4.3089126e-17
4.3094494e-17
7.9824955e-17
7.9790372e-17
7.976835e-17
7.9754603e-17
7.9746499e-17
7.9742332e-17
7.9741081e-17
7.9742339e-17
7.9746343e-17
7.9754147e-17
7.9790372e-17
7.97559e-17
7.973392e-17
7.9720197e-17
7.9712116e-17
7.970798e-17
7.9706792e-17
7.9708189e-17
7.9712547e-17
7.9721373e-17
7.976835e-17
7.973392e-17
7.9711975e-17
7.9698279e-17
7.9690229e-17
7.9686139e-17
7.9685029e-17
7.9686567e-17
7.9691171e-17
7.9700348e-17
7.9754603e-17
7.9720197e-17
7.9698279e-17
7.9684613e-17
7.9676597e-17
7.9672552e-17
7.967151e-17
7.9673152e-17
7.9677897e-17
7.968721e-17
7.9746499e-17
7.9712116e-17
7.9690229e-17
7.9676597e-17
7.9668616e-17
7.9664613e-17
7.9663624e-17
7.9665333e-17
7.9670154e-17
7.9679527e-17
7.9742332e-17
7.970798e-17
7.9686139e-17
7.9672552e-17
7.9664613e-17
7.966065e-17
7.9659701e-17
7.9661453e-17
7.9666316e-17
7.9675718e-17
7.9741081e-17
7.9706792e-17
7.9685029e-17
7.967151e-17
7.9663624e-17
7.9659701e-17
7.9658784e-17
7.9660566e-17
7.9665454e-17
7.9674871e-17
7.9742339e-17
7.9708189e-17
7.9686567e-17
7.9673152e-17
7.9665333e-17
7.9661453e-17
7.9660566e-17
7.9662369e-17
7.9667274e-17
7.96767e-17
7.9746343e-17
7.9712547e-17
7.9691171e-17
7.9677897e-17
7.9670154e-17
7.9666316e-17
7.9665454e-17
7.9667274e-17
7.967219e-17
7.9681629e-17
7.9754147e-17
7.9721373e-17
7.9700348e-17
7.968721e-17
7.9679527e-17
7.9675718e-17
7.9674871e-17
7.96767e-17
7.9681629e-17
7.9691092e-17
1.4897271e-16
1.4891073e-16
1.4887109e-16
1.4884628e-16
1.4883163e-16
1.4882409e-16
1.4882181e-16
1.4882405e-16
1.4883117e-16
1.4884495e-16
1.4891073e-16
1.4884894e-16
1.4880938e-16
1.4878461e-16
1.4877e-16
1.4876252e-16
1.4876035e-16
1.4876284e-16
1.4877062e-16
1.4878629e-16
1.4887109e-16
1.4880938e-16
1.4876988e-16
1.4874517e-16
1.4873061e-16
1.4872321e-16
1.4872119e-16
1.4872394e-16
1.4873217e-16
1.4874848e-16
1.4884628e-16
1.4878461e-16
1.4874517e-16
1.487205e-16
1.4870601e-16
1.4869869e-16
1.486968e-16
1.4869974e-16
1.4870823e-16
1.4872479e-16
1.4883163e-16
1.4877e-16
1.4873061e-16
1.4870601e-16
1.4869158e-16
1.4868434e-16
1.4868254e-16
1.4868561e-16
1.4869424e-16
1.4871091e-16
1.4882409e-16
1.4876252e-16
1.4872321e-16
1.4869869e-16
1.4868434e-16
1.4867717e-16
1.4867545e-16
1.4867859e-16
1.486873e-16
1.4870402e-16
1.4882181e-16
1.4876035e-16
1.4872119e-16
1.486968e-16
1.4868254e-16
1.4867545e-16
1.4867378e-16
1.4867698e-16
1.4868573e-16
1.4870249e-16
1.4882405e-16
1.4876284e-16
1.4872394e-16
1.4869974e-16
1.4868561e-16
1.4867859e-16
1.4867698e-16
1.4868022e-16
1.48689e-16
1.4870577e-16
1.4883117e-16
1.4877062e-16
1.4873217e-16
1.4870823e-16
1.4869424e-16
1.486873e-16
1.4868573e-16
1.48689e-16
1.4869781e-16
1.487146e-16
1.4884495e-16
1.4878629e-16
1.4874848e-16
1.4872479e-16
1.4871091e-16
1.4870402e-16
1.4870249e-16
1.4870577e-16
1.487146e-16
1.4873143e-16
2.8059123e-16
2.8047916e-16
2.8040721e-16
2.8036205e-16
2.8033533e-16
2.8032156e-16
2.8031738e-16
2.8032139e-16
2.8033418e-16
2.8035873e-16
2.8047916e-16
2.8036744e-16
2.8029563e-16
2.8025055e-16
2.8022391e-16
2.8021024e-16
2.8020627e-16
2.8021076e-16
2.8022476e-16
2.8025282e-16
2.8040721e-16
2.8029563e-16
2.8022394e-16
2.8017894e-16
2.8015241e-16
2.8013889e-16
2.8013519e-16
2.8014016e-16
2.80155e-16
2.8018426e-16
2.8036205e-16
2.8025055e-16
2.8017894e-16
2.8013405e-16
2.8010763e-16
2.8009427e-16
2.800908e-16
2.8009612e-16
2.8011144e-16
2.8014117e-16
2.8033533e-16
2.8022391e-16
2.8015241e-16
2.8010763e-16
2.8008132e-16
2.8006811e-16
2.8006482e-16
2.8007037e-16
2.8008595e-16
2.8011588e-16
2.8032156e-16
2.8021024e-16
2.8013889e-16
2.8009427e-16
2.8006811e-16
2.8005502e-16
2.8005187e-16
2.8005757e-16
2.8007329e-16
2.8010332e-16
2.8031738e-16
2.8020627e-16
2.8013519e-16
2.800908e-16
2.8006482e-16
2.8005187e-16
2.8004883e-16
2.8005463e-16
2.8007044e-16
2.8010052e-16
2.8032139e-16
2.8021076e-16
2.8014016e-16
2.8009612e-16
2.8007037e-16
2.8005757e-16
2.8005463e-16
2.800605e-16
2.8007637e-16
2.8010648e-16
2.8033418e-16
2.8022476e-16
2.80155e-16
2.8011144e-16
2.8008595e-16
2.8007329e-16
2.8007044e-16
2.8007637e-16
2.8009228e-16
2.8012242e-16
2.8035873e-16
2.8025282e-16
2.8018426e-16
2.8014117e-16
2.8011588e-16
2.8010332e-16
2.8010052e-16
2.8010648e-16
2.8012242e-16
2.8015265e-16
5.3337191e-16
5.3316755e-16
5.3303583e-16
5.3295292e-16
5.3290379e-16
5.3287842e-16
5.3287069e-16
5.3287795e-16
5.3290112e-16
5.3294525e-16
5.3316755e-16
5.3296382e-16
5.3283235e-16
5.3274959e-16
5.3270059e-16
5.3267543e-16
5.3266809e-16
5.3267625e-16
5.3270168e-16
5.3275239e-16
5.3303583e-16
5.3283235e-16
5.3270108e-16
5.3261849e-16
5.3256969e-16
5.3254481e-16
5.3253797e-16
5.3254703e-16
5.3257405e-16
5.32627e-16
5.3295292e-16
5.3274959e-16
5.3261849e-16
5.3253608e-16
5.3248749e-16
5.324629e-16
5.324565e-16
5.3246622e-16
5.3249413e-16
5.3254796e-16
5.3290379e-16
5.3270059e-16
5.3256969e-16
5.3248749e-16
5.3243913e-16
5.324148e-16
5.3240874e-16
5.3241889e-16
5.3244729e-16
5.325015e-16
5.3287842e-16
5.3267543e-16
5.3254481e-16
5.324629e-16
5.324148e-16
5.3239073e-16
5.3238492e-16
5.3239534e-16
5.3242401e-16
5.3247841e-16
5.3287069e-16
5.3266809e-16
5.3253797e-16
5.324565e-16
5.3240874e-16
5.3238492e-16
5.3237932e-16
5.3238993e-16
5.3241876e-16
5.3247325e-16
5.3287795e-16
5.3267625e-16
5.3254703e-16
5.3246622e-16
5.3241889e-16
5.3239534e-16
5.3238993e-16
5.3240068e-16
5.3242961e-16
5.3248416e-16
5.3290112e-16
5.3270168e-16
5.3257405e-16
5.3249413e-16
5.3244729e-16
5.3242401e-16
5.3241876e-16
5.3242961e-16
5.3245861e-16
5.3251323e-16
5.3294525e-16
5.3275239e-16
5.32627e-16
5.3254796e-16
5.325015e-16
5.3247841e-16
5.3247325e-16
5.3248416e-16
5.3251323e-16
5.3256799e-16
1.0231973e-15
1.0228214e-15
1.0225782e-15
1.0224247e-15
1.0223336e-15
1.0222865e-15
1.0222721e-15
1.0222854e-15
1.0223277e-15
1.0224077e-15
1.0228214e-15
1.0224467e-15
1.022204e-15
1.0220507e-15
1.0219599e-15
1.0219132e-15
1.0218995e-15
1.0219145e-15
1.0219611e-15
1.0220535e-15
1.0225782e-15
1.022204e-15
1.0219616e-15
1.0218087e-15
1.0217182e-15
1.021672e-15
1.0216593e-15
1.0216759e-15
1.0217256e-15
1.0218223e-15
1.0224247e-15
1.0220507e-15
1.0218087e-15
1.0216561e-15
1.021566e-15
1.0215204e-15
1.0215085e-15
1.0215264e-15
1.0215777e-15
1.0216761e-15
1.0223336e-15
1.0219599e-15
1.0217182e-15
1.021566e-15
1.0214764e-15
1.0214312e-15
1.0214199e-15
1.0214387e-15
1.0214909e-15
1.02159e-15
1.0222865e-15
1.0219132e-15
1.021672e-15
1.0215204e-15
1.0214312e-15
1.0213865e-15
1.0213758e-15
1.021395e-15
1.0214477e-15
1.0215472e-15
1.0222721e-15
1.0218995e-15
1.0216593e-15
1.0215085e-15
1.0214199e-15
1.0213758e-15
1.0213654e-15
1.021385e-15
1.021438e-15
1.0215376e-15
1.0222854e-15
1.0219145e-15
1.0216759e-15
1.0215264e-15
1.0214387e-15
1.021395e-15
1.021385e-15
1.0214048e-15
1.021458e-15
1.0215578e-15
1.0223277e-15
1.0219611e-15
1.0217256e-15
1.0215777e-15
1.0214909e-15
1.0214477e-15
1.021438e-15
1.021458e-15
1.0215114e-15
1.0216113e-15
1.0224077e-15
1.0220535e-15
1.0218223e-15
1.0216761e-15
1.02159e-15
1.0215472e-15
1.0215376e-15
1.0215578e-15