/*--------------------------------*- C++ -*----------------------------------*\
| =========                 |                                                 |
| \\      /  F ield         | OpenFOAM: The Open Source CFD Toolbox           |
|  \\    /   O peration     | Version:  dev                                   |
|   \\  /    A nd           | Web:      www.OpenFOAM.org                      |
|    \\/     M anipulation  |                                                 |
\*---------------------------------------------------------------------------*/
FoamFile
{
    version     2.0;
    format      ascii;
    class       volScalarField;
    location    "13";
    object      A;
}
// * * * * * * * * * * * * * * * * * * * * * * * * * * * * * * * * * * * * * //

dimensions      [0 0 0 0 1 0 0];

internalField   nonuniform List<scalar> 
10000
(
9.3520688e-65
9.3497546e-65
9.3488829e-65
9.348605e-65
9.3485308e-65
9.3485142e-65
9.3485116e-65
9.348514e-65
9.3485247e-65
9.3485647e-65
9.3497546e-65
9.3474418e-65
9.3465705e-65
9.3462928e-65
9.3462187e-65
9.3462021e-65
9.3461998e-65
9.3462037e-65
9.3462201e-65
9.3462802e-65
9.3488829e-65
9.3465705e-65
9.3456994e-65
9.3454217e-65
9.3453476e-65
9.3453311e-65
9.3453291e-65
9.345334e-65
9.3453532e-65
9.3454189e-65
9.348605e-65
9.3462928e-65
9.3454217e-65
9.3451441e-65
9.34507e-65
9.3450535e-65
9.3450517e-65
9.3450569e-65
9.345077e-65
9.3451442e-65
9.3485308e-65
9.3462187e-65
9.3453476e-65
9.34507e-65
9.3449959e-65
9.3449794e-65
9.3449776e-65
9.3449829e-65
9.3450034e-65
9.3450709e-65
9.3485142e-65
9.3462021e-65
9.3453311e-65
9.3450535e-65
9.3449794e-65
9.3449629e-65
9.3449611e-65
9.3449665e-65
9.344987e-65
9.3450546e-65
9.3485116e-65
9.3461998e-65
9.3453291e-65
9.3450517e-65
9.3449776e-65
9.3449611e-65
9.3449593e-65
9.3449647e-65
9.3449852e-65
9.3450528e-65
9.348514e-65
9.3462037e-65
9.345334e-65
9.3450569e-65
9.3449829e-65
9.3449665e-65
9.3449647e-65
9.3449701e-65
9.3449906e-65
9.3450582e-65
9.3485247e-65
9.3462201e-65
9.3453532e-65
9.345077e-65
9.3450034e-65
9.344987e-65
9.3449852e-65
9.3449906e-65
9.3450111e-65
9.3450787e-65
9.3485647e-65
9.3462802e-65
9.3454189e-65
9.3451442e-65
9.3450709e-65
9.3450546e-65
9.3450528e-65
9.3450582e-65
9.3450787e-65
9.3451463e-65
5.7265353e-64
5.7251563e-64
5.7246329e-64
5.7244659e-64
5.7244213e-64
5.7244113e-64
5.7244097e-64
5.7244112e-64
5.7244176e-64
5.7244425e-64
5.7251563e-64
5.7237782e-64
5.723255e-64
5.7230881e-64
5.7230436e-64
5.7230336e-64
5.7230323e-64
5.7230346e-64
5.7230444e-64
5.7230815e-64
5.7246329e-64
5.723255e-64
5.7227319e-64
5.7225651e-64
5.7225205e-64
5.7225106e-64
5.7225094e-64
5.7225123e-64
5.7225239e-64
5.7225644e-64
5.7244659e-64
5.7230881e-64
5.7225651e-64
5.7223982e-64
5.7223537e-64
5.7223437e-64
5.7223427e-64
5.7223458e-64
5.722358e-64
5.7223993e-64
5.7244213e-64
5.7230436e-64
5.7225205e-64
5.7223537e-64
5.7223091e-64
5.7222992e-64
5.7222981e-64
5.7223014e-64
5.7223137e-64
5.7223553e-64
5.7244113e-64
5.7230336e-64
5.7225106e-64
5.7223437e-64
5.7222992e-64
5.7222893e-64
5.7222882e-64
5.7222915e-64
5.7223038e-64
5.7223454e-64
5.7244097e-64
5.7230323e-64
5.7225094e-64
5.7223427e-64
5.7222981e-64
5.7222882e-64
5.7222872e-64
5.7222904e-64
5.7223028e-64
5.7223444e-64
5.7244112e-64
5.7230346e-64
5.7225123e-64
5.7223458e-64
5.7223014e-64
5.7222915e-64
5.7222904e-64
5.7222937e-64
5.722306e-64
5.7223476e-64
5.7244176e-64
5.7230444e-64
5.7225239e-64
5.722358e-64
5.7223137e-64
5.7223038e-64
5.7223028e-64
5.722306e-64
5.7223184e-64
5.72236e-64
5.7244425e-64
5.7230815e-64
5.7225644e-64
5.7223993e-64
5.7223553e-64
5.7223454e-64
5.7223444e-64
5.7223476e-64
5.72236e-64
5.7224016e-64
2.9054621e-63
2.9047817e-63
2.9045227e-63
2.9044401e-63
2.904418e-63
2.904413e-63
2.9044122e-63
2.904413e-63
2.9044161e-63
2.9044283e-63
2.9047817e-63
2.9041018e-63
2.9038429e-63
2.9037603e-63
2.9037382e-63
2.9037332e-63
2.9037326e-63
2.9037338e-63
2.9037386e-63
2.9037569e-63
2.9045227e-63
2.9038429e-63
2.9035841e-63
2.9035015e-63
2.9034794e-63
2.9034745e-63
2.9034739e-63
2.9034753e-63
2.9034811e-63
2.9035011e-63
2.9044401e-63
2.9037603e-63
2.9035015e-63
2.9034188e-63
2.9033968e-63
2.9033918e-63
2.9033913e-63
2.9033929e-63
2.9033989e-63
2.9034193e-63
2.904418e-63
2.9037382e-63
2.9034794e-63
2.9033968e-63
2.9033747e-63
2.9033698e-63
2.9033692e-63
2.9033709e-63
2.903377e-63
2.9033975e-63
2.904413e-63
2.9037332e-63
2.9034745e-63
2.9033918e-63
2.9033698e-63
2.9033649e-63
2.9033643e-63
2.903366e-63
2.9033721e-63
2.9033926e-63
2.9044122e-63
2.9037326e-63
2.9034739e-63
2.9033913e-63
2.9033692e-63
2.9033643e-63
2.9033638e-63
2.9033654e-63
2.9033716e-63
2.9033921e-63
2.904413e-63
2.9037338e-63
2.9034753e-63
2.9033929e-63
2.9033709e-63
2.903366e-63
2.9033654e-63
2.9033671e-63
2.9033732e-63
2.9033938e-63
2.9044161e-63
2.9037386e-63
2.9034811e-63
2.9033989e-63
2.903377e-63
2.9033721e-63
2.9033716e-63
2.9033732e-63
2.9033793e-63
2.9033999e-63
2.9044283e-63
2.9037569e-63
2.9035011e-63
2.9034193e-63
2.9033975e-63
2.9033926e-63
2.9033921e-63
2.9033938e-63
2.9033999e-63
2.9034205e-63
1.4968283e-62
1.4964876e-62
1.4963576e-62
1.4963161e-62
1.496305e-62
1.4963025e-62
1.4963021e-62
1.4963025e-62
1.496304e-62
1.49631e-62
1.4964876e-62
1.4961471e-62
1.4960172e-62
1.4959757e-62
1.4959646e-62
1.4959621e-62
1.4959618e-62
1.4959624e-62
1.4959648e-62
1.4959739e-62
1.4963576e-62
1.4960172e-62
1.4958873e-62
1.4958458e-62
1.4958347e-62
1.4958322e-62
1.495832e-62
1.4958327e-62
1.4958356e-62
1.4958455e-62
1.4963161e-62
1.4959757e-62
1.4958458e-62
1.4958043e-62
1.4957932e-62
1.4957907e-62
1.4957905e-62
1.4957913e-62
1.4957943e-62
1.4958045e-62
1.496305e-62
1.4959646e-62
1.4958347e-62
1.4957932e-62
1.4957821e-62
1.4957797e-62
1.4957794e-62
1.4957802e-62
1.4957833e-62
1.4957935e-62
1.4963025e-62
1.4959621e-62
1.4958322e-62
1.4957907e-62
1.4957797e-62
1.4957772e-62
1.4957769e-62
1.4957778e-62
1.4957808e-62
1.4957911e-62
1.4963021e-62
1.4959618e-62
1.495832e-62
1.4957905e-62
1.4957794e-62
1.4957769e-62
1.4957767e-62
1.4957775e-62
1.4957806e-62
1.4957908e-62
1.4963025e-62
1.4959624e-62
1.4958327e-62
1.4957913e-62
1.4957802e-62
1.4957778e-62
1.4957775e-62
1.4957783e-62
1.4957814e-62
1.4957916e-62
1.496304e-62
1.4959648e-62
1.4958356e-62
1.4957943e-62
1.4957833e-62
1.4957808e-62
1.4957806e-62
1.4957814e-62
1.4957845e-62
1.4957947e-62
1.49631e-62
1.4959739e-62
1.4958455e-62
1.4958045e-62
1.4957935e-62
1.4957911e-62
1.4957908e-62
1.4957916e-62
1.4957947e-62
1.4958049e-62
7.8877359e-62
7.8859921e-62
7.8853251e-62
7.8851118e-62
7.8850548e-62
7.8850419e-62
7.88504e-62
7.8850419e-62
7.8850499e-62
7.8850796e-62
7.8859921e-62
7.8842492e-62
7.8835825e-62
7.8833693e-62
7.8833123e-62
7.8832996e-62
7.8832979e-62
7.883301e-62
7.8833136e-62
7.8833594e-62
7.8853251e-62
7.8835825e-62
7.882916e-62
7.8827029e-62
7.8826459e-62
7.8826332e-62
7.8826317e-62
7.8826356e-62
7.8826504e-62
7.8827008e-62
7.8851118e-62
7.8833693e-62
7.8827029e-62
7.8824897e-62
7.8824328e-62
7.8824201e-62
7.8824187e-62
7.8824229e-62
7.8824385e-62
7.8824901e-62
7.8850548e-62
7.8833123e-62
7.8826459e-62
7.8824328e-62
7.8823758e-62
7.8823631e-62
7.8823618e-62
7.882366e-62
7.8823819e-62
7.8824337e-62
7.8850419e-62
7.8832996e-62
7.8826332e-62
7.8824201e-62
7.8823631e-62
7.8823504e-62
7.8823491e-62
7.8823534e-62
7.8823693e-62
7.8824212e-62
7.88504e-62
7.8832979e-62
7.8826317e-62
7.8824187e-62
7.8823618e-62
7.8823491e-62
7.8823478e-62
7.882352e-62
7.882368e-62
7.8824199e-62
7.8850419e-62
7.883301e-62
7.8826356e-62
7.8824229e-62
7.882366e-62
7.8823534e-62
7.882352e-62
7.8823563e-62
7.8823723e-62
7.8824242e-62
7.8850499e-62
7.8833136e-62
7.8826504e-62
7.8824385e-62
7.8823819e-62
7.8823693e-62
7.882368e-62
7.8823723e-62
7.8823882e-62
7.8824401e-62
7.8850796e-62
7.8833594e-62
7.8827008e-62
7.8824901e-62
7.8824337e-62
7.8824212e-62
7.8824199e-62
7.8824242e-62
7.8824401e-62
7.8824921e-62
4.2529296e-61
4.2520166e-61
4.2516666e-61
4.2515546e-61
4.2515247e-61
4.2515179e-61
4.2515169e-61
4.2515179e-61
4.2515221e-61
4.2515372e-61
4.2520166e-61
4.2511041e-61
4.2507543e-61
4.2506423e-61
4.2506124e-61
4.2506057e-61
4.2506048e-61
4.2506064e-61
4.2506131e-61
4.2506368e-61
4.2516666e-61
4.2507543e-61
4.2504046e-61
4.2502926e-61
4.2502627e-61
4.250256e-61
4.2502552e-61
4.2502573e-61
4.2502651e-61
4.2502913e-61
4.2515546e-61
4.2506423e-61
4.2502926e-61
4.2501807e-61
4.2501507e-61
4.2501441e-61
4.2501434e-61
4.2501456e-61
4.2501538e-61
4.2501807e-61
4.2515247e-61
4.2506124e-61
4.2502627e-61
4.2501507e-61
4.2501208e-61
4.2501141e-61
4.2501135e-61
4.2501157e-61
4.2501241e-61
4.2501511e-61
4.2515179e-61
4.2506057e-61
4.250256e-61
4.2501441e-61
4.2501141e-61
4.2501075e-61
4.2501068e-61
4.2501091e-61
4.2501175e-61
4.2501445e-61
4.2515169e-61
4.2506048e-61
4.2502552e-61
4.2501434e-61
4.2501135e-61
4.2501068e-61
4.2501061e-61
4.2501084e-61
4.2501168e-61
4.2501438e-61
4.2515179e-61
4.2506064e-61
4.2502573e-61
4.2501456e-61
4.2501157e-61
4.2501091e-61
4.2501084e-61
4.2501106e-61
4.250119e-61
4.2501461e-61
4.2515221e-61
4.2506131e-61
4.2502651e-61
4.2501538e-61
4.2501241e-61
4.2501175e-61
4.2501168e-61
4.250119e-61
4.2501275e-61
4.2501545e-61
4.2515372e-61
4.2506368e-61
4.2502913e-61
4.2501807e-61
4.2501511e-61
4.2501445e-61
4.2501438e-61
4.2501461e-61
4.2501545e-61
4.2501815e-61
2.3463379e-60
2.345849e-60
2.3456612e-60
2.3456011e-60
2.345585e-60
2.3455814e-60
2.3455808e-60
2.3455813e-60
2.3455836e-60
2.3455915e-60
2.345849e-60
2.3453604e-60
2.3451727e-60
2.3451126e-60
2.3450965e-60
2.3450929e-60
2.3450924e-60
2.3450933e-60
2.3450969e-60
2.3451095e-60
2.3456612e-60
2.3451727e-60
2.344985e-60
2.3449249e-60
2.3449088e-60
2.3449052e-60
2.3449048e-60
2.3449059e-60
2.3449102e-60
2.3449241e-60
2.3456011e-60
2.3451126e-60
2.3449249e-60
2.3448648e-60
2.3448487e-60
2.3448451e-60
2.3448447e-60
2.3448459e-60
2.3448504e-60
2.3448647e-60
2.345585e-60
2.3450965e-60
2.3449088e-60
2.3448487e-60
2.3448326e-60
2.344829e-60
2.3448287e-60
2.3448299e-60
2.3448344e-60
2.3448488e-60
2.3455814e-60
2.3450929e-60
2.3449052e-60
2.3448451e-60
2.344829e-60
2.3448254e-60
2.3448251e-60
2.3448263e-60
2.3448308e-60
2.3448452e-60
2.3455808e-60
2.3450924e-60
2.3449048e-60
2.3448447e-60
2.3448287e-60
2.3448251e-60
2.3448247e-60
2.344826e-60
2.3448305e-60
2.3448449e-60
2.3455813e-60
2.3450933e-60
2.3449059e-60
2.3448459e-60
2.3448299e-60
2.3448263e-60
2.344826e-60
2.3448272e-60
2.3448317e-60
2.3448461e-60
2.3455836e-60
2.3450969e-60
2.3449102e-60
2.3448504e-60
2.3448344e-60
2.3448308e-60
2.3448305e-60
2.3448317e-60
2.3448363e-60
2.3448506e-60
2.3455915e-60
2.3451095e-60
2.3449241e-60
2.3448647e-60
2.3448488e-60
2.3448452e-60
2.3448449e-60
2.3448461e-60
2.3448506e-60
2.344865e-60
1.3245293e-59
1.3242615e-59
1.3241584e-59
1.3241254e-59
1.3241166e-59
1.3241146e-59
1.3241143e-59
1.3241146e-59
1.3241158e-59
1.32412e-59
1.3242615e-59
1.3239939e-59
1.3238909e-59
1.3238579e-59
1.323849e-59
1.323847e-59
1.3238468e-59
1.3238473e-59
1.3238492e-59
1.3238561e-59
1.3241584e-59
1.3238909e-59
1.3237879e-59
1.3237549e-59
1.323746e-59
1.3237441e-59
1.3237438e-59
1.3237444e-59
1.3237468e-59
1.3237544e-59
1.3241254e-59
1.3238579e-59
1.3237549e-59
1.3237218e-59
1.323713e-59
1.323711e-59
1.3237108e-59
1.3237115e-59
1.323714e-59
1.3237217e-59
1.3241166e-59
1.323849e-59
1.323746e-59
1.323713e-59
1.3237042e-59
1.3237022e-59
1.323702e-59
1.3237027e-59
1.3237052e-59
1.323713e-59
1.3241146e-59
1.323847e-59
1.3237441e-59
1.323711e-59
1.3237022e-59
1.3237002e-59
1.3237e-59
1.3237007e-59
1.3237032e-59
1.3237111e-59
1.3241143e-59
1.3238468e-59
1.3237438e-59
1.3237108e-59
1.323702e-59
1.3237e-59
1.3236998e-59
1.3237005e-59
1.323703e-59
1.3237109e-59
1.3241146e-59
1.3238473e-59
1.3237444e-59
1.3237115e-59
1.3237027e-59
1.3237007e-59
1.3237005e-59
1.3237012e-59
1.3237037e-59
1.3237116e-59
1.3241158e-59
1.3238492e-59
1.3237468e-59
1.323714e-59
1.3237052e-59
1.3237032e-59
1.323703e-59
1.3237037e-59
1.3237062e-59
1.3237141e-59
1.32412e-59
1.3238561e-59
1.3237544e-59
1.3237217e-59
1.323713e-59
1.3237111e-59
1.3237109e-59
1.3237116e-59
1.3237141e-59
1.3237219e-59
7.6506463e-59
7.6491467e-59
7.6485682e-59
7.6483826e-59
7.6483329e-59
7.6483217e-59
7.64832e-59
7.6483217e-59
7.6483286e-59
7.6483519e-59
7.6491467e-59
7.6476479e-59
7.6470696e-59
7.6468841e-59
7.6468344e-59
7.6468233e-59
7.6468219e-59
7.6468247e-59
7.6468358e-59
7.646874e-59
7.6485682e-59
7.6470696e-59
7.6464915e-59
7.646306e-59
7.6462564e-59
7.6462453e-59
7.6462441e-59
7.6462476e-59
7.6462608e-59
7.6463031e-59
7.6483826e-59
7.6468841e-59
7.646306e-59
7.6461206e-59
7.6460709e-59
7.6460599e-59
7.6460587e-59
7.6460625e-59
7.6460764e-59
7.6461199e-59
7.6483329e-59
7.6468344e-59
7.6462564e-59
7.6460709e-59
7.6460213e-59
7.6460102e-59
7.6460091e-59
7.646013e-59
7.6460271e-59
7.6460708e-59
7.6483217e-59
7.6468233e-59
7.6462453e-59
7.6460599e-59
7.6460102e-59
7.6459992e-59
7.6459981e-59
7.646002e-59
7.6460161e-59
7.6460599e-59
7.64832e-59
7.6468219e-59
7.6462441e-59
7.6460587e-59
7.6460091e-59
7.6459981e-59
7.645997e-59
7.6460009e-59
7.646015e-59
7.6460588e-59
7.6483217e-59
7.6468247e-59
7.6462476e-59
7.6460625e-59
7.646013e-59
7.646002e-59
7.6460009e-59
7.6460048e-59
7.6460189e-59
7.6460627e-59
7.6483286e-59
7.6468358e-59
7.6462608e-59
7.6460764e-59
7.6460271e-59
7.6460161e-59
7.646015e-59
7.6460189e-59
7.6460331e-59
7.6460769e-59
7.6483519e-59
7.646874e-59
7.6463031e-59
7.6461199e-59
7.6460708e-59
7.6460599e-59
7.6460588e-59
7.6460627e-59
7.6460769e-59
7.6461207e-59
4.5215992e-58
4.5207402e-58
4.5204082e-58
4.5203016e-58
4.5202731e-58
4.5202666e-58
4.5202657e-58
4.5202666e-58
4.5202706e-58
4.5202837e-58
4.5207402e-58
4.5198817e-58
4.5195499e-58
4.5194433e-58
4.5194148e-58
4.5194084e-58
4.5194076e-58
4.5194092e-58
4.5194156e-58
4.5194373e-58
4.5204082e-58
4.5195499e-58
4.519218e-58
4.5191115e-58
4.519083e-58
4.5190766e-58
4.5190759e-58
4.5190779e-58
4.5190856e-58
4.5191098e-58
4.5203016e-58
4.5194433e-58
4.5191115e-58
4.519005e-58
4.5189764e-58
4.5189701e-58
4.5189694e-58
4.5189716e-58
4.5189797e-58
4.5190045e-58
4.5202731e-58
4.5194148e-58
4.519083e-58
4.5189764e-58
4.5189479e-58
4.5189416e-58
4.5189409e-58
4.5189432e-58
4.5189513e-58
4.5189763e-58
4.5202666e-58
4.5194084e-58
4.5190766e-58
4.5189701e-58
4.5189416e-58
4.5189352e-58
4.5189346e-58
4.5189369e-58
4.518945e-58
4.5189701e-58
4.5202657e-58
4.5194076e-58
4.5190759e-58
4.5189694e-58
4.5189409e-58
4.5189346e-58
4.518934e-58
4.5189362e-58
4.5189444e-58
4.5189694e-58
4.5202666e-58
4.5194092e-58
4.5190779e-58
4.5189716e-58
4.5189432e-58
4.5189369e-58
4.5189362e-58
4.5189385e-58
4.5189467e-58
4.5189717e-58
4.5202706e-58
4.5194156e-58
4.5190856e-58
4.5189797e-58
4.5189513e-58
4.518945e-58
4.5189444e-58
4.5189467e-58
4.5189549e-58
4.5189799e-58
4.5202837e-58
4.5194373e-58
4.5191098e-58
4.5190045e-58
4.5189763e-58
4.5189701e-58
4.5189694e-58
4.5189717e-58
4.5189799e-58
4.5190049e-58
2.7341974e-57
2.7336942e-57
2.7334993e-57
2.7334367e-57
2.73342e-57
2.7334162e-57
2.7334156e-57
2.7334162e-57
2.7334185e-57
2.733426e-57
2.7336942e-57
2.7331913e-57
2.7329966e-57
2.732934e-57
2.7329172e-57
2.7329134e-57
2.732913e-57
2.7329139e-57
2.7329177e-57
2.7329304e-57
2.7334993e-57
2.7329966e-57
2.7328018e-57
2.7327392e-57
2.7327225e-57
2.7327187e-57
2.7327183e-57
2.7327195e-57
2.732724e-57
2.7327382e-57
2.7334367e-57
2.732934e-57
2.7327392e-57
2.7326767e-57
2.7326599e-57
2.7326562e-57
2.7326558e-57
2.7326571e-57
2.7326619e-57
2.7326764e-57
2.73342e-57
2.7329172e-57
2.7327225e-57
2.7326599e-57
2.7326431e-57
2.7326394e-57
2.732639e-57
2.7326404e-57
2.7326452e-57
2.7326598e-57
2.7334162e-57
2.7329134e-57
2.7327187e-57
2.7326562e-57
2.7326394e-57
2.7326357e-57
2.7326353e-57
2.7326367e-57
2.7326415e-57
2.7326561e-57
2.7334156e-57
2.732913e-57
2.7327183e-57
2.7326558e-57
2.732639e-57
2.7326353e-57
2.732635e-57
2.7326363e-57
2.7326411e-57
2.7326558e-57
2.7334162e-57
2.7329139e-57
2.7327195e-57
2.7326571e-57
2.7326404e-57
2.7326367e-57
2.7326363e-57
2.7326377e-57
2.7326425e-57
2.7326571e-57
2.7334185e-57
2.7329177e-57
2.732724e-57
2.7326619e-57
2.7326452e-57
2.7326415e-57
2.7326411e-57
2.7326425e-57
2.7326473e-57
2.732662e-57
2.733426e-57
2.7329304e-57
2.7327382e-57
2.7326764e-57
2.7326598e-57
2.7326561e-57
2.7326558e-57
2.7326571e-57
2.732662e-57
2.7326766e-57
1.6915798e-56
1.6912785e-56
1.6911615e-56
1.6911239e-56
1.6911138e-56
1.6911116e-56
1.6911112e-56
1.6911116e-56
1.691113e-56
1.6911174e-56
1.6912785e-56
1.6909773e-56
1.6908604e-56
1.6908228e-56
1.6908127e-56
1.6908104e-56
1.6908102e-56
1.6908107e-56
1.690813e-56
1.6908206e-56
1.6911615e-56
1.6908604e-56
1.6907435e-56
1.6907059e-56
1.6906958e-56
1.6906936e-56
1.6906933e-56
1.6906941e-56
1.6906968e-56
1.6907053e-56
1.6911239e-56
1.6908228e-56
1.6907059e-56
1.6906683e-56
1.6906583e-56
1.690656e-56
1.6906558e-56
1.6906566e-56
1.6906595e-56
1.6906682e-56
1.6911138e-56
1.6908127e-56
1.6906958e-56
1.6906583e-56
1.6906482e-56
1.6906459e-56
1.6906457e-56
1.6906465e-56
1.6906495e-56
1.6906582e-56
1.6911116e-56
1.6908104e-56
1.6906936e-56
1.690656e-56
1.6906459e-56
1.6906437e-56
1.6906435e-56
1.6906443e-56
1.6906472e-56
1.690656e-56
1.6911112e-56
1.6908102e-56
1.6906933e-56
1.6906558e-56
1.6906457e-56
1.6906435e-56
1.6906433e-56
1.6906441e-56
1.690647e-56
1.6906558e-56
1.6911116e-56
1.6908107e-56
1.6906941e-56
1.6906566e-56
1.6906465e-56
1.6906443e-56
1.6906441e-56
1.6906449e-56
1.6906479e-56
1.6906566e-56
1.691113e-56
1.690813e-56
1.6906968e-56
1.6906595e-56
1.6906495e-56
1.6906472e-56
1.690647e-56
1.6906479e-56
1.6906508e-56
1.6906595e-56
1.6911174e-56
1.6908206e-56
1.6907053e-56
1.6906682e-56
1.6906582e-56
1.690656e-56
1.6906558e-56
1.6906566e-56
1.6906595e-56
1.6906683e-56
1.0706692e-55
1.0704846e-55
1.0704129e-55
1.0703898e-55
1.0703836e-55
1.0703822e-55
1.070382e-55
1.0703822e-55
1.0703831e-55
1.0703857e-55
1.0704846e-55
1.0703001e-55
1.0702284e-55
1.0702053e-55
1.0701992e-55
1.0701978e-55
1.0701976e-55
1.070198e-55
1.0701994e-55
1.070204e-55
1.0704129e-55
1.0702284e-55
1.0701567e-55
1.0701336e-55
1.0701274e-55
1.0701261e-55
1.0701259e-55
1.0701264e-55
1.0701281e-55
1.0701332e-55
1.0703898e-55
1.0702053e-55
1.0701336e-55
1.0701106e-55
1.0701044e-55
1.070103e-55
1.0701029e-55
1.0701034e-55
1.0701051e-55
1.0701105e-55
1.0703836e-55
1.0701992e-55
1.0701274e-55
1.0701044e-55
1.0700982e-55
1.0700968e-55
1.0700967e-55
1.0700972e-55
1.070099e-55
1.0701044e-55
1.0703822e-55
1.0701978e-55
1.0701261e-55
1.070103e-55
1.0700968e-55
1.0700954e-55
1.0700953e-55
1.0700958e-55
1.0700976e-55
1.070103e-55
1.070382e-55
1.0701976e-55
1.0701259e-55
1.0701029e-55
1.0700967e-55
1.0700953e-55
1.0700952e-55
1.0700957e-55
1.0700975e-55
1.0701029e-55
1.0703822e-55
1.070198e-55
1.0701264e-55
1.0701034e-55
1.0700972e-55
1.0700958e-55
1.0700957e-55
1.0700962e-55
1.070098e-55
1.0701034e-55
1.0703831e-55
1.0701994e-55
1.0701281e-55
1.0701051e-55
1.070099e-55
1.0700976e-55
1.0700975e-55
1.070098e-55
1.0700998e-55
1.0701052e-55
1.0703857e-55
1.070204e-55
1.0701332e-55
1.0701105e-55
1.0701044e-55
1.070103e-55
1.0701029e-55
1.0701034e-55
1.0701052e-55
1.0701106e-55
6.9324661e-55
6.9313103e-55
6.9308602e-55
6.9307153e-55
6.9306764e-55
6.9306677e-55
6.9306664e-55
6.9306678e-55
6.9306731e-55
6.9306895e-55
6.9313103e-55
6.9301552e-55
6.9297053e-55
6.9295604e-55
6.9295215e-55
6.9295128e-55
6.9295118e-55
6.9295141e-55
6.929523e-55
6.9295519e-55
6.9308602e-55
6.9297053e-55
6.9292554e-55
6.9291106e-55
6.9290717e-55
6.9290631e-55
6.9290622e-55
6.9290651e-55
6.9290758e-55
6.9291082e-55
6.9307153e-55
6.9295604e-55
6.9291106e-55
6.9289657e-55
6.9289269e-55
6.9289182e-55
6.9289174e-55
6.9289206e-55
6.9289318e-55
6.9289652e-55
6.9306764e-55
6.9295215e-55
6.9290717e-55
6.9289269e-55
6.928888e-55
6.9288794e-55
6.9288786e-55
6.9288818e-55
6.9288933e-55
6.9289269e-55
6.9306677e-55
6.9295128e-55
6.9290631e-55
6.9289182e-55
6.9288794e-55
6.9288708e-55
6.92887e-55
6.9288732e-55
6.9288847e-55
6.9289184e-55
6.9306664e-55
6.9295118e-55
6.9290622e-55
6.9289174e-55
6.9288786e-55
6.92887e-55
6.9288692e-55
6.9288724e-55
6.9288839e-55
6.9289176e-55
6.9306678e-55
6.9295141e-55
6.9290651e-55
6.9289206e-55
6.9288818e-55
6.9288732e-55
6.9288724e-55
6.9288757e-55
6.9288872e-55
6.9289208e-55
6.9306731e-55
6.929523e-55
6.9290758e-55
6.9289318e-55
6.9288933e-55
6.9288847e-55
6.9288839e-55
6.9288872e-55
6.9288987e-55
6.9289323e-55
6.9306895e-55
6.9295519e-55
6.9291082e-55
6.9289652e-55
6.9289269e-55
6.9289184e-55
6.9289176e-55
6.9289208e-55
6.9289323e-55
6.928966e-55
4.5914858e-54
4.590746e-54
4.5904574e-54
4.5903644e-54
4.5903394e-54
4.5903338e-54
4.590333e-54
4.5903339e-54
4.5903373e-54
4.5903476e-54
4.590746e-54
4.5900066e-54
4.5897181e-54
4.5896251e-54
4.5896001e-54
4.5895946e-54
4.5895939e-54
4.5895954e-54
4.5896011e-54
4.5896197e-54
4.5904574e-54
4.5897181e-54
4.5894296e-54
4.5893366e-54
4.5893117e-54
4.5893061e-54
4.5893056e-54
4.5893075e-54
4.5893144e-54
4.5893352e-54
4.5903644e-54
4.5896251e-54
4.5893366e-54
4.5892437e-54
4.5892188e-54
4.5892132e-54
4.5892127e-54
4.5892147e-54
4.589222e-54
4.5892435e-54
4.5903394e-54
4.5896001e-54
4.5893117e-54
4.5892188e-54
4.5891938e-54
4.5891883e-54
4.5891878e-54
4.5891899e-54
4.5891973e-54
4.5892189e-54
4.5903338e-54
4.5895946e-54
4.5893061e-54
4.5892132e-54
4.5891883e-54
4.5891827e-54
4.5891822e-54
4.5891843e-54
4.5891918e-54
4.5892134e-54
4.590333e-54
4.5895939e-54
4.5893056e-54
4.5892127e-54
4.5891878e-54
4.5891822e-54
4.5891817e-54
4.5891838e-54
4.5891913e-54
4.5892129e-54
4.5903339e-54
4.5895954e-54
4.5893075e-54
4.5892147e-54
4.5891899e-54
4.5891843e-54
4.5891838e-54
4.589186e-54
4.5891934e-54
4.589215e-54
4.5903373e-54
4.5896011e-54
4.5893144e-54
4.589222e-54
4.5891973e-54
4.5891918e-54
4.5891913e-54
4.5891934e-54
4.5892009e-54
4.5892225e-54
4.5903476e-54
4.5896197e-54
4.5893352e-54
4.5892435e-54
4.5892189e-54
4.5892134e-54
4.5892129e-54
4.589215e-54
4.5892225e-54
4.5892441e-54
3.1103477e-53
3.1098636e-53
3.1096745e-53
3.1096134e-53
3.1095971e-53
3.1095934e-53
3.1095929e-53
3.1095935e-53
3.1095957e-53
3.1096024e-53
3.1098636e-53
3.1093798e-53
3.1091907e-53
3.1091297e-53
3.1091134e-53
3.1091097e-53
3.1091093e-53
3.1091103e-53
3.1091141e-53
3.1091262e-53
3.1096745e-53
3.1091907e-53
3.1090016e-53
3.1089407e-53
3.1089243e-53
3.1089206e-53
3.1089203e-53
3.1089215e-53
3.1089261e-53
3.1089398e-53
3.1096134e-53
3.1091297e-53
3.1089407e-53
3.1088797e-53
3.1088633e-53
3.1088597e-53
3.1088594e-53
3.1088607e-53
3.1088656e-53
3.1088796e-53
3.1095971e-53
3.1091134e-53
3.1089243e-53
3.1088633e-53
3.108847e-53
3.1088433e-53
3.108843e-53
3.1088444e-53
3.1088493e-53
3.1088635e-53
3.1095934e-53
3.1091097e-53
3.1089206e-53
3.1088597e-53
3.1088433e-53
3.1088397e-53
3.1088394e-53
3.1088408e-53
3.1088457e-53
3.1088599e-53
3.1095929e-53
3.1091093e-53
3.1089203e-53
3.1088594e-53
3.108843e-53
3.1088394e-53
3.1088391e-53
3.1088405e-53
3.1088454e-53
3.1088596e-53
3.1095935e-53
3.1091103e-53
3.1089215e-53
3.1088607e-53
3.1088444e-53
3.1088408e-53
3.1088405e-53
3.1088419e-53
3.1088468e-53
3.108861e-53
3.1095957e-53
3.1091141e-53
3.1089261e-53
3.1088656e-53
3.1088493e-53
3.1088457e-53
3.1088454e-53
3.1088468e-53
3.1088517e-53
3.1088659e-53
3.1096024e-53
3.1091262e-53
3.1089398e-53
3.1088796e-53
3.1088635e-53
3.1088599e-53
3.1088596e-53
3.108861e-53
3.1088659e-53
3.1088801e-53
2.1547927e-52
2.154469e-52
2.1543423e-52
2.1543014e-52
2.1542904e-52
2.1542879e-52
2.1542876e-52
2.154288e-52
2.1542895e-52
2.1542939e-52
2.154469e-52
2.1541454e-52
2.1540188e-52
2.1539779e-52
2.1539669e-52
2.1539645e-52
2.1539642e-52
2.1539648e-52
2.1539674e-52
2.1539755e-52
2.1543423e-52
2.1540188e-52
2.1538921e-52
2.1538512e-52
2.1538403e-52
2.1538378e-52
2.1538376e-52
2.1538384e-52
2.1538415e-52
2.1538507e-52
2.1543014e-52
2.1539779e-52
2.1538512e-52
2.1538104e-52
2.1537994e-52
2.153797e-52
2.1537967e-52
2.1537977e-52
2.153801e-52
2.1538104e-52
2.1542904e-52
2.1539669e-52
2.1538403e-52
2.1537994e-52
2.1537884e-52
2.153786e-52
2.1537858e-52
2.1537867e-52
2.1537901e-52
2.1537996e-52
2.1542879e-52
2.1539645e-52
2.1538378e-52
2.153797e-52
2.153786e-52
2.1537836e-52
2.1537834e-52
2.1537843e-52
2.1537877e-52
2.1537972e-52
2.1542876e-52
2.1539642e-52
2.1538376e-52
2.1537967e-52
2.1537858e-52
2.1537834e-52
2.1537831e-52
2.1537841e-52
2.1537874e-52
2.153797e-52
2.154288e-52
2.1539648e-52
2.1538384e-52
2.1537977e-52
2.1537867e-52
2.1537843e-52
2.1537841e-52
2.1537851e-52
2.1537884e-52
2.1537979e-52
2.1542895e-52
2.1539674e-52
2.1538415e-52
2.153801e-52
2.1537901e-52
2.1537877e-52
2.1537874e-52
2.1537884e-52
2.1537917e-52
2.1538013e-52
2.1542939e-52
2.1539755e-52
2.1538507e-52
2.1538104e-52
2.1537996e-52
2.1537972e-52
2.153797e-52
2.1537979e-52
2.1538013e-52
2.1538108e-52
1.526465e-51
1.5262438e-51
1.526157e-51
1.526129e-51
1.5261215e-51
1.5261198e-51
1.5261196e-51
1.5261199e-51
1.5261209e-51
1.5261239e-51
1.5262438e-51
1.5260227e-51
1.525936e-51
1.525908e-51
1.5259005e-51
1.5258988e-51
1.5258986e-51
1.525899e-51
1.5259008e-51
1.5259064e-51
1.526157e-51
1.525936e-51
1.5258493e-51
1.5258213e-51
1.5258138e-51
1.5258121e-51
1.5258119e-51
1.5258125e-51
1.5258147e-51
1.525821e-51
1.526129e-51
1.525908e-51
1.5258213e-51
1.5257933e-51
1.5257858e-51
1.5257841e-51
1.525784e-51
1.5257846e-51
1.5257869e-51
1.5257934e-51
1.5261215e-51
1.5259005e-51
1.5258138e-51
1.5257858e-51
1.5257783e-51
1.5257766e-51
1.5257764e-51
1.5257771e-51
1.5257794e-51
1.5257859e-51
1.5261198e-51
1.5258988e-51
1.5258121e-51
1.5257841e-51
1.5257766e-51
1.5257749e-51
1.5257748e-51
1.5257754e-51
1.5257778e-51
1.5257843e-51
1.5261196e-51
1.5258986e-51
1.5258119e-51
1.525784e-51
1.5257764e-51
1.5257748e-51
1.5257746e-51
1.5257753e-51
1.5257776e-51
1.5257842e-51
1.5261199e-51
1.525899e-51
1.5258125e-51
1.5257846e-51
1.5257771e-51
1.5257754e-51
1.5257753e-51
1.525776e-51
1.5257783e-51
1.5257848e-51
1.5261209e-51
1.5259008e-51
1.5258147e-51
1.5257869e-51
1.5257794e-51
1.5257778e-51
1.5257776e-51
1.5257783e-51
1.5257806e-51
1.5257871e-51
1.5261239e-51
1.5259064e-51
1.525821e-51
1.5257934e-51
1.5257859e-51
1.5257843e-51
1.5257842e-51
1.5257848e-51
1.5257871e-51
1.5257937e-51
1.1055794e-50
1.105425e-50
1.1053643e-50
1.1053447e-50
1.1053395e-50
1.1053383e-50
1.1053381e-50
1.1053383e-50
1.1053391e-50
1.1053411e-50
1.105425e-50
1.1052706e-50
1.10521e-50
1.1051904e-50
1.1051851e-50
1.105184e-50
1.1051838e-50
1.1051842e-50
1.1051854e-50
1.1051893e-50
1.1053643e-50
1.10521e-50
1.1051494e-50
1.1051298e-50
1.1051245e-50
1.1051233e-50
1.1051232e-50
1.1051237e-50
1.1051252e-50
1.1051296e-50
1.1053447e-50
1.1051904e-50
1.1051298e-50
1.1051102e-50
1.1051049e-50
1.1051038e-50
1.1051037e-50
1.1051041e-50
1.1051057e-50
1.1051103e-50
1.1053395e-50
1.1051851e-50
1.1051245e-50
1.1051049e-50
1.1050997e-50
1.1050985e-50
1.1050984e-50
1.1050989e-50
1.1051005e-50
1.1051051e-50
1.1053383e-50
1.105184e-50
1.1051233e-50
1.1051038e-50
1.1050985e-50
1.1050973e-50
1.1050972e-50
1.1050977e-50
1.1050994e-50
1.1051039e-50
1.1053381e-50
1.1051838e-50
1.1051232e-50
1.1051037e-50
1.1050984e-50
1.1050972e-50
1.1050971e-50
1.1050976e-50
1.1050993e-50
1.1051039e-50
1.1053383e-50
1.1051842e-50
1.1051237e-50
1.1051041e-50
1.1050989e-50
1.1050977e-50
1.1050976e-50
1.1050981e-50
1.1050997e-50
1.1051043e-50
1.1053391e-50
1.1051854e-50
1.1051252e-50
1.1051057e-50
1.1051005e-50
1.1050994e-50
1.1050993e-50
1.1050997e-50
1.1051014e-50
1.105106e-50
1.1053411e-50
1.1051893e-50
1.1051296e-50
1.1051103e-50
1.1051051e-50
1.1051039e-50
1.1051039e-50
1.1051043e-50
1.105106e-50
1.1051106e-50
8.1854872e-50
8.1843857e-50
8.1839524e-50
8.1838123e-50
8.1837747e-50
8.1837662e-50
8.183765e-50
8.1837664e-50
8.1837718e-50
8.1837863e-50
8.1843857e-50
8.1832847e-50
8.1828515e-50
8.1827115e-50
8.1826739e-50
8.1826655e-50
8.1826645e-50
8.182667e-50
8.1826761e-50
8.182704e-50
8.1839524e-50
8.1828515e-50
8.1824185e-50
8.1822785e-50
8.1822409e-50
8.1822325e-50
8.1822317e-50
8.1822348e-50
8.1822458e-50
8.1822775e-50
8.1838123e-50
8.1827115e-50
8.1822785e-50
8.1821385e-50
8.1821009e-50
8.1820925e-50
8.1820918e-50
8.1820952e-50
8.1821068e-50
8.1821395e-50
8.1837747e-50
8.1826739e-50
8.1822409e-50
8.1821009e-50
8.1820633e-50
8.182055e-50
8.1820543e-50
8.1820577e-50
8.1820695e-50
8.1821025e-50
8.1837662e-50
8.1826655e-50
8.1822325e-50
8.1820925e-50
8.182055e-50
8.1820466e-50
8.1820459e-50
8.1820494e-50
8.1820612e-50
8.1820942e-50
8.183765e-50
8.1826645e-50
8.1822317e-50
8.1820918e-50
8.1820543e-50
8.1820459e-50
8.1820452e-50
8.1820487e-50
8.1820606e-50
8.1820935e-50
8.1837664e-50
8.182667e-50
8.1822348e-50
8.1820952e-50
8.1820577e-50
8.1820494e-50
8.1820487e-50
8.1820521e-50
8.182064e-50
8.182097e-50
8.1837718e-50
8.1826761e-50
8.1822458e-50
8.1821068e-50
8.1820695e-50
8.1820612e-50
8.1820606e-50
8.182064e-50
8.1820759e-50
8.1821089e-50
8.1837863e-50
8.182704e-50
8.1822775e-50
8.1821395e-50
8.1821025e-50
8.1820942e-50
8.1820935e-50
8.182097e-50
8.1821089e-50
8.1821419e-50
6.1940221e-49
6.1932198e-49
6.1929037e-49
6.1928015e-49
6.192774e-49
6.1927678e-49
6.1927669e-49
6.192768e-49
6.1927719e-49
6.1927824e-49
6.1932198e-49
6.1924178e-49
6.1921019e-49
6.1919996e-49
6.1919722e-49
6.191966e-49
6.1919653e-49
6.1919671e-49
6.1919739e-49
6.1919943e-49
6.1929037e-49
6.1921019e-49
6.1917859e-49
6.1916837e-49
6.1916563e-49
6.1916502e-49
6.1916496e-49
6.1916519e-49
6.19166e-49
6.1916833e-49
6.1928015e-49
6.1919996e-49
6.1916837e-49
6.1915816e-49
6.1915541e-49
6.191548e-49
6.1915475e-49
6.19155e-49
6.1915586e-49
6.1915826e-49
6.192774e-49
6.1919722e-49
6.1916563e-49
6.1915541e-49
6.1915267e-49
6.1915206e-49
6.1915201e-49
6.1915226e-49
6.1915314e-49
6.1915556e-49
6.1927678e-49
6.191966e-49
6.1916502e-49
6.191548e-49
6.1915206e-49
6.1915145e-49
6.191514e-49
6.1915165e-49
6.1915253e-49
6.1915495e-49
6.1927669e-49
6.1919653e-49
6.1916496e-49
6.1915475e-49
6.1915201e-49
6.191514e-49
6.1915135e-49
6.1915161e-49
6.1915248e-49
6.1915491e-49
6.192768e-49
6.1919671e-49
6.1916519e-49
6.19155e-49
6.1915226e-49
6.1915165e-49
6.1915161e-49
6.1915186e-49
6.1915274e-49
6.1915516e-49
6.1927719e-49
6.1919739e-49
6.19166e-49
6.1915586e-49
6.1915314e-49
6.1915253e-49
6.1915248e-49
6.1915274e-49
6.1915362e-49
6.1915604e-49
6.1927824e-49
6.1919943e-49
6.1916833e-49
6.1915826e-49
6.1915556e-49
6.1915495e-49
6.1915491e-49
6.1915516e-49
6.1915604e-49