/*--------------------------------*- C++ -*----------------------------------*\
| =========                 |                                                 |
| \\      /  F ield         | OpenFOAM: The Open Source CFD Toolbox           |
|  \\    /   O peration     | Version:  dev                                   |
|   \\  /    A nd           | Web:      www.OpenFOAM.org                      |
|    \\/     M anipulation  |                                                 |
\*---------------------------------------------------------------------------*/
FoamFile
{
    version     2.0;
    format      ascii;
    class       volScalarField;
    location    "13";
    object      A_0;
}
// * * * * * * * * * * * * * * * * * * * * * * * * * * * * * * * * * * * * * //

dimensions      [0 0 0 0 1 0 0];

internalField   nonuniform List<scalar> 
10000
(
9.1338989e-65
9.1316373e-65
9.1307855e-65
9.1305142e-65
9.1304417e-65
9.1304254e-65
9.1304229e-65
9.1304253e-65
9.1304357e-65
9.1304748e-65
9.1316373e-65
9.1293771e-65
9.1285258e-65
9.1282545e-65
9.1281821e-65
9.1281659e-65
9.1281637e-65
9.1281675e-65
9.1281835e-65
9.1282422e-65
9.1307855e-65
9.1285258e-65
9.1276746e-65
9.1274034e-65
9.127331e-65
9.1273148e-65
9.1273129e-65
9.1273177e-65
9.1273364e-65
9.1274006e-65
9.1305142e-65
9.1282545e-65
9.1274034e-65
9.1271322e-65
9.1270598e-65
9.1270437e-65
9.1270419e-65
9.127047e-65
9.1270667e-65
9.1271323e-65
9.1304417e-65
9.1281821e-65
9.127331e-65
9.1270598e-65
9.1269875e-65
9.1269713e-65
9.1269696e-65
9.1269748e-65
9.1269948e-65
9.1270607e-65
9.1304254e-65
9.1281659e-65
9.1273148e-65
9.1270437e-65
9.1269713e-65
9.1269552e-65
9.1269535e-65
9.1269587e-65
9.1269787e-65
9.1270448e-65
9.1304229e-65
9.1281637e-65
9.1273129e-65
9.1270419e-65
9.1269696e-65
9.1269535e-65
9.1269518e-65
9.126957e-65
9.126977e-65
9.1270431e-65
9.1304253e-65
9.1281675e-65
9.1273177e-65
9.127047e-65
9.1269748e-65
9.1269587e-65
9.126957e-65
9.1269623e-65
9.1269823e-65
9.1270483e-65
9.1304357e-65
9.1281835e-65
9.1273364e-65
9.1270667e-65
9.1269948e-65
9.1269787e-65
9.126977e-65
9.1269823e-65
9.1270023e-65
9.1270683e-65
9.1304748e-65
9.1282422e-65
9.1274006e-65
9.1271323e-65
9.1270607e-65
9.1270448e-65
9.1270431e-65
9.1270483e-65
9.1270683e-65
9.1271344e-65
5.5941706e-64
5.5928227e-64
5.5923111e-64
5.592148e-64
5.5921044e-64
5.5920946e-64
5.5920931e-64
5.5920945e-64
5.5921008e-64
5.5921251e-64
5.5928227e-64
5.5914756e-64
5.5909643e-64
5.5908012e-64
5.5907577e-64
5.590748e-64
5.5907467e-64
5.590749e-64
5.5907586e-64
5.5907948e-64
5.5923111e-64
5.5909643e-64
5.5904531e-64
5.5902901e-64
5.5902465e-64
5.5902368e-64
5.5902357e-64
5.5902386e-64
5.5902498e-64
5.5902894e-64
5.592148e-64
5.5908012e-64
5.5902901e-64
5.590127e-64
5.5900835e-64
5.5900738e-64
5.5900728e-64
5.5900759e-64
5.5900877e-64
5.5901281e-64
5.5921044e-64
5.5907577e-64
5.5902465e-64
5.5900835e-64
5.59004e-64
5.5900303e-64
5.5900293e-64
5.5900324e-64
5.5900445e-64
5.5900851e-64
5.5920946e-64
5.590748e-64
5.5902368e-64
5.5900738e-64
5.5900303e-64
5.5900206e-64
5.5900196e-64
5.5900228e-64
5.5900348e-64
5.5900755e-64
5.5920931e-64
5.5907467e-64
5.5902357e-64
5.5900728e-64
5.5900293e-64
5.5900196e-64
5.5900186e-64
5.5900217e-64
5.5900338e-64
5.5900745e-64
5.5920945e-64
5.590749e-64
5.5902386e-64
5.5900759e-64
5.5900324e-64
5.5900228e-64
5.5900217e-64
5.5900249e-64
5.590037e-64
5.5900777e-64
5.5921008e-64
5.5907586e-64
5.5902498e-64
5.5900877e-64
5.5900445e-64
5.5900348e-64
5.5900338e-64
5.590037e-64
5.5900491e-64
5.5900897e-64
5.5921251e-64
5.5907948e-64
5.5902894e-64
5.5901281e-64
5.5900851e-64
5.5900755e-64
5.5900745e-64
5.5900777e-64
5.5900897e-64
5.5901304e-64
2.8391027e-63
2.8384375e-63
2.8381843e-63
2.8381035e-63
2.8380819e-63
2.838077e-63
2.8380763e-63
2.838077e-63
2.8380801e-63
2.838092e-63
2.8384375e-63
2.8377726e-63
2.8375196e-63
2.8374388e-63
2.8374172e-63
2.8374124e-63
2.8374118e-63
2.8374129e-63
2.8374177e-63
2.8374355e-63
2.8381843e-63
2.8375196e-63
2.8372666e-63
2.8371858e-63
2.8371642e-63
2.8371594e-63
2.8371589e-63
2.8371603e-63
2.8371659e-63
2.8371854e-63
2.8381035e-63
2.8374388e-63
2.8371858e-63
2.8371051e-63
2.8370835e-63
2.8370787e-63
2.8370782e-63
2.8370797e-63
2.8370856e-63
2.8371056e-63
2.8380819e-63
2.8374172e-63
2.8371642e-63
2.8370835e-63
2.8370619e-63
2.8370571e-63
2.8370566e-63
2.8370582e-63
2.8370642e-63
2.8370842e-63
2.838077e-63
2.8374124e-63
2.8371594e-63
2.8370787e-63
2.8370571e-63
2.8370523e-63
2.8370518e-63
2.8370534e-63
2.8370594e-63
2.8370795e-63
2.8380763e-63
2.8374118e-63
2.8371589e-63
2.8370782e-63
2.8370566e-63
2.8370518e-63
2.8370513e-63
2.8370529e-63
2.8370589e-63
2.837079e-63
2.838077e-63
2.8374129e-63
2.8371603e-63
2.8370797e-63
2.8370582e-63
2.8370534e-63
2.8370529e-63
2.8370545e-63
2.8370605e-63
2.8370806e-63
2.8380801e-63
2.8374177e-63
2.8371659e-63
2.8370856e-63
2.8370642e-63
2.8370594e-63
2.8370589e-63
2.8370605e-63
2.8370665e-63
2.8370866e-63
2.838092e-63
2.8374355e-63
2.8371854e-63
2.8371056e-63
2.8370842e-63
2.8370795e-63
2.837079e-63
2.8370806e-63
2.8370866e-63
2.8371067e-63
1.4630654e-62
1.4627322e-62
1.4626051e-62
1.4625645e-62
1.4625536e-62
1.4625512e-62
1.4625508e-62
1.4625512e-62
1.4625527e-62
1.4625585e-62
1.4627322e-62
1.4623992e-62
1.4622722e-62
1.4622316e-62
1.4622207e-62
1.4622183e-62
1.462218e-62
1.4622186e-62
1.462221e-62
1.4622298e-62
1.4626051e-62
1.4622722e-62
1.4621452e-62
1.4621046e-62
1.4620937e-62
1.4620913e-62
1.462091e-62
1.4620918e-62
1.4620946e-62
1.4621043e-62
1.4625645e-62
1.4622316e-62
1.4621046e-62
1.462064e-62
1.4620532e-62
1.4620507e-62
1.4620505e-62
1.4620513e-62
1.4620542e-62
1.4620642e-62
1.4625536e-62
1.4622207e-62
1.4620937e-62
1.4620532e-62
1.4620423e-62
1.4620399e-62
1.4620397e-62
1.4620405e-62
1.4620435e-62
1.4620534e-62
1.4625512e-62
1.4622183e-62
1.4620913e-62
1.4620507e-62
1.4620399e-62
1.4620375e-62
1.4620372e-62
1.4620381e-62
1.4620411e-62
1.4620511e-62
1.4625508e-62
1.462218e-62
1.462091e-62
1.4620505e-62
1.4620397e-62
1.4620372e-62
1.462037e-62
1.4620378e-62
1.4620408e-62
1.4620508e-62
1.4625512e-62
1.4622186e-62
1.4620918e-62
1.4620513e-62
1.4620405e-62
1.4620381e-62
1.4620378e-62
1.4620386e-62
1.4620416e-62
1.4620516e-62
1.4625527e-62
1.462221e-62
1.4620946e-62
1.4620542e-62
1.4620435e-62
1.4620411e-62
1.4620408e-62
1.4620416e-62
1.4620446e-62
1.4620546e-62
1.4625585e-62
1.4622298e-62
1.4621043e-62
1.4620642e-62
1.4620534e-62
1.4620511e-62
1.4620508e-62
1.4620516e-62
1.4620546e-62
1.4620646e-62
7.7120741e-62
7.710368e-62
7.7097157e-62
7.7095071e-62
7.7094513e-62
7.7094388e-62
7.7094369e-62
7.7094387e-62
7.7094466e-62
7.7094756e-62
7.710368e-62
7.7086629e-62
7.7080109e-62
7.7078024e-62
7.7077467e-62
7.7077342e-62
7.7077325e-62
7.7077355e-62
7.7077479e-62
7.7077927e-62
7.7097157e-62
7.7080109e-62
7.7073589e-62
7.7071505e-62
7.7070948e-62
7.7070823e-62
7.7070809e-62
7.7070847e-62
7.7070992e-62
7.7071485e-62
7.7095071e-62
7.7078024e-62
7.7071505e-62
7.7069421e-62
7.7068864e-62
7.706874e-62
7.7068726e-62
7.7068767e-62
7.706892e-62
7.7069424e-62
7.7094513e-62
7.7077467e-62
7.7070948e-62
7.7068864e-62
7.7068307e-62
7.7068183e-62
7.706817e-62
7.7068211e-62
7.7068366e-62
7.7068873e-62
7.7094388e-62
7.7077342e-62
7.7070823e-62
7.706874e-62
7.7068183e-62
7.7068059e-62
7.7068046e-62
7.7068088e-62
7.7068243e-62
7.7068751e-62
7.7094369e-62
7.7077325e-62
7.7070809e-62
7.7068726e-62
7.706817e-62
7.7068046e-62
7.7068033e-62
7.7068075e-62
7.706823e-62
7.7068738e-62
7.7094387e-62
7.7077355e-62
7.7070847e-62
7.7068767e-62
7.7068211e-62
7.7068088e-62
7.7068075e-62
7.7068117e-62
7.7068272e-62
7.706878e-62
7.7094466e-62
7.7077479e-62
7.7070992e-62
7.706892e-62
7.7068366e-62
7.7068243e-62
7.706823e-62
7.7068272e-62
7.7068428e-62
7.7068936e-62
7.7094756e-62
7.7077927e-62
7.7071485e-62
7.7069424e-62
7.7068873e-62
7.7068751e-62
7.7068738e-62
7.706878e-62
7.7068936e-62
7.7069444e-62
4.1594424e-61
4.1585489e-61
4.1582065e-61
4.1580969e-61
4.1580676e-61
4.158061e-61
4.15806e-61
4.158061e-61
4.1580651e-61
4.1580799e-61
4.1585489e-61
4.1576559e-61
4.1573137e-61
4.1572041e-61
4.1571749e-61
4.1571683e-61
4.1571674e-61
4.157169e-61
4.1571755e-61
4.1571988e-61
4.1582065e-61
4.1573137e-61
4.1569715e-61
4.156862e-61
4.1568327e-61
4.1568262e-61
4.1568254e-61
4.1568274e-61
4.1568351e-61
4.1568607e-61
4.1580969e-61
4.1572041e-61
4.156862e-61
4.1567525e-61
4.1567232e-61
4.1567167e-61
4.156716e-61
4.1567182e-61
4.1567262e-61
4.1567525e-61
4.1580676e-61
4.1571749e-61
4.1568327e-61
4.1567232e-61
4.1566939e-61
4.1566874e-61
4.1566867e-61
4.156689e-61
4.1566971e-61
4.1567235e-61
4.158061e-61
4.1571683e-61
4.1568262e-61
4.1567167e-61
4.1566874e-61
4.1566809e-61
4.1566802e-61
4.1566825e-61
4.1566907e-61
4.1567171e-61
4.15806e-61
4.1571674e-61
4.1568254e-61
4.156716e-61
4.1566867e-61
4.1566802e-61
4.1566796e-61
4.1566818e-61
4.15669e-61
4.1567164e-61
4.158061e-61
4.157169e-61
4.1568274e-61
4.1567182e-61
4.156689e-61
4.1566825e-61
4.1566818e-61
4.156684e-61
4.1566922e-61
4.1567187e-61
4.1580651e-61
4.1571755e-61
4.1568351e-61
4.1567262e-61
4.1566971e-61
4.1566907e-61
4.15669e-61
4.1566922e-61
4.1567004e-61
4.1567269e-61
4.1580799e-61
4.1571988e-61
4.1568607e-61
4.1567525e-61
4.1567235e-61
4.1567171e-61
4.1567164e-61
4.1567187e-61
4.1567269e-61
4.1567533e-61
2.2954433e-60
2.2949647e-60
2.2947809e-60
2.294722e-60
2.2947063e-60
2.2947027e-60
2.2947022e-60
2.2947027e-60
2.2947049e-60
2.2947127e-60
2.2949647e-60
2.2944864e-60
2.2943026e-60
2.2942438e-60
2.294228e-60
2.2942245e-60
2.2942241e-60
2.2942249e-60
2.2942284e-60
2.2942408e-60
2.2947809e-60
2.2943026e-60
2.2941189e-60
2.2940601e-60
2.2940444e-60
2.2940409e-60
2.2940405e-60
2.2940416e-60
2.2940457e-60
2.2940593e-60
2.294722e-60
2.2942438e-60
2.2940601e-60
2.2940013e-60
2.2939856e-60
2.2939821e-60
2.2939817e-60
2.2939829e-60
2.2939872e-60
2.2940012e-60
2.2947063e-60
2.294228e-60
2.2940444e-60
2.2939856e-60
2.2939698e-60
2.2939663e-60
2.293966e-60
2.2939672e-60
2.2939716e-60
2.2939856e-60
2.2947027e-60
2.2942245e-60
2.2940409e-60
2.2939821e-60
2.2939663e-60
2.2939628e-60
2.2939625e-60
2.2939637e-60
2.2939681e-60
2.2939822e-60
2.2947022e-60
2.2942241e-60
2.2940405e-60
2.2939817e-60
2.293966e-60
2.2939625e-60
2.2939621e-60
2.2939633e-60
2.2939678e-60
2.2939818e-60
2.2947027e-60
2.2942249e-60
2.2940416e-60
2.2939829e-60
2.2939672e-60
2.2939637e-60
2.2939633e-60
2.2939645e-60
2.293969e-60
2.293983e-60
2.2947049e-60
2.2942284e-60
2.2940457e-60
2.2939872e-60
2.2939716e-60
2.2939681e-60
2.2939678e-60
2.293969e-60
2.2939734e-60
2.2939875e-60
2.2947127e-60
2.2942408e-60
2.2940593e-60
2.2940012e-60
2.2939856e-60
2.2939822e-60
2.2939818e-60
2.293983e-60
2.2939875e-60
2.2940016e-60
1.2961868e-59
1.2959247e-59
1.2958238e-59
1.2957914e-59
1.2957828e-59
1.2957808e-59
1.2957805e-59
1.2957808e-59
1.295782e-59
1.2957862e-59
1.2959247e-59
1.2956626e-59
1.2955618e-59
1.2955294e-59
1.2955208e-59
1.2955189e-59
1.2955186e-59
1.2955191e-59
1.295521e-59
1.2955277e-59
1.2958238e-59
1.2955618e-59
1.2954609e-59
1.2954286e-59
1.29542e-59
1.295418e-59
1.2954178e-59
1.2954184e-59
1.2954207e-59
1.2954281e-59
1.2957914e-59
1.2955294e-59
1.2954286e-59
1.2953963e-59
1.2953876e-59
1.2953857e-59
1.2953855e-59
1.2953862e-59
1.2953886e-59
1.2953962e-59
1.2957828e-59
1.2955208e-59
1.29542e-59
1.2953876e-59
1.295379e-59
1.2953771e-59
1.2953769e-59
1.2953775e-59
1.29538e-59
1.2953876e-59
1.2957808e-59
1.2955189e-59
1.295418e-59
1.2953857e-59
1.2953771e-59
1.2953751e-59
1.2953749e-59
1.2953756e-59
1.2953781e-59
1.2953857e-59
1.2957805e-59
1.2955186e-59
1.2954178e-59
1.2953855e-59
1.2953769e-59
1.2953749e-59
1.2953748e-59
1.2953754e-59
1.2953779e-59
1.2953856e-59
1.2957808e-59
1.2955191e-59
1.2954184e-59
1.2953862e-59
1.2953775e-59
1.2953756e-59
1.2953754e-59
1.2953761e-59
1.2953785e-59
1.2953862e-59
1.295782e-59
1.295521e-59
1.2954207e-59
1.2953886e-59
1.29538e-59
1.2953781e-59
1.2953779e-59
1.2953785e-59
1.295381e-59
1.2953887e-59
1.2957862e-59
1.2955277e-59
1.2954281e-59
1.2953962e-59
1.2953876e-59
1.2953857e-59
1.2953856e-59
1.2953862e-59
1.2953887e-59
1.2953964e-59
7.4891957e-59
7.4877269e-59
7.4871604e-59
7.4869787e-59
7.48693e-59
7.4869191e-59
7.4869174e-59
7.4869191e-59
7.4869258e-59
7.4869486e-59
7.4877269e-59
7.4862588e-59
7.4856926e-59
7.4855109e-59
7.4854623e-59
7.4854514e-59
7.48545e-59
7.4854528e-59
7.4854636e-59
7.485501e-59
7.4871604e-59
7.4856926e-59
7.4851264e-59
7.4849448e-59
7.4848962e-59
7.4848854e-59
7.4848842e-59
7.4848876e-59
7.4849005e-59
7.484942e-59
7.4869787e-59
7.4855109e-59
7.4849448e-59
7.4847632e-59
7.4847146e-59
7.4847038e-59
7.4847027e-59
7.4847064e-59
7.48472e-59
7.4847626e-59
7.48693e-59
7.4854623e-59
7.4848962e-59
7.4847146e-59
7.484666e-59
7.4846552e-59
7.4846541e-59
7.4846579e-59
7.4846717e-59
7.4847145e-59
7.4869191e-59
7.4854514e-59
7.4848854e-59
7.4847038e-59
7.4846552e-59
7.4846444e-59
7.4846433e-59
7.4846471e-59
7.484661e-59
7.4847039e-59
7.4869174e-59
7.48545e-59
7.4848842e-59
7.4847027e-59
7.4846541e-59
7.4846433e-59
7.4846423e-59
7.4846461e-59
7.4846599e-59
7.4847028e-59
7.4869191e-59
7.4854528e-59
7.4848876e-59
7.4847064e-59
7.4846579e-59
7.4846471e-59
7.4846461e-59
7.4846499e-59
7.4846637e-59
7.4847066e-59
7.4869258e-59
7.4854636e-59
7.4849005e-59
7.48472e-59
7.4846717e-59
7.484661e-59
7.4846599e-59
7.4846637e-59
7.4846776e-59
7.4847205e-59
7.4869486e-59
7.485501e-59
7.484942e-59
7.4847626e-59
7.4847145e-59
7.4847039e-59
7.4847028e-59
7.4847066e-59
7.4847205e-59
7.4847634e-59
4.4275255e-58
4.4266839e-58
4.4263586e-58
4.4262542e-58
4.4262263e-58
4.42622e-58
4.426219e-58
4.42622e-58
4.4262239e-58
4.4262367e-58
4.4266839e-58
4.4258427e-58
4.4255176e-58
4.4254133e-58
4.4253853e-58
4.4253791e-58
4.4253783e-58
4.4253799e-58
4.4253861e-58
4.4254074e-58
4.4263586e-58
4.4255176e-58
4.4251926e-58
4.4250882e-58
4.4250603e-58
4.4250541e-58
4.4250534e-58
4.4250554e-58
4.4250629e-58
4.4250866e-58
4.4262542e-58
4.4254133e-58
4.4250882e-58
4.4249839e-58
4.424956e-58
4.4249498e-58
4.4249491e-58
4.4249513e-58
4.4249592e-58
4.4249835e-58
4.4262263e-58
4.4253853e-58
4.4250603e-58
4.424956e-58
4.4249281e-58
4.4249218e-58
4.4249212e-58
4.4249234e-58
4.4249314e-58
4.4249559e-58
4.42622e-58
4.4253791e-58
4.4250541e-58
4.4249498e-58
4.4249218e-58
4.4249156e-58
4.424915e-58
4.4249172e-58
4.4249252e-58
4.4249497e-58
4.426219e-58
4.4253783e-58
4.4250534e-58
4.4249491e-58
4.4249212e-58
4.424915e-58
4.4249144e-58
4.4249166e-58
4.4249246e-58
4.4249491e-58
4.42622e-58
4.4253799e-58
4.4250554e-58
4.4249513e-58
4.4249234e-58
4.4249172e-58
4.4249166e-58
4.4249188e-58
4.4249269e-58
4.4249514e-58
4.4262239e-58
4.4253861e-58
4.4250629e-58
4.4249592e-58
4.4249314e-58
4.4249252e-58
4.4249246e-58
4.4249269e-58
4.4249349e-58
4.4249594e-58
4.4262367e-58
4.4254074e-58
4.4250866e-58
4.4249835e-58
4.4249559e-58
4.4249497e-58
4.4249491e-58
4.4249514e-58
4.4249594e-58
4.4249839e-58
2.6781305e-57
2.6776374e-57
2.6774464e-57
2.6773851e-57
2.6773687e-57
2.677365e-57
2.6773644e-57
2.677365e-57
2.6773672e-57
2.6773746e-57
2.6776374e-57
2.6771445e-57
2.6769537e-57
2.6768923e-57
2.6768759e-57
2.6768722e-57
2.6768718e-57
2.6768727e-57
2.6768764e-57
2.6768888e-57
2.6774464e-57
2.6769537e-57
2.6767628e-57
2.6767015e-57
2.6766851e-57
2.6766814e-57
2.676681e-57
2.6766822e-57
2.6766866e-57
2.6767005e-57
2.6773851e-57
2.6768923e-57
2.6767015e-57
2.6766402e-57
2.6766238e-57
2.6766201e-57
2.6766198e-57
2.6766211e-57
2.6766257e-57
2.6766399e-57
2.6773687e-57
2.6768759e-57
2.6766851e-57
2.6766238e-57
2.6766074e-57
2.6766037e-57
2.6766034e-57
2.6766047e-57
2.6766094e-57
2.6766237e-57
2.677365e-57
2.6768722e-57
2.6766814e-57
2.6766201e-57
2.6766037e-57
2.6766001e-57
2.6765997e-57
2.676601e-57
2.6766058e-57
2.6766201e-57
2.6773644e-57
2.6768718e-57
2.676681e-57
2.6766198e-57
2.6766034e-57
2.6765997e-57
2.6765994e-57
2.6766007e-57
2.6766054e-57
2.6766198e-57
2.677365e-57
2.6768727e-57
2.6766822e-57
2.6766211e-57
2.6766047e-57
2.676601e-57
2.6766007e-57
2.676602e-57
2.6766068e-57
2.6766211e-57
2.6773672e-57
2.6768764e-57
2.6766866e-57
2.6766257e-57
2.6766094e-57
2.6766058e-57
2.6766054e-57
2.6766068e-57
2.6766115e-57
2.6766258e-57
2.6773746e-57
2.6768888e-57
2.6767005e-57
2.6766399e-57
2.6766237e-57
2.6766201e-57
2.6766198e-57
2.6766211e-57
2.6766258e-57
2.6766402e-57
1.6574031e-56
1.6571077e-56
1.656993e-56
1.6569562e-56
1.6569463e-56
1.6569441e-56
1.6569437e-56
1.6569441e-56
1.6569455e-56
1.6569498e-56
1.6571077e-56
1.6568123e-56
1.6566978e-56
1.6566609e-56
1.6566511e-56
1.6566489e-56
1.6566486e-56
1.6566492e-56
1.6566514e-56
1.6566588e-56
1.656993e-56
1.6566978e-56
1.6565832e-56
1.6565464e-56
1.6565365e-56
1.6565343e-56
1.6565341e-56
1.6565348e-56
1.6565375e-56
1.6565458e-56
1.6569562e-56
1.6566609e-56
1.6565464e-56
1.6565096e-56
1.6564997e-56
1.6564975e-56
1.6564973e-56
1.6564981e-56
1.6565009e-56
1.6565094e-56
1.6569463e-56
1.6566511e-56
1.6565365e-56
1.6564997e-56
1.6564898e-56
1.6564876e-56
1.6564874e-56
1.6564882e-56
1.6564911e-56
1.6564997e-56
1.6569441e-56
1.6566489e-56
1.6565343e-56
1.6564975e-56
1.6564876e-56
1.6564854e-56
1.6564852e-56
1.656486e-56
1.6564889e-56
1.6564975e-56
1.6569437e-56
1.6566486e-56
1.6565341e-56
1.6564973e-56
1.6564874e-56
1.6564852e-56
1.656485e-56
1.6564858e-56
1.6564887e-56
1.6564973e-56
1.6569441e-56
1.6566492e-56
1.6565348e-56
1.6564981e-56
1.6564882e-56
1.656486e-56
1.6564858e-56
1.6564866e-56
1.6564895e-56
1.6564981e-56
1.6569455e-56
1.6566514e-56
1.6565375e-56
1.6565009e-56
1.6564911e-56
1.6564889e-56
1.6564887e-56
1.6564895e-56
1.6564924e-56
1.656501e-56
1.6569498e-56
1.6566588e-56
1.6565458e-56
1.6565094e-56
1.6564997e-56
1.6564975e-56
1.6564973e-56
1.6564981e-56
1.656501e-56
1.6565095e-56
1.0493627e-55
1.0491817e-55
1.0491113e-55
1.0490887e-55
1.0490826e-55
1.0490813e-55
1.0490811e-55
1.0490813e-55
1.0490821e-55
1.0490847e-55
1.0491817e-55
1.0490008e-55
1.0489304e-55
1.0489078e-55
1.0489017e-55
1.0489004e-55
1.0489002e-55
1.0489006e-55
1.048902e-55
1.0489065e-55
1.0491113e-55
1.0489304e-55
1.0488601e-55
1.0488375e-55
1.0488314e-55
1.0488301e-55
1.0488299e-55
1.0488304e-55
1.048832e-55
1.0488371e-55
1.0490887e-55
1.0489078e-55
1.0488375e-55
1.0488149e-55
1.0488088e-55
1.0488075e-55
1.0488073e-55
1.0488078e-55
1.0488096e-55
1.0488148e-55
1.0490826e-55
1.0489017e-55
1.0488314e-55
1.0488088e-55
1.0488028e-55
1.0488014e-55
1.0488013e-55
1.0488018e-55
1.0488036e-55
1.0488088e-55
1.0490813e-55
1.0489004e-55
1.0488301e-55
1.0488075e-55
1.0488014e-55
1.0488001e-55
1.0487999e-55
1.0488004e-55
1.0488022e-55
1.0488075e-55
1.0490811e-55
1.0489002e-55
1.0488299e-55
1.0488073e-55
1.0488013e-55
1.0487999e-55
1.0487998e-55
1.0488003e-55
1.0488021e-55
1.0488074e-55
1.0490813e-55
1.0489006e-55
1.0488304e-55
1.0488078e-55
1.0488018e-55
1.0488004e-55
1.0488003e-55
1.0488008e-55
1.0488026e-55
1.0488079e-55
1.0490821e-55
1.048902e-55
1.048832e-55
1.0488096e-55
1.0488036e-55
1.0488022e-55
1.0488021e-55
1.0488026e-55
1.0488044e-55
1.0488096e-55
1.0490847e-55
1.0489065e-55
1.0488371e-55
1.0488148e-55
1.0488088e-55
1.0488075e-55
1.0488074e-55
1.0488079e-55
1.0488096e-55
1.0488149e-55
6.7966295e-55
6.7954957e-55
6.7950542e-55
6.7949121e-55
6.794874e-55
6.7948654e-55
6.7948641e-55
6.7948655e-55
6.7948708e-55
6.7948868e-55
6.7954957e-55
6.7943625e-55
6.7939212e-55
6.7937791e-55
6.793741e-55
6.7937325e-55
6.7937315e-55
6.7937337e-55
6.7937425e-55
6.7937708e-55
6.7950542e-55
6.7939212e-55
6.79348e-55
6.7933379e-55
6.7932999e-55
6.7932914e-55
6.7932905e-55
6.7932933e-55
6.7933038e-55
6.7933356e-55
6.7949121e-55
6.7937791e-55
6.7933379e-55
6.7931959e-55
6.7931578e-55
6.7931494e-55
6.7931485e-55
6.7931516e-55
6.7931627e-55
6.7931954e-55
6.794874e-55
6.793741e-55
6.7932999e-55
6.7931578e-55
6.7931198e-55
6.7931113e-55
6.7931105e-55
6.7931137e-55
6.7931249e-55
6.7931578e-55
6.7948654e-55
6.7937325e-55
6.7932914e-55
6.7931494e-55
6.7931113e-55
6.7931028e-55
6.793102e-55
6.7931052e-55
6.7931165e-55
6.7931495e-55
6.7948641e-55
6.7937315e-55
6.7932905e-55
6.7931485e-55
6.7931105e-55
6.793102e-55
6.7931013e-55
6.7931044e-55
6.7931157e-55
6.7931487e-55
6.7948655e-55
6.7937337e-55
6.7932933e-55
6.7931516e-55
6.7931137e-55
6.7931052e-55
6.7931044e-55
6.7931076e-55
6.7931189e-55
6.7931519e-55
6.7948708e-55
6.7937425e-55
6.7933038e-55
6.7931627e-55
6.7931249e-55
6.7931165e-55
6.7931157e-55
6.7931189e-55
6.7931302e-55
6.7931632e-55
6.7948868e-55
6.7937708e-55
6.7933356e-55
6.7931954e-55
6.7931578e-55
6.7931495e-55
6.7931487e-55
6.7931519e-55
6.7931632e-55
6.7931962e-55
4.5029328e-54
4.5022069e-54
4.5019237e-54
4.5018324e-54
4.501808e-54
4.5018025e-54
4.5018016e-54
4.5018025e-54
4.5018059e-54
4.501816e-54
4.5022069e-54
4.5014812e-54
4.5011982e-54
4.501107e-54
4.5010825e-54
4.501077e-54
4.5010764e-54
4.5010778e-54
4.5010835e-54
4.5011016e-54
4.5019237e-54
4.5011982e-54
4.5009151e-54
4.500824e-54
4.5007995e-54
4.5007941e-54
4.5007935e-54
4.5007954e-54
4.5008021e-54
4.5008226e-54
4.5018324e-54
4.501107e-54
4.500824e-54
4.5007328e-54
4.5007083e-54
4.5007029e-54
4.5007024e-54
4.5007044e-54
4.5007116e-54
4.5007326e-54
4.501808e-54
4.5010825e-54
4.5007995e-54
4.5007083e-54
4.5006839e-54
4.5006785e-54
4.500678e-54
4.50068e-54
4.5006873e-54
4.5007084e-54
4.5018025e-54
4.501077e-54
4.5007941e-54
4.5007029e-54
4.5006785e-54
4.500673e-54
4.5006725e-54
4.5006746e-54
4.5006819e-54
4.5007031e-54
4.5018016e-54
4.5010764e-54
4.5007935e-54
4.5007024e-54
4.500678e-54
4.5006725e-54
4.500672e-54
4.5006741e-54
4.5006814e-54
4.5007026e-54
4.5018025e-54
4.5010778e-54
4.5007954e-54
4.5007044e-54
4.50068e-54
4.5006746e-54
4.5006741e-54
4.5006762e-54
4.5006835e-54
4.5007047e-54
4.5018059e-54
4.5010835e-54
4.5008021e-54
4.5007116e-54
4.5006873e-54
4.5006819e-54
4.5006814e-54
4.5006835e-54
4.5006908e-54
4.500712e-54
4.501816e-54
4.5011016e-54
4.5008226e-54
4.5007326e-54
4.5007084e-54
4.5007031e-54
4.5007026e-54
4.5007047e-54
4.500712e-54
4.5007332e-54
3.0513244e-53
3.0508492e-53
3.0506635e-53
3.0506037e-53
3.0505876e-53
3.050584e-53
3.0505835e-53
3.050584e-53
3.0505863e-53
3.0505928e-53
3.0508492e-53
3.0503742e-53
3.0501886e-53
3.0501288e-53
3.0501128e-53
3.0501092e-53
3.0501087e-53
3.0501097e-53
3.0501135e-53
3.0501253e-53
3.0506635e-53
3.0501886e-53
3.0500031e-53
3.0499433e-53
3.0499272e-53
3.0499236e-53
3.0499233e-53
3.0499245e-53
3.049929e-53
3.0499424e-53
3.0506037e-53
3.0501288e-53
3.0499433e-53
3.0498834e-53
3.0498674e-53
3.0498638e-53
3.0498635e-53
3.0498648e-53
3.0498696e-53
3.0498834e-53
3.0505876e-53
3.0501128e-53
3.0499272e-53
3.0498674e-53
3.0498514e-53
3.0498478e-53
3.0498475e-53
3.0498488e-53
3.0498537e-53
3.0498675e-53
3.050584e-53
3.0501092e-53
3.0499236e-53
3.0498638e-53
3.0498478e-53
3.0498442e-53
3.0498439e-53
3.0498453e-53
3.0498501e-53
3.049864e-53
3.0505835e-53
3.0501087e-53
3.0499233e-53
3.0498635e-53
3.0498475e-53
3.0498439e-53
3.0498436e-53
3.049845e-53
3.0498498e-53
3.0498637e-53
3.050584e-53
3.0501097e-53
3.0499245e-53
3.0498648e-53
3.0498488e-53
3.0498453e-53
3.049845e-53
3.0498463e-53
3.0498512e-53
3.0498651e-53
3.0505863e-53
3.0501135e-53
3.049929e-53
3.0498696e-53
3.0498537e-53
3.0498501e-53
3.0498498e-53
3.0498512e-53
3.049856e-53
3.0498699e-53
3.0505928e-53
3.0501253e-53
3.0499424e-53
3.0498834e-53
3.0498675e-53
3.049864e-53
3.0498637e-53
3.0498651e-53
3.0498699e-53
3.0498839e-53
2.1145743e-52
2.1142565e-52
2.1141321e-52
2.1140919e-52
2.1140812e-52
2.1140787e-52
2.1140784e-52
2.1140788e-52
2.1140803e-52
2.1140846e-52
2.1142565e-52
2.1139388e-52
2.1138144e-52
2.1137743e-52
2.1137635e-52
2.1137611e-52
2.1137608e-52
2.1137615e-52
2.113764e-52
2.113772e-52
2.1141321e-52
2.1138144e-52
2.1136901e-52
2.11365e-52
2.1136392e-52
2.1136368e-52
2.1136366e-52
2.1136374e-52
2.1136404e-52
2.1136494e-52
2.1140919e-52
2.1137743e-52
2.11365e-52
2.1136098e-52
2.1135991e-52
2.1135967e-52
2.1135965e-52
2.1135974e-52
2.1136006e-52
2.1136099e-52
2.1140812e-52
2.1137635e-52
2.1136392e-52
2.1135991e-52
2.1135883e-52
2.1135859e-52
2.1135857e-52
2.1135867e-52
2.1135899e-52
2.1135993e-52
2.1140787e-52
2.1137611e-52
2.1136368e-52
2.1135967e-52
2.1135859e-52
2.1135835e-52
2.1135833e-52
2.1135843e-52
2.1135876e-52
2.1135969e-52
2.1140784e-52
2.1137608e-52
2.1136366e-52
2.1135965e-52
2.1135857e-52
2.1135833e-52
2.1135831e-52
2.1135841e-52
2.1135873e-52
2.1135967e-52
2.1140788e-52
2.1137615e-52
2.1136374e-52
2.1135974e-52
2.1135867e-52
2.1135843e-52
2.1135841e-52
2.113585e-52
2.1135883e-52
2.1135976e-52
2.1140803e-52
2.113764e-52
2.1136404e-52
2.1136006e-52
2.1135899e-52
2.1135876e-52
2.1135873e-52
2.1135883e-52
2.1135916e-52
2.1136009e-52
2.1140846e-52
2.113772e-52
2.1136494e-52
2.1136099e-52
2.1135993e-52
2.1135969e-52
2.1135967e-52
2.1135976e-52
2.1136009e-52
2.1136103e-52
1.498453e-51
1.4982357e-51
1.4981506e-51
1.4981231e-51
1.4981157e-51
1.498114e-51
1.4981138e-51
1.4981141e-51
1.4981151e-51
1.498118e-51
1.4982357e-51
1.4980186e-51
1.4979334e-51
1.4979059e-51
1.4978985e-51
1.4978969e-51
1.4978967e-51
1.4978972e-51
1.4978989e-51
1.4979044e-51
1.4981506e-51
1.4979334e-51
1.4978483e-51
1.4978208e-51
1.4978134e-51
1.4978118e-51
1.4978116e-51
1.4978122e-51
1.4978143e-51
1.4978205e-51
1.4981231e-51
1.4979059e-51
1.4978208e-51
1.4977933e-51
1.4977859e-51
1.4977843e-51
1.4977842e-51
1.4977848e-51
1.497787e-51
1.4977934e-51
1.4981157e-51
1.4978985e-51
1.4978134e-51
1.4977859e-51
1.4977786e-51
1.4977769e-51
1.4977768e-51
1.4977774e-51
1.4977797e-51
1.4977861e-51
1.498114e-51
1.4978969e-51
1.4978118e-51
1.4977843e-51
1.4977769e-51
1.4977753e-51
1.4977751e-51
1.4977758e-51
1.4977781e-51
1.4977845e-51
1.4981138e-51
1.4978967e-51
1.4978116e-51
1.4977842e-51
1.4977768e-51
1.4977751e-51
1.497775e-51
1.4977757e-51
1.4977779e-51
1.4977844e-51
1.4981141e-51
1.4978972e-51
1.4978122e-51
1.4977848e-51
1.4977774e-51
1.4977758e-51
1.4977757e-51
1.4977763e-51
1.4977786e-51
1.497785e-51
1.4981151e-51
1.4978989e-51
1.4978143e-51
1.497787e-51
1.4977797e-51
1.4977781e-51
1.4977779e-51
1.4977786e-51
1.4977809e-51
1.4977873e-51
1.498118e-51
1.4979044e-51
1.4978205e-51
1.4977934e-51
1.4977861e-51
1.4977845e-51
1.4977844e-51
1.497785e-51
1.4977873e-51
1.4977937e-51
1.08564e-50
1.0854883e-50
1.0854287e-50
1.0854094e-50
1.0854043e-50
1.0854031e-50
1.0854029e-50
1.0854031e-50
1.0854039e-50
1.0854059e-50
1.0854883e-50
1.0853366e-50
1.085277e-50
1.0852578e-50
1.0852526e-50
1.0852515e-50
1.0852513e-50
1.0852517e-50
1.0852529e-50
1.0852567e-50
1.0854287e-50
1.085277e-50
1.0852175e-50
1.0851982e-50
1.0851931e-50
1.0851919e-50
1.0851918e-50
1.0851922e-50
1.0851937e-50
1.0851981e-50
1.0854094e-50
1.0852578e-50
1.0851982e-50
1.085179e-50
1.0851738e-50
1.0851727e-50
1.0851726e-50
1.085173e-50
1.0851746e-50
1.0851791e-50
1.0854043e-50
1.0852526e-50
1.0851931e-50
1.0851738e-50
1.0851687e-50
1.0851675e-50
1.0851674e-50
1.0851679e-50
1.0851695e-50
1.085174e-50
1.0854031e-50
1.0852515e-50
1.0851919e-50
1.0851727e-50
1.0851675e-50
1.0851664e-50
1.0851663e-50
1.0851667e-50
1.0851684e-50
1.0851729e-50
1.0854029e-50
1.0852513e-50
1.0851918e-50
1.0851726e-50
1.0851674e-50
1.0851663e-50
1.0851662e-50
1.0851667e-50
1.0851683e-50
1.0851728e-50
1.0854031e-50
1.0852517e-50
1.0851922e-50
1.085173e-50
1.0851679e-50
1.0851667e-50
1.0851667e-50
1.0851671e-50
1.0851687e-50
1.0851732e-50
1.0854039e-50
1.0852529e-50
1.0851937e-50
1.0851746e-50
1.0851695e-50
1.0851684e-50
1.0851683e-50
1.0851687e-50
1.0851703e-50
1.0851749e-50
1.0854059e-50
1.0852567e-50
1.0851981e-50
1.0851791e-50
1.085174e-50
1.0851729e-50
1.0851728e-50
1.0851732e-50
1.0851749e-50
1.0851794e-50
8.0404581e-50
8.0393754e-50
8.0389496e-50
8.038812e-50
8.0387751e-50
8.0387667e-50
8.0387656e-50
8.038767e-50
8.0387722e-50
8.0387864e-50
8.0393754e-50
8.0382933e-50
8.0378676e-50
8.0377301e-50
8.0376931e-50
8.0376849e-50
8.0376839e-50
8.0376863e-50
8.0376953e-50
8.0377227e-50
8.0389496e-50
8.0378676e-50
8.0374421e-50
8.0373045e-50
8.0372676e-50
8.0372594e-50
8.0372586e-50
8.0372616e-50
8.0372724e-50
8.0373036e-50
8.038812e-50
8.0377301e-50
8.0373045e-50
8.037167e-50
8.0371301e-50
8.0371219e-50
8.0371212e-50
8.0371245e-50
8.0371359e-50
8.037168e-50
8.0387751e-50
8.0376931e-50
8.0372676e-50
8.0371301e-50
8.0370932e-50
8.037085e-50
8.0370843e-50
8.0370876e-50
8.0370993e-50
8.0371316e-50
8.0387667e-50
8.0376849e-50
8.0372594e-50
8.0371219e-50
8.037085e-50
8.0370768e-50
8.0370761e-50
8.0370795e-50
8.0370911e-50
8.0371235e-50
8.0387656e-50
8.0376839e-50
8.0372586e-50
8.0371212e-50
8.0370843e-50
8.0370761e-50
8.0370754e-50
8.0370788e-50
8.0370905e-50
8.0371229e-50
8.038767e-50
8.0376863e-50
8.0372616e-50
8.0371245e-50
8.0370876e-50
8.0370795e-50
8.0370788e-50
8.0370822e-50
8.0370939e-50
8.0371263e-50
8.0387722e-50
8.0376953e-50
8.0372724e-50
8.0371359e-50
8.0370993e-50
8.0370911e-50
8.0370905e-50
8.0370939e-50
8.0371055e-50
8.0371379e-50
8.0387864e-50
8.0377227e-50
8.0373036e-50
8.037168e-50
8.0371316e-50
8.0371235e-50
8.0371229e-50
8.0371263e-50
8.0371379e-50
8.0371704e-50
6.0862547e-49
6.0854658e-49
6.0851551e-49
6.0850546e-49
6.0850277e-49
6.0850216e-49
6.0850207e-49
6.0850218e-49
6.0850256e-49
6.0850359e-49
6.0854658e-49
6.0846773e-49
6.0843667e-49
6.0842663e-49
6.0842393e-49
6.0842333e-49
6.0842326e-49
6.0842344e-49
6.084241e-49
6.0842611e-49
6.0851551e-49
6.0843667e-49
6.0840562e-49
6.0839558e-49
6.0839288e-49
6.0839228e-49
6.0839222e-49
6.0839245e-49
6.0839325e-49
6.0839554e-49
6.0850546e-49
6.0842663e-49
6.0839558e-49
6.0838553e-49
6.0838284e-49
6.0838224e-49
6.0838219e-49
6.0838243e-49
6.0838328e-49
6.0838564e-49
6.0850277e-49
6.0842393e-49
6.0839288e-49
6.0838284e-49
6.0838014e-49
6.0837954e-49
6.0837949e-49
6.0837974e-49
6.083806e-49
6.0838298e-49
6.0850216e-49
6.0842333e-49
6.0839228e-49
6.0838224e-49
6.0837954e-49
6.0837894e-49
6.083789e-49
6.0837915e-49
6.0838001e-49
6.0838239e-49
6.0850207e-49
6.0842326e-49
6.0839222e-49
6.0838219e-49
6.0837949e-49
6.083789e-49
6.0837885e-49
6.083791e-49
6.0837996e-49
6.0838234e-49
6.0850218e-49
6.0842344e-49
6.0839245e-49
6.0838243e-49
6.0837974e-49
6.0837915e-49
6.083791e-49
6.0837935e-49
6.0838021e-49
6.083826e-49
6.0850256e-49
6.084241e-49
6.0839325e-49
6.0838328e-49
6.083806e-49
6.0838001e-49
6.0837996e-49
6.0838021e-49
6.0838108e-49
6.0838346e-49
6.0850359e-49
6.0842611e-49
6.0839554e-49
6.0838564e-49
6.0838298e-49
6.0838239e-49
6.0838234e-49
6.083826e-49