/*--------------------------------*- C++ -*----------------------------------*\
| =========                 |                                                 |
| \\      /  F ield         | OpenFOAM: The Open Source CFD Toolbox           |
|  \\    /   O peration     | Version:  dev                                   |
|   \\  /    A nd           | Web:      www.OpenFOAM.org                      |
|    \\/     M anipulation  |                                                 |
\*---------------------------------------------------------------------------*/
FoamFile
{
    version     2.0;
    format      ascii;
    class       volScalarField;
    location    "51.995";
    object      A;
}
// * * * * * * * * * * * * * * * * * * * * * * * * * * * * * * * * * * * * * //

dimensions      [0 0 0 0 1 0 0];

internalField   nonuniform List<scalar> 
10000
(
3.7154054e-32
3.7078828e-32
3.7047652e-32
3.7035848e-32
3.7031947e-32
3.7030902e-32
3.7031007e-32
3.7032288e-32
3.7036265e-32
3.704632e-32
3.7078828e-32
3.7003996e-32
3.6972946e-32
3.6961184e-32
3.6957298e-32
3.6956266e-32
3.6956406e-32
3.6957808e-32
3.6962176e-32
3.697348e-32
3.7047652e-32
3.6972946e-32
3.6941956e-32
3.6930217e-32
3.6926342e-32
3.692532e-32
3.6925493e-32
3.6926987e-32
3.6931581e-32
3.6943269e-32
3.7035848e-32
3.6961184e-32
3.6930217e-32
3.6918488e-32
3.6914618e-32
3.6913604e-32
3.6913793e-32
3.6915332e-32
3.6920018e-32
3.6931822e-32
3.7031947e-32
3.6957298e-32
3.6926342e-32
3.6914618e-32
3.6910751e-32
3.6909739e-32
3.6909936e-32
3.6911492e-32
3.6916208e-32
3.6928046e-32
3.7030902e-32
3.6956266e-32
3.692532e-32
3.6913604e-32
3.6909739e-32
3.690873e-32
3.6908929e-32
3.691049e-32
3.6915216e-32
3.6927062e-32
3.7031007e-32
3.6956406e-32
3.6925493e-32
3.6913793e-32
3.6909936e-32
3.6908929e-32
3.690913e-32
3.6910693e-32
3.6915421e-32
3.6927271e-32
3.7032288e-32
3.6957808e-32
3.6926987e-32
3.6915332e-32
3.6911492e-32
3.691049e-32
3.6910693e-32
3.6912258e-32
3.6916988e-32
3.692884e-32
3.7036265e-32
3.6962176e-32
3.6931581e-32
3.6920018e-32
3.6916208e-32
3.6915216e-32
3.6915421e-32
3.6916988e-32
3.6921723e-32
3.6933585e-32
3.704632e-32
3.697348e-32
3.6943269e-32
3.6931822e-32
3.6928046e-32
3.6927062e-32
3.6927271e-32
3.692884e-32
3.6933585e-32
3.6945482e-32
1.3349364e-31
1.3323335e-31
1.3312284e-31
1.3308091e-31
1.3306705e-31
1.3306333e-31
1.330637e-31
1.3306823e-31
1.3308231e-31
1.331194e-31
1.3323335e-31
1.3297441e-31
1.3286433e-31
1.3282255e-31
1.3280874e-31
1.3280507e-31
1.3280556e-31
1.3281052e-31
1.3282601e-31
1.328676e-31
1.3312284e-31
1.3286433e-31
1.3275447e-31
1.3271277e-31
1.32699e-31
1.3269537e-31
1.3269597e-31
1.3270126e-31
1.3271756e-31
1.3276053e-31
1.3308091e-31
1.3282255e-31
1.3271277e-31
1.3267111e-31
1.3265735e-31
1.3265374e-31
1.3265441e-31
1.3265986e-31
1.3267649e-31
1.3271987e-31
1.3306705e-31
1.3280874e-31
1.32699e-31
1.3265735e-31
1.3264361e-31
1.3264001e-31
1.326407e-31
1.3264622e-31
1.3266295e-31
1.3270645e-31
1.3306333e-31
1.3280507e-31
1.3269537e-31
1.3265374e-31
1.3264001e-31
1.3263642e-31
1.3263712e-31
1.3264265e-31
1.3265942e-31
1.3270295e-31
1.330637e-31
1.3280556e-31
1.3269597e-31
1.3265441e-31
1.326407e-31
1.3263712e-31
1.3263783e-31
1.3264337e-31
1.3266015e-31
1.3270369e-31
1.3306823e-31
1.3281052e-31
1.3270126e-31
1.3265986e-31
1.3264622e-31
1.3264265e-31
1.3264337e-31
1.3264891e-31
1.326657e-31
1.3270925e-31
1.3308231e-31
1.3282601e-31
1.3271756e-31
1.3267649e-31
1.3266295e-31
1.3265942e-31
1.3266015e-31
1.326657e-31
1.326825e-31
1.3272609e-31
1.331194e-31
1.328676e-31
1.3276053e-31
1.3271987e-31
1.3270645e-31
1.3270295e-31
1.3270369e-31
1.3270925e-31
1.3272609e-31
1.3276981e-31
3.1162148e-31
3.1103328e-31
3.1078098e-31
3.1068504e-31
3.1065329e-31
3.1064476e-31
3.1064557e-31
3.1065584e-31
3.1068781e-31
3.1077452e-31
3.1103328e-31
3.1044806e-31
3.1019674e-31
3.1010113e-31
3.1006949e-31
3.1006107e-31
3.1006217e-31
3.1007345e-31
3.1010868e-31
3.1020587e-31
3.1078098e-31
3.1019674e-31
3.099459e-31
3.0985047e-31
3.0981892e-31
3.0981059e-31
3.0981196e-31
3.09824e-31
3.0986111e-31
3.099615e-31
3.1068504e-31
3.1010113e-31
3.0985047e-31
3.0975513e-31
3.0972362e-31
3.0971534e-31
3.0971686e-31
3.0972927e-31
3.0976714e-31
3.0986851e-31
3.1065329e-31
3.1006949e-31
3.0981892e-31
3.0972362e-31
3.0969213e-31
3.0968388e-31
3.0968545e-31
3.0969801e-31
3.0973613e-31
3.0983777e-31
3.1064476e-31
3.1006107e-31
3.0981059e-31
3.0971534e-31
3.0968388e-31
3.0967564e-31
3.0967724e-31
3.0968984e-31
3.0972804e-31
3.0982975e-31
3.1064557e-31
3.1006217e-31
3.0981196e-31
3.0971686e-31
3.0968545e-31
3.0967724e-31
3.0967885e-31
3.0969146e-31
3.0972969e-31
3.0983142e-31
3.1065584e-31
3.1007345e-31
3.09824e-31
3.0972927e-31
3.0969801e-31
3.0968984e-31
3.0969146e-31
3.0970409e-31
3.0974233e-31
3.0984409e-31
3.1068781e-31
3.1010868e-31
3.0986111e-31
3.0976714e-31
3.0973613e-31
3.0972804e-31
3.0972969e-31
3.0974233e-31
3.0978061e-31
3.0988245e-31
3.1077452e-31
3.1020587e-31
3.099615e-31
3.0986851e-31
3.0983777e-31
3.0982975e-31
3.0983142e-31
3.0984409e-31
3.0988245e-31
3.0998461e-31
6.867988e-31
6.855434e-31
6.8500194e-31
6.8479561e-31
6.8472723e-31
6.8470884e-31
6.8471052e-31
6.8473237e-31
6.848002e-31
6.8498513e-31
6.855434e-31
6.8429428e-31
6.837549e-31
6.8354926e-31
6.8348113e-31
6.8346297e-31
6.8346529e-31
6.8348933e-31
6.8356432e-31
6.8377226e-31
6.8500194e-31
6.837549e-31
6.8321652e-31
6.8301128e-31
6.8294333e-31
6.8292537e-31
6.8292827e-31
6.8295399e-31
6.830331e-31
6.8324806e-31
6.8479561e-31
6.8354926e-31
6.8301128e-31
6.8280622e-31
6.8273836e-31
6.8272052e-31
6.8272373e-31
6.8275027e-31
6.8283104e-31
6.8304813e-31
6.8472723e-31
6.8348113e-31
6.8294333e-31
6.8273836e-31
6.8267055e-31
6.8265276e-31
6.8265611e-31
6.8268295e-31
6.8276428e-31
6.8298197e-31
6.8470884e-31
6.8346297e-31
6.8292537e-31
6.8272052e-31
6.8265276e-31
6.8263501e-31
6.826384e-31
6.8266535e-31
6.8274684e-31
6.8296469e-31
6.8471052e-31
6.8346529e-31
6.8292827e-31
6.8272373e-31
6.8265611e-31
6.826384e-31
6.8264182e-31
6.826688e-31
6.8275035e-31
6.8296824e-31
6.8473237e-31
6.8348933e-31
6.8295399e-31
6.8275027e-31
6.8268295e-31
6.8266535e-31
6.826688e-31
6.8269581e-31
6.8277739e-31
6.8299533e-31
6.848002e-31
6.8356432e-31
6.830331e-31
6.8283104e-31
6.8276428e-31
6.8274684e-31
6.8275035e-31
6.8277739e-31
6.8285905e-31
6.8307716e-31
6.8498513e-31
6.8377226e-31
6.8324806e-31
6.8304813e-31
6.8298197e-31
6.8296469e-31
6.8296824e-31
6.8299533e-31
6.8307716e-31
6.8329597e-31
1.5114853e-30
1.5088105e-30
1.5076523e-30
1.5072101e-30
1.5070634e-30
1.5070238e-30
1.5070273e-30
1.5070736e-30
1.5072167e-30
1.5076051e-30
1.5088105e-30
1.5061489e-30
1.5049951e-30
1.5045544e-30
1.5044082e-30
1.5043691e-30
1.504374e-30
1.504425e-30
1.5045838e-30
1.5050226e-30
1.5076523e-30
1.5049951e-30
1.5038435e-30
1.5034036e-30
1.5032578e-30
1.5032192e-30
1.5032253e-30
1.50328e-30
1.5034477e-30
1.5039019e-30
1.5072101e-30
1.5045544e-30
1.5034036e-30
1.5029641e-30
1.5028184e-30
1.5027801e-30
1.5027869e-30
1.5028434e-30
1.5030148e-30
1.5034736e-30
1.5070634e-30
1.5044082e-30
1.5032578e-30
1.5028184e-30
1.5026729e-30
1.5026347e-30
1.5026418e-30
1.502699e-30
1.5028716e-30
1.5033317e-30
1.5070238e-30
1.5043691e-30
1.5032192e-30
1.5027801e-30
1.5026347e-30
1.5025965e-30
1.5026037e-30
1.5026611e-30
1.5028341e-30
1.5032946e-30
1.5070273e-30
1.504374e-30
1.5032253e-30
1.5027869e-30
1.5026418e-30
1.5026037e-30
1.502611e-30
1.5026684e-30
1.5028415e-30
1.5033021e-30
1.5070736e-30
1.504425e-30
1.50328e-30
1.5028434e-30
1.502699e-30
1.5026611e-30
1.5026684e-30
1.502726e-30
1.5028991e-30
1.5033598e-30
1.5072167e-30
1.5045838e-30
1.5034477e-30
1.5030148e-30
1.5028716e-30
1.5028341e-30
1.5028415e-30
1.5028991e-30
1.5030724e-30
1.5035335e-30
1.5076051e-30
1.5050226e-30
1.5039019e-30
1.5034736e-30
1.5033317e-30
1.5032946e-30
1.5033021e-30
1.5033598e-30
1.5035335e-30
1.503996e-30
3.3601771e-30
3.3544225e-30
3.3519225e-30
3.3509661e-30
3.3506483e-30
3.3505626e-30
3.3505697e-30
3.3506685e-30
3.3509729e-30
3.3517931e-30
3.3544225e-30
3.348696e-30
3.3462053e-30
3.345252e-30
3.3449354e-30
3.3448507e-30
3.3448609e-30
3.3449703e-30
3.3453093e-30
3.346241e-30
3.3519225e-30
3.3462053e-30
3.3437191e-30
3.3427676e-30
3.3424518e-30
3.3423681e-30
3.3423811e-30
3.3424986e-30
3.3428574e-30
3.343823e-30
3.3509661e-30
3.345252e-30
3.3427676e-30
3.3418169e-30
3.3415016e-30
3.3414184e-30
3.3414329e-30
3.3415544e-30
3.3419212e-30
3.3428971e-30
3.3506483e-30
3.3449354e-30
3.3424518e-30
3.3415016e-30
3.3411864e-30
3.3411035e-30
3.3411187e-30
3.3412416e-30
3.3416111e-30
3.3425899e-30
3.3505626e-30
3.3448507e-30
3.3423681e-30
3.3414184e-30
3.3411035e-30
3.3410208e-30
3.3410362e-30
3.3411596e-30
3.3415299e-30
3.3425094e-30
3.3505697e-30
3.3448609e-30
3.3423811e-30
3.3414329e-30
3.3411187e-30
3.3410362e-30
3.3410517e-30
3.3411753e-30
3.3415458e-30
3.3425256e-30
3.3506685e-30
3.3449703e-30
3.3424986e-30
3.3415544e-30
3.3412416e-30
3.3411596e-30
3.3411753e-30
3.3412989e-30
3.3416696e-30
3.3426496e-30
3.3509729e-30
3.3453093e-30
3.3428574e-30
3.3419212e-30
3.3416111e-30
3.3415299e-30
3.3415458e-30
3.3416696e-30
3.3420406e-30
3.3430214e-30
3.3517931e-30
3.346241e-30
3.343823e-30
3.3428971e-30
3.3425899e-30
3.3425094e-30
3.3425256e-30
3.3426496e-30
3.3430214e-30
3.3440052e-30
7.5646421e-30
7.5521098e-30
7.5466479e-30
7.5445544e-30
7.5438581e-30
7.5436699e-30
7.5436848e-30
7.5438985e-30
7.5445535e-30
7.5463048e-30
7.5521098e-30
7.5396382e-30
7.5341962e-30
7.5321095e-30
7.5314156e-30
7.5312298e-30
7.5312516e-30
7.5314889e-30
7.5322213e-30
7.534222e-30
7.5466479e-30
7.5341962e-30
7.5287642e-30
7.5266813e-30
7.5259892e-30
7.5258055e-30
7.5258336e-30
7.526089e-30
7.5268656e-30
7.5289422e-30
7.5445544e-30
7.5321095e-30
7.5266813e-30
7.5246003e-30
7.5239091e-30
7.5237267e-30
7.5237581e-30
7.5240222e-30
7.5248167e-30
7.5269163e-30
7.5438581e-30
7.5314156e-30
7.5259892e-30
7.5239091e-30
7.5232185e-30
7.5230366e-30
7.5230694e-30
7.5233368e-30
7.5241374e-30
7.5262435e-30
7.5436699e-30
7.5312298e-30
7.5258055e-30
7.5237267e-30
7.5230366e-30
7.5228551e-30
7.5228884e-30
7.5231569e-30
7.5239592e-30
7.526067e-30
7.5436848e-30
7.5312516e-30
7.5258336e-30
7.5237581e-30
7.5230694e-30
7.5228884e-30
7.522922e-30
7.5231909e-30
7.5239937e-30
7.526102e-30
7.5438985e-30
7.5314889e-30
7.526089e-30
7.5240222e-30
7.5233368e-30
7.5231569e-30
7.5231909e-30
7.52346e-30
7.5242632e-30
7.526372e-30
7.5445535e-30
7.5322213e-30
7.5268656e-30
7.5248167e-30
7.5241374e-30
7.5239592e-30
7.5239937e-30
7.5242632e-30
7.5250671e-30
7.5271775e-30
7.5463048e-30
7.534222e-30
7.5289422e-30
7.5269163e-30
7.5262435e-30
7.526067e-30
7.526102e-30
7.526372e-30
7.5271775e-30
7.5292943e-30
1.7255743e-29
1.7228101e-29
1.7216016e-29
1.7211375e-29
1.720983e-29
1.7209412e-29
1.7209443e-29
1.7209911e-29
1.7211339e-29
1.7215125e-29
1.7228101e-29
1.7200591e-29
1.718855e-29
1.7183924e-29
1.7182384e-29
1.7181971e-29
1.7182018e-29
1.7182539e-29
1.7184142e-29
1.7188494e-29
1.7216016e-29
1.718855e-29
1.717653e-29
1.7171912e-29
1.7170376e-29
1.7169968e-29
1.7170029e-29
1.7170592e-29
1.7172295e-29
1.7176818e-29
1.7211375e-29
1.7183924e-29
1.7171912e-29
1.7167299e-29
1.7165765e-29
1.716536e-29
1.7165429e-29
1.7166011e-29
1.7167754e-29
1.717233e-29
1.720983e-29
1.7182384e-29
1.7170376e-29
1.7165765e-29
1.7164232e-29
1.7163828e-29
1.71639e-29
1.716449e-29
1.7166247e-29
1.7170837e-29
1.7209412e-29
1.7181971e-29
1.7169968e-29
1.716536e-29
1.7163828e-29
1.7163425e-29
1.7163498e-29
1.716409e-29
1.7165851e-29
1.7170445e-29
1.7209443e-29
1.7182018e-29
1.7170029e-29
1.7165429e-29
1.71639e-29
1.7163498e-29
1.7163572e-29
1.7164165e-29
1.7165927e-29
1.7170522e-29
1.7209911e-29
1.7182539e-29
1.7170592e-29
1.7166011e-29
1.716449e-29
1.716409e-29
1.7164165e-29
1.7164758e-29
1.7166521e-29
1.7171117e-29
1.7211339e-29
1.7184142e-29
1.7172295e-29
1.7167754e-29
1.7166247e-29
1.7165851e-29
1.7165927e-29
1.7166521e-29
1.7168286e-29
1.7172885e-29
1.7215125e-29
1.7188494e-29
1.7176818e-29
1.717233e-29
1.7170837e-29
1.7170445e-29
1.7170522e-29
1.7171117e-29
1.7172885e-29
1.7177499e-29
3.9890909e-29
3.9829147e-29
3.9802063e-29
3.9791644e-29
3.978817e-29
3.9787228e-29
3.9787296e-29
3.9788335e-29
3.9791488e-29
3.979978e-29
3.9829147e-29
3.9767678e-29
3.974069e-29
3.9730303e-29
3.9726841e-29
3.9725911e-29
3.9726015e-29
3.9727176e-29
3.9730731e-29
3.974032e-29
3.9802063e-29
3.974069e-29
3.9713749e-29
3.9703381e-29
3.9699928e-29
3.9699009e-29
3.9699145e-29
3.97004e-29
3.9704184e-29
3.9714168e-29
3.9791644e-29
3.9730303e-29
3.9703381e-29
3.9693023e-29
3.9689574e-29
3.9688662e-29
3.9688814e-29
3.9690115e-29
3.9693991e-29
3.9704095e-29
3.978817e-29
3.9726841e-29
3.9699928e-29
3.9689574e-29
3.9686128e-29
3.9685219e-29
3.9685379e-29
3.9686696e-29
3.9690604e-29
3.9700741e-29
3.9787228e-29
3.9725911e-29
3.9699009e-29
3.9688662e-29
3.9685219e-29
3.9684311e-29
3.9684474e-29
3.9685796e-29
3.9689714e-29
3.969986e-29
3.9787296e-29
3.9726015e-29
3.9699145e-29
3.9688814e-29
3.9685379e-29
3.9684474e-29
3.9684638e-29
3.9685963e-29
3.9689883e-29
3.9700032e-29
3.9788335e-29
3.9727176e-29
3.97004e-29
3.9690115e-29
3.9686696e-29
3.9685796e-29
3.9685963e-29
3.9687288e-29
3.969121e-29
3.9701361e-29
3.9791488e-29
3.9730731e-29
3.9704184e-29
3.9693991e-29
3.9690604e-29
3.9689714e-29
3.9689883e-29
3.969121e-29
3.9695135e-29
3.9705294e-29
3.979978e-29
3.974032e-29
3.9714168e-29
3.9704095e-29
3.9700741e-29
3.969986e-29
3.9700032e-29
3.9701361e-29
3.9705294e-29
3.9715483e-29
9.3464612e-29
9.3324813e-29
9.3263321e-29
9.3239625e-29
9.3231714e-29
9.3229567e-29
9.3229714e-29
9.323205e-29
9.3239106e-29
9.3257505e-29
9.3324813e-29
9.318567e-29
9.3124393e-29
9.3100768e-29
9.3092885e-29
9.3090765e-29
9.3090995e-29
9.3093615e-29
9.3101604e-29
9.3123022e-29
9.3263321e-29
9.3124393e-29
9.3063224e-29
9.3039642e-29
9.3031778e-29
9.3029684e-29
9.3029988e-29
9.3032825e-29
9.3041347e-29
9.3063682e-29
9.3239625e-29
9.3100768e-29
9.3039642e-29
9.301608e-29
9.3008227e-29
9.3006148e-29
9.3006492e-29
9.3009434e-29
9.3018171e-29
9.3040783e-29
9.3231714e-29
9.3092885e-29
9.3031778e-29
9.3008227e-29
9.300038e-29
9.2998307e-29
9.2998668e-29
9.300165e-29
9.301046e-29
9.303315e-29
9.3229567e-29
9.3090765e-29
9.3029684e-29
9.3006148e-29
9.2998307e-29
9.2996239e-29
9.2996606e-29
9.2999601e-29
9.3008431e-29
9.3031143e-29
9.3229714e-29
9.3090995e-29
9.3029988e-29
9.3006492e-29
9.2998668e-29
9.2996606e-29
9.2996977e-29
9.2999976e-29
9.3008813e-29
9.303153e-29
9.323205e-29
9.3093615e-29
9.3032825e-29
9.3009434e-29
9.300165e-29
9.2999601e-29
9.2999976e-29
9.3002978e-29
9.3011818e-29
9.3034541e-29
9.3239106e-29
9.3101604e-29
9.3041347e-29
9.3018171e-29
9.301046e-29
9.3008431e-29
9.3008813e-29
9.3011818e-29
9.3020667e-29
9.3043406e-29
9.3257505e-29
9.3123022e-29
9.3063682e-29
9.3040783e-29
9.303315e-29
9.3031143e-29
9.303153e-29
9.3034541e-29
9.3043406e-29
9.3066211e-29
2.2196332e-28
2.2164274e-28
2.215013e-28
2.2144671e-28
2.2142846e-28
2.214235e-28
2.2142382e-28
2.2142914e-28
2.2144515e-28
2.2148651e-28
2.2164274e-28
2.2132364e-28
2.2118269e-28
2.2112826e-28
2.2111007e-28
2.2110518e-28
2.211057e-28
2.2111169e-28
2.2112988e-28
2.2117836e-28
2.215013e-28
2.2118269e-28
2.2104199e-28
2.2098766e-28
2.2096952e-28
2.2096468e-28
2.2096537e-28
2.2097187e-28
2.2099132e-28
2.2104196e-28
2.2144671e-28
2.2112826e-28
2.2098766e-28
2.2093337e-28
2.2091525e-28
2.2091045e-28
2.2091123e-28
2.2091798e-28
2.2093794e-28
2.2098923e-28
2.2142846e-28
2.2111007e-28
2.2096952e-28
2.2091525e-28
2.2089715e-28
2.2089236e-28
2.2089319e-28
2.2090003e-28
2.2092016e-28
2.2097163e-28
2.214235e-28
2.2110518e-28
2.2096468e-28
2.2091045e-28
2.2089236e-28
2.2088759e-28
2.2088843e-28
2.208953e-28
2.2091547e-28
2.20967e-28
2.2142382e-28
2.211057e-28
2.2096537e-28
2.2091123e-28
2.2089319e-28
2.2088843e-28
2.2088928e-28
2.2089616e-28
2.2091635e-28
2.2096789e-28
2.2142914e-28
2.2111169e-28
2.2097187e-28
2.2091798e-28
2.2090003e-28
2.208953e-28
2.2089616e-28
2.2090305e-28
2.2092325e-28
2.209748e-28
2.2144515e-28
2.2112988e-28
2.2099132e-28
2.2093794e-28
2.2092016e-28
2.2091547e-28
2.2091635e-28
2.2092325e-28
2.2094346e-28
2.2099505e-28
2.2148651e-28
2.2117836e-28
2.2104196e-28
2.2098923e-28
2.2097163e-28
2.20967e-28
2.2096789e-28
2.209748e-28
2.2099505e-28
2.2104678e-28
5.3431653e-28
5.335717e-28
5.3324214e-28
5.331147e-28
5.3307206e-28
5.3306045e-28
5.3306117e-28
5.3307346e-28
5.3311024e-28
5.3320449e-28
5.335717e-28
5.3283029e-28
5.3250185e-28
5.3237478e-28
5.3233228e-28
5.3232083e-28
5.3232201e-28
5.323359e-28
5.3237791e-28
5.3248913e-28
5.3324214e-28
5.3250185e-28
5.3217397e-28
5.3204713e-28
5.3200474e-28
5.3199343e-28
5.3199503e-28
5.3201013e-28
5.3205512e-28
5.321715e-28
5.331147e-28
5.3237478e-28
5.3204713e-28
5.319204e-28
5.3187806e-28
5.3186683e-28
5.3186866e-28
5.3188434e-28
5.3193054e-28
5.3204847e-28
5.3307206e-28
5.3233228e-28
5.3200474e-28
5.3187806e-28
5.3183576e-28
5.3182457e-28
5.3182648e-28
5.318424e-28
5.31889e-28
5.3200737e-28
5.3306045e-28
5.3232083e-28
5.3199343e-28
5.3186683e-28
5.3182457e-28
5.318134e-28
5.3181535e-28
5.3183133e-28
5.3187805e-28
5.3199654e-28
5.3306117e-28
5.3232201e-28
5.3199503e-28
5.3186866e-28
5.3182648e-28
5.3181535e-28
5.3181732e-28
5.3183333e-28
5.3188009e-28
5.3199861e-28
5.3307346e-28
5.323359e-28
5.3201013e-28
5.3188434e-28
5.318424e-28
5.3183133e-28
5.3183333e-28
5.3184935e-28
5.3189613e-28
5.3201467e-28
5.3311024e-28
5.3237791e-28
5.3205512e-28
5.3193054e-28
5.31889e-28
5.3187805e-28
5.3188009e-28
5.3189613e-28
5.3194295e-28
5.3206158e-28
5.3320449e-28
5.3248913e-28
5.321715e-28
5.3204847e-28
5.3200737e-28
5.3199654e-28
5.3199861e-28
5.3201467e-28
5.3206158e-28
5.3218054e-28
1.3038204e-27
1.302067e-27
1.301289e-27
1.3009877e-27
1.3008867e-27
1.3008592e-27
1.3008608e-27
1.3008896e-27
1.3009753e-27
1.3011929e-27
1.302067e-27
1.3003217e-27
1.2995463e-27
1.2992458e-27
1.2991452e-27
1.2991181e-27
1.2991208e-27
1.2991534e-27
1.2992517e-27
1.2995104e-27
1.301289e-27
1.2995463e-27
1.2987722e-27
1.2984723e-27
1.2983719e-27
1.2983451e-27
1.2983488e-27
1.2983844e-27
1.2984899e-27
1.298761e-27
1.3009877e-27
1.2992458e-27
1.2984723e-27
1.2981725e-27
1.2980723e-27
1.2980457e-27
1.29805e-27
1.298087e-27
1.2981954e-27
1.2984702e-27
1.3008867e-27
1.2991452e-27
1.2983719e-27
1.2980723e-27
1.2979722e-27
1.2979457e-27
1.2979502e-27
1.2979877e-27
1.2980971e-27
1.298373e-27
1.3008592e-27
1.2991181e-27
1.2983451e-27
1.2980457e-27
1.2979457e-27
1.2979192e-27
1.2979238e-27
1.2979615e-27
1.2980711e-27
1.2983473e-27
1.3008608e-27
1.2991208e-27
1.2983488e-27
1.29805e-27
1.2979502e-27
1.2979238e-27
1.2979284e-27
1.2979662e-27
1.2980759e-27
1.2983522e-27
1.3008896e-27
1.2991534e-27
1.2983844e-27
1.298087e-27
1.2979877e-27
1.2979615e-27
1.2979662e-27
1.2980039e-27
1.2981137e-27
1.2983901e-27
1.3009753e-27
1.2992517e-27
1.2984899e-27
1.2981954e-27
1.2980971e-27
1.2980711e-27
1.2980759e-27
1.2981137e-27
1.2982237e-27
1.2985002e-27
1.3011929e-27
1.2995104e-27
1.298761e-27
1.2984702e-27
1.298373e-27
1.2983473e-27
1.2983522e-27
1.2983901e-27
1.2985002e-27
1.2987775e-27
3.2251706e-27
3.2209889e-27
3.2191281e-27
3.2184061e-27
3.218164e-27
3.2180979e-27
3.2181016e-27
3.2181699e-27
3.2183721e-27
3.2188812e-27
3.2209889e-27
3.216826e-27
3.2149713e-27
3.2142514e-27
3.2140101e-27
3.2139449e-27
3.2139514e-27
3.214029e-27
3.2142622e-27
3.2148719e-27
3.2191281e-27
3.2149713e-27
3.2131198e-27
3.2124011e-27
3.2121604e-27
3.212096e-27
3.2121049e-27
3.2121898e-27
3.2124405e-27
3.2130807e-27
3.2184061e-27
3.2142514e-27
3.2124011e-27
3.211683e-27
3.2114426e-27
3.2113787e-27
3.211389e-27
3.2114773e-27
3.2117352e-27
3.2123846e-27
3.218164e-27
3.2140101e-27
3.2121604e-27
3.2114426e-27
3.2112024e-27
3.2111388e-27
3.2111495e-27
3.2112391e-27
3.2114994e-27
3.2121514e-27
3.2180979e-27
3.2139449e-27
3.212096e-27
3.2113787e-27
3.2111388e-27
3.2110752e-27
3.2110862e-27
3.2111763e-27
3.2114372e-27
3.2120899e-27
3.2181016e-27
3.2139514e-27
3.2121049e-27
3.211389e-27
3.2111495e-27
3.2110862e-27
3.2110973e-27
3.2111875e-27
3.2114487e-27
3.2121016e-27
3.2181699e-27
3.214029e-27
3.2121898e-27
3.2114773e-27
3.2112391e-27
3.2111763e-27
3.2111875e-27
3.2112778e-27
3.2115391e-27
3.2121921e-27
3.2183721e-27
3.2142622e-27
3.2124405e-27
3.2117352e-27
3.2114994e-27
3.2114372e-27
3.2114487e-27
3.2115391e-27
3.2118006e-27
3.2124541e-27
3.2188812e-27
3.2148719e-27
3.2130807e-27
3.2123846e-27
3.2121514e-27
3.2120899e-27
3.2121016e-27
3.2121921e-27
3.2124541e-27
3.2131093e-27
8.0874736e-27
8.0773685e-27
8.0728593e-27
8.0711069e-27
8.0705187e-27
8.070358e-27
8.0703666e-27
8.0705308e-27
8.0710145e-27
8.0722219e-27
8.0773685e-27
8.0673084e-27
8.0628139e-27
8.0610664e-27
8.0604801e-27
8.0603215e-27
8.0603369e-27
8.0605244e-27
8.0610849e-27
8.0625419e-27
8.0728593e-27
8.0628139e-27
8.0583269e-27
8.0565824e-27
8.0559975e-27
8.055841e-27
8.0558625e-27
8.0560677e-27
8.0566719e-27
8.0582046e-27
8.0711069e-27
8.0610664e-27
8.0565824e-27
8.0548394e-27
8.0542552e-27
8.0540999e-27
8.0541247e-27
8.0543385e-27
8.0549604e-27
8.0565158e-27
8.0705187e-27
8.0604801e-27
8.0559975e-27
8.0542552e-27
8.0536716e-27
8.0535168e-27
8.0535429e-27
8.05376e-27
8.0543878e-27
8.0559497e-27
8.070358e-27
8.0603215e-27
8.055841e-27
8.0540999e-27
8.0535168e-27
8.0533624e-27
8.053389e-27
8.0536071e-27
8.0542366e-27
8.0558002e-27
8.0703666e-27
8.0603369e-27
8.0558625e-27
8.0541247e-27
8.0535429e-27
8.053389e-27
8.0534159e-27
8.0536344e-27
8.0542644e-27
8.0558285e-27
8.0705308e-27
8.0605244e-27
8.0560677e-27
8.0543385e-27
8.05376e-27
8.0536071e-27
8.0536344e-27
8.053853e-27
8.0544833e-27
8.0560478e-27
8.0710145e-27
8.0610849e-27
8.0566719e-27
8.0549604e-27
8.0543878e-27
8.0542366e-27
8.0542644e-27
8.0544833e-27
8.0551141e-27
8.0566796e-27
8.0722219e-27
8.0625419e-27
8.0582046e-27
8.0565158e-27
8.0559497e-27
8.0558002e-27
8.0558285e-27
8.0560478e-27
8.0566796e-27
8.0582493e-27
2.0559048e-26
2.0534306e-26
2.0523236e-26
2.0518927e-26
2.0517479e-26
2.0517083e-26
2.0517103e-26
2.0517503e-26
2.0518676e-26
2.0521578e-26
2.0534306e-26
2.0509674e-26
2.049864e-26
2.0494342e-26
2.0492899e-26
2.0492508e-26
2.0492545e-26
2.0493004e-26
2.049437e-26
2.04979e-26
2.0523236e-26
2.049864e-26
2.0487623e-26
2.0483333e-26
2.0481893e-26
2.0481507e-26
2.048156e-26
2.0482063e-26
2.0483539e-26
2.0487259e-26
2.0518927e-26
2.0494342e-26
2.0483333e-26
2.0479046e-26
2.0477609e-26
2.0477226e-26
2.0477287e-26
2.0477811e-26
2.0479332e-26
2.0483109e-26
2.0517479e-26
2.0492899e-26
2.0481893e-26
2.0477609e-26
2.0476172e-26
2.047579e-26
2.0475855e-26
2.0476388e-26
2.0477923e-26
2.0481716e-26
2.0517083e-26
2.0492508e-26
2.0481507e-26
2.0477226e-26
2.047579e-26
2.047541e-26
2.0475476e-26
2.0476011e-26
2.047755e-26
2.0481348e-26
2.0517103e-26
2.0492545e-26
2.048156e-26
2.0477287e-26
2.0475855e-26
2.0475476e-26
2.0475542e-26
2.0476078e-26
2.0477619e-26
2.0481418e-26
2.0517503e-26
2.0493004e-26
2.0482063e-26
2.0477811e-26
2.0476388e-26
2.0476011e-26
2.0476078e-26
2.0476615e-26
2.0478156e-26
2.0481956e-26
2.0518676e-26
2.049437e-26
2.0483539e-26
2.0479332e-26
2.0477923e-26
2.047755e-26
2.0477619e-26
2.0478156e-26
2.0479699e-26
2.0483501e-26
2.0521578e-26
2.04979e-26
2.0487259e-26
2.0483109e-26
2.0481716e-26
2.0481348e-26
2.0481418e-26
2.0481956e-26
2.0483501e-26
2.0487313e-26
5.2981302e-26
5.2919928e-26
5.2892393e-26
5.2881658e-26
5.2878047e-26
5.2877058e-26
5.2877107e-26
5.2878095e-26
5.2880979e-26
5.2888047e-26
5.2919928e-26
5.2858822e-26
5.2831374e-26
5.2820668e-26
5.2817069e-26
5.2816093e-26
5.2816185e-26
5.2817322e-26
5.2820698e-26
5.2829365e-26
5.2892393e-26
5.2831374e-26
5.2803971e-26
5.2793283e-26
5.2789692e-26
5.278873e-26
5.2788861e-26
5.2790111e-26
5.2793765e-26
5.2802918e-26
5.2881658e-26
5.2820668e-26
5.2793283e-26
5.2782604e-26
5.2779018e-26
5.2778063e-26
5.2778215e-26
5.277952e-26
5.2783287e-26
5.2792585e-26
5.2878047e-26
5.2817069e-26
5.2789692e-26
5.2779018e-26
5.2775435e-26
5.2774484e-26
5.2774644e-26
5.277597e-26
5.2779775e-26
5.2789114e-26
5.2877058e-26
5.2816093e-26
5.278873e-26
5.2778063e-26
5.2774484e-26
5.2773535e-26
5.2773698e-26
5.2775031e-26
5.2778847e-26
5.2788197e-26
5.2877107e-26
5.2816185e-26
5.2788861e-26
5.2778215e-26
5.2774644e-26
5.2773698e-26
5.2773863e-26
5.2775198e-26
5.2779017e-26
5.2788371e-26
5.2878095e-26
5.2817322e-26
5.2790111e-26
5.277952e-26
5.277597e-26
5.2775031e-26
5.2775198e-26
5.2776535e-26
5.2780356e-26
5.2789711e-26
5.2880979e-26
5.2820698e-26
5.2793765e-26
5.2783287e-26
5.2779775e-26
5.2778847e-26
5.2779017e-26
5.2780356e-26
5.2784179e-26
5.2793541e-26
5.2888047e-26
5.2829365e-26
5.2802918e-26
5.2792585e-26
5.2789114e-26
5.2788197e-26
5.2788371e-26
5.2789711e-26
5.2793541e-26
5.2802926e-26
1.3840953e-25
1.3825528e-25
1.381859e-25
1.3815881e-25
1.3814969e-25
1.3814719e-25
1.381473e-25
1.3814978e-25
1.3815696e-25
1.3817441e-25
1.3825528e-25
1.381017e-25
1.3803254e-25
1.3800552e-25
1.3799642e-25
1.3799396e-25
1.3799419e-25
1.3799705e-25
1.380055e-25
1.3802708e-25
1.381859e-25
1.3803254e-25
1.3796348e-25
1.3793651e-25
1.3792744e-25
1.37925e-25
1.3792533e-25
1.3792848e-25
1.3793765e-25
1.3796048e-25
1.3815881e-25
1.3800552e-25
1.3793651e-25
1.3790955e-25
1.3790049e-25
1.3789808e-25
1.3789846e-25
1.3790176e-25
1.3791122e-25
1.3793442e-25
1.3814969e-25
1.3799642e-25
1.3792744e-25
1.3790049e-25
1.3789144e-25
1.3788904e-25
1.3788944e-25
1.3789279e-25
1.3790235e-25
1.3792566e-25
1.3814719e-25
1.3799396e-25
1.37925e-25
1.3789808e-25
1.3788904e-25
1.3788664e-25
1.3788705e-25
1.3789042e-25
1.3790001e-25
1.3792334e-25
1.381473e-25
1.3799419e-25
1.3792533e-25
1.3789846e-25
1.3788944e-25
1.3788705e-25
1.3788747e-25
1.3789084e-25
1.3790044e-25
1.3792378e-25
1.3814978e-25
1.3799705e-25
1.3792848e-25
1.3790176e-25
1.3789279e-25
1.3789042e-25
1.3789084e-25
1.3789421e-25
1.3790381e-25
1.3792717e-25
1.3815696e-25
1.380055e-25
1.3793765e-25
1.3791122e-25
1.3790235e-25
1.3790001e-25
1.3790044e-25
1.3790381e-25
1.3791342e-25
1.3793679e-25
1.3817441e-25
1.3802708e-25
1.3796048e-25
1.3793442e-25
1.3792566e-25
1.3792334e-25
1.3792378e-25
1.3792717e-25
1.3793679e-25
1.3796022e-25
3.6654024e-25
3.6614751e-25
3.6597039e-25
3.6590113e-25
3.6587779e-25
3.6587138e-25
3.6587167e-25
3.6587795e-25
3.6589609e-25
3.6593975e-25
3.6614751e-25
3.6575646e-25
3.6557989e-25
3.655108e-25
3.6548753e-25
3.6548122e-25
3.654818e-25
3.6548908e-25
3.6551054e-25
3.65565e-25
3.6597039e-25
3.6557989e-25
3.654036e-25
3.6533463e-25
3.6531142e-25
3.6530519e-25
3.6530603e-25
3.6531408e-25
3.6533741e-25
3.6539514e-25
3.6590113e-25
3.655108e-25
3.6533463e-25
3.6526572e-25
3.6524254e-25
3.6523636e-25
3.6523734e-25
3.6524576e-25
3.6526985e-25
3.6532856e-25
3.6587779e-25
3.6548753e-25
3.6531142e-25
3.6524254e-25
3.6521937e-25
3.6521322e-25
3.6521426e-25
3.6522282e-25
3.6524716e-25
3.6530615e-25
3.6587138e-25
3.6548122e-25
3.6530519e-25
3.6523636e-25
3.6521322e-25
3.6520708e-25
3.6520814e-25
3.6521674e-25
3.6524116e-25
3.6530023e-25
3.6587167e-25
3.654818e-25
3.6530603e-25
3.6523734e-25
3.6521426e-25
3.6520814e-25
3.6520922e-25
3.6521783e-25
3.6524228e-25
3.6530136e-25
3.6587795e-25
3.6548908e-25
3.6531408e-25
3.6524576e-25
3.6522282e-25
3.6521674e-25
3.6521783e-25
3.6522646e-25
3.6525091e-25
3.6531001e-25
3.6589609e-25
3.6551054e-25
3.6533741e-25
3.6526985e-25
3.6524716e-25
3.6524116e-25
3.6524228e-25
3.6525091e-25
3.6527538e-25
3.6533452e-25
3.6593975e-25
3.65565e-25
3.6539514e-25
3.6532856e-25
3.6530615e-25
3.6530023e-25
3.6530136e-25
3.6531001e-25
3.6533452e-25
3.6539379e-25
9.8394802e-25
9.8293505e-25
9.8247707e-25
9.822977e-25
9.8223719e-25
9.8222058e-25
9.8222131e-25
9.8223746e-25
9.8228389e-25
9.823946e-25
9.8293505e-25
9.8192638e-25
9.8146979e-25
9.8129088e-25
9.8123056e-25
9.8121418e-25
9.8121568e-25
9.8123449e-25
9.8128969e-25
9.8142901e-25
9.8247707e-25
9.8146979e-25
9.8101392e-25
9.8083531e-25
9.8077513e-25
9.8075898e-25
9.8076117e-25
9.80782e-25
9.8084218e-25
9.8099015e-25
9.822977e-25
9.8129088e-25
9.8083531e-25
9.8065685e-25
9.8059675e-25
9.8058073e-25
9.8058329e-25
9.806051e-25
9.8066728e-25
9.8081786e-25
9.8223719e-25
9.8123056e-25
9.8077513e-25
9.8059675e-25
9.8053671e-25
9.8052075e-25
9.8052346e-25
9.8054564e-25
9.8060849e-25
9.8075981e-25
9.8222058e-25
9.8121418e-25
9.8075898e-25
9.8058073e-25
9.8052075e-25
9.8050483e-25
9.805076e-25
9.8052989e-25
9.8059295e-25
9.8074446e-25
9.8222131e-25
9.8121568e-25
9.8076117e-25
9.8058329e-25
9.8052346e-25
9.805076e-25
9.805104e-25
9.8053273e-25
9.8059585e-25
9.8074741e-25
9.8223746e-25
9.8123449e-25
9.80782e-25
9.806051e-25
9.8054564e-25
9.8052989e-25
9.8053273e-25
9.8055509e-25
9.8061823e-25
9.8076983e-25
9.8228389e-25
9.8128969e-25
9.8084218e-25
9.8066728e-25
9.8060849e-25
9.8059295e-25
9.8059585e-25
9.8061823e-25
9.8068142e-25
9.8083311e-25
9.823946e-25
9.8142901e-25
9.8099015e-25
9.8081786e-25
9.8075981e-25
9.8074446e-25
9.8074741e-25
9.8076983e-25
9.8083311e-25
9.8098517e-25
2.6772795e-24
2.6746329e-24
2.6734334e-24
2.672963e-24
2.6728041e-24
2.6727604e-24
2.6727623e-24
2.6728044e-24
2.6729248e-24
2.6732093e-24
2.6746329e-24
2.6719975e-24
2.6708016e-24
2.6703323e-24
2.6701739e-24
2.6701309e-24
2.6701348e-24
2.6701841e-24
2.670328e-24
2.6706893e-24
2.6734334e-24
2.6708016e-24
2.6696075e-24
2.669139e-24
2.6689811e-24
2.6689386e-24
2.6689444e-24
2.6689991e-24
2.6691563e-24
2.6695408e-24
2.672963e-24
2.6703323e-24
2.669139e-24
2.6686709e-24
2.6685131e-24
2.6684711e-24
2.6684778e-24
2.6685351e-24
2.6686978e-24
2.6690893e-24
2.6728041e-24
2.6701739e-24
2.6689811e-24
2.6685131e-24
2.6683555e-24
2.6683136e-24
2.6683208e-24
2.668379e-24
2.6685435e-24
2.668937e-24
2.6727604e-24
2.6701309e-24
2.6689386e-24
2.6684711e-24
2.6683136e-24
2.6682718e-24
2.6682791e-24
2.6683377e-24
2.6685027e-24
2.6688967e-24
2.6727623e-24
2.6701348e-24
2.6689444e-24
2.6684778e-24
2.6683208e-24
2.6682791e-24
2.6682865e-24
2.6683452e-24
2.6685104e-24
2.6689045e-24
2.6728044e-24
2.6701841e-24
2.6689991e-24
2.6685351e-24
2.668379e-24
2.6683377e-24
2.6683452e-24
2.6684039e-24
2.6685692e-24
2.6689634e-24
2.6729248e-24
2.670328e-24
2.6691563e-24
2.6686978e-24
2.6685435e-24
2.6685027e-24
2.6685104e-24
2.6685692e-24
2.6687346e-24
2.669129e-24
2.6732093e-24
2.6706893e-24
2.6695408e-24
2.6690893e-24
2.668937e-24
2.6688967e-24
2.6689045e-24
2.6689634e-24
2.669129e-24