/*--------------------------------*- C++ -*----------------------------------*\
| =========                 |                                                 |
| \\      /  F ield         | OpenFOAM: The Open Source CFD Toolbox           |
|  \\    /   O peration     | Version:  dev                                   |
|   \\  /    A nd           | Web:      www.OpenFOAM.org                      |
|    \\/     M anipulation  |                                                 |
\*---------------------------------------------------------------------------*/
FoamFile
{
    version     2.0;
    format      ascii;
    class       volScalarField;
    location    "51.995";
    object      A_0;
}
// * * * * * * * * * * * * * * * * * * * * * * * * * * * * * * * * * * * * * //

dimensions      [0 0 0 0 1 0 0];

internalField   nonuniform List<scalar> 
10000
(
3.5576793e-32
3.5504684e-32
3.5474835e-32
3.546355e-32
3.5459829e-32
3.5458833e-32
3.5458934e-32
3.5460159e-32
3.5463963e-32
3.5473593e-32
3.5504684e-32
3.5432954e-32
3.5403225e-32
3.5391981e-32
3.5388273e-32
3.538729e-32
3.5387425e-32
3.5388764e-32
3.5392944e-32
3.540377e-32
3.5474835e-32
3.5403225e-32
3.5373553e-32
3.5362331e-32
3.5358634e-32
3.5357661e-32
3.5357826e-32
3.5359254e-32
3.536365e-32
3.5374845e-32
3.546355e-32
3.5391981e-32
3.5362331e-32
3.5351119e-32
3.5347426e-32
3.534646e-32
3.5346642e-32
3.5348113e-32
3.5352596e-32
3.5363902e-32
3.5459829e-32
3.5388273e-32
3.5358634e-32
3.5347426e-32
3.5343736e-32
3.5342772e-32
3.5342961e-32
3.5344448e-32
3.5348961e-32
3.5360298e-32
3.5458833e-32
3.538729e-32
3.5357661e-32
3.534646e-32
3.5342772e-32
3.5341811e-32
3.5342002e-32
3.5343494e-32
3.5348015e-32
3.5359361e-32
3.5458934e-32
3.5387425e-32
3.5357826e-32
3.5346642e-32
3.5342961e-32
3.5342002e-32
3.5342194e-32
3.5343688e-32
3.5348212e-32
3.5359561e-32
3.5460159e-32
3.5388764e-32
3.5359254e-32
3.5348113e-32
3.5344448e-32
3.5343494e-32
3.5343688e-32
3.5345184e-32
3.5349709e-32
3.5361061e-32
3.5463963e-32
3.5392944e-32
3.536365e-32
3.5352596e-32
3.5348961e-32
3.5348015e-32
3.5348212e-32
3.5349709e-32
3.535424e-32
3.5365601e-32
3.5473593e-32
3.540377e-32
3.5374845e-32
3.5363902e-32
3.5360298e-32
3.5359361e-32
3.5359561e-32
3.5361061e-32
3.5365601e-32
3.5376996e-32
1.2785281e-31
1.2760327e-31
1.2749744e-31
1.2745735e-31
1.2744412e-31
1.2744057e-31
1.2744093e-31
1.2744526e-31
1.2745873e-31
1.2749426e-31
1.2760327e-31
1.27355e-31
1.2724959e-31
1.2720964e-31
1.2719646e-31
1.2719296e-31
1.2719343e-31
1.2719818e-31
1.27213e-31
1.2725284e-31
1.2749744e-31
1.2724959e-31
1.2714438e-31
1.2710451e-31
1.2709137e-31
1.2708791e-31
1.2708849e-31
1.2709355e-31
1.2710914e-31
1.271503e-31
1.2745735e-31
1.2720964e-31
1.2710451e-31
1.2706468e-31
1.2705155e-31
1.2704811e-31
1.2704875e-31
1.2705396e-31
1.2706987e-31
1.2711143e-31
1.2744412e-31
1.2719646e-31
1.2709137e-31
1.2705155e-31
1.2703843e-31
1.27035e-31
1.2703566e-31
1.2704093e-31
1.2705695e-31
1.2709862e-31
1.2744057e-31
1.2719296e-31
1.2708791e-31
1.2704811e-31
1.27035e-31
1.2703158e-31
1.2703225e-31
1.2703754e-31
1.2705359e-31
1.2709529e-31
1.2744093e-31
1.2719343e-31
1.2708849e-31
1.2704875e-31
1.2703566e-31
1.2703225e-31
1.2703293e-31
1.2703823e-31
1.2705428e-31
1.27096e-31
1.2744526e-31
1.2719818e-31
1.2709355e-31
1.2705396e-31
1.2704093e-31
1.2703754e-31
1.2703823e-31
1.2704353e-31
1.2705959e-31
1.2710131e-31
1.2745873e-31
1.27213e-31
1.2710914e-31
1.2706987e-31
1.2705695e-31
1.2705359e-31
1.2705428e-31
1.2705959e-31
1.2707567e-31
1.2711742e-31
1.2749426e-31
1.2725284e-31
1.271503e-31
1.2711143e-31
1.2709862e-31
1.2709529e-31
1.27096e-31
1.2710131e-31
1.2711742e-31
1.2715931e-31
2.985597e-31
2.9799556e-31
2.9775386e-31
2.976621e-31
2.9763178e-31
2.9762365e-31
2.9762443e-31
2.9763426e-31
2.9766485e-31
2.9774794e-31
2.9799556e-31
2.9743428e-31
2.9719352e-31
2.9710207e-31
2.9707187e-31
2.9706384e-31
2.970649e-31
2.9707568e-31
2.9710941e-31
2.9720255e-31
2.9775386e-31
2.9719352e-31
2.9695322e-31
2.9686195e-31
2.9683183e-31
2.9682389e-31
2.968252e-31
2.9683672e-31
2.9687224e-31
2.9696845e-31
2.976621e-31
2.9710207e-31
2.9686195e-31
2.9677076e-31
2.9674068e-31
2.9673279e-31
2.9673424e-31
2.9674611e-31
2.9678236e-31
2.968795e-31
2.9763178e-31
2.9707187e-31
2.9683183e-31
2.9674068e-31
2.9671061e-31
2.9670275e-31
2.9670425e-31
2.9671626e-31
2.9675276e-31
2.9685016e-31
2.9762365e-31
2.9706384e-31
2.9682389e-31
2.9673279e-31
2.9670275e-31
2.966949e-31
2.9669643e-31
2.9670848e-31
2.9674505e-31
2.9684251e-31
2.9762443e-31
2.970649e-31
2.968252e-31
2.9673424e-31
2.9670425e-31
2.9669643e-31
2.9669797e-31
2.9671003e-31
2.9674662e-31
2.9684411e-31
2.9763426e-31
2.9707568e-31
2.9683672e-31
2.9674611e-31
2.9671626e-31
2.9670848e-31
2.9671003e-31
2.9672211e-31
2.9675871e-31
2.9685623e-31
2.9766485e-31
2.9710941e-31
2.9687224e-31
2.9678236e-31
2.9675276e-31
2.9674505e-31
2.9674662e-31
2.9675871e-31
2.9679536e-31
2.9689295e-31
2.9774794e-31
2.9720255e-31
2.9696845e-31
2.968795e-31
2.9685016e-31
2.9684251e-31
2.9684411e-31
2.9685623e-31
2.9689295e-31
2.9699085e-31
6.5829584e-31
6.5709128e-31
6.5657236e-31
6.5637492e-31
6.5630961e-31
6.5629207e-31
6.5629369e-31
6.5631459e-31
6.5637955e-31
6.5655682e-31
6.5709128e-31
6.5589275e-31
6.5537581e-31
6.5517904e-31
6.5511397e-31
6.5509665e-31
6.5509888e-31
6.5512188e-31
6.5519371e-31
6.5539305e-31
6.5657236e-31
6.5537581e-31
6.5485984e-31
6.5466345e-31
6.5459855e-31
6.5458142e-31
6.5458421e-31
6.5460882e-31
6.5468458e-31
6.5489067e-31
6.5637492e-31
6.5517904e-31
6.5466345e-31
6.5446724e-31
6.5440242e-31
6.5438541e-31
6.5438849e-31
6.5441388e-31
6.5449124e-31
6.5469935e-31
6.5630961e-31
6.5511397e-31
6.5459855e-31
6.5440242e-31
6.5433765e-31
6.5432069e-31
6.5432389e-31
6.5434958e-31
6.5442747e-31
6.5463616e-31
6.5629207e-31
6.5509665e-31
6.5458142e-31
6.5438541e-31
6.5432069e-31
6.5430376e-31
6.5430701e-31
6.5433279e-31
6.5441084e-31
6.5461968e-31
6.5629369e-31
6.5509888e-31
6.5458421e-31
6.5438849e-31
6.5432389e-31
6.5430701e-31
6.5431029e-31
6.543361e-31
6.544142e-31
6.5462309e-31
6.5631459e-31
6.5512188e-31
6.5460882e-31
6.5441388e-31
6.5434958e-31
6.5433279e-31
6.543361e-31
6.5436193e-31
6.5444007e-31
6.54649e-31
6.5637955e-31
6.5519371e-31
6.5468458e-31
6.5449124e-31
6.5442747e-31
6.5441084e-31
6.544142e-31
6.5444007e-31
6.5451827e-31
6.5472737e-31
6.5655682e-31
6.5539305e-31
6.5489067e-31
6.5469935e-31
6.5463616e-31
6.5461968e-31
6.5462309e-31
6.54649e-31
6.5472737e-31
6.5493714e-31
1.4494324e-30
1.4468647e-30
1.4457543e-30
1.4453309e-30
1.4451907e-30
1.445153e-30
1.4451563e-30
1.4452006e-30
1.4453377e-30
1.4457102e-30
1.4468647e-30
1.4443097e-30
1.4432035e-30
1.4427815e-30
1.4426418e-30
1.4426046e-30
1.4426093e-30
1.4426581e-30
1.4428103e-30
1.4432311e-30
1.4457543e-30
1.4432035e-30
1.4420993e-30
1.4416781e-30
1.4415388e-30
1.441502e-30
1.4415079e-30
1.4415602e-30
1.441721e-30
1.4421566e-30
1.4453309e-30
1.4427815e-30
1.4416781e-30
1.4412574e-30
1.4411182e-30
1.4410817e-30
1.4410882e-30
1.4411423e-30
1.4413065e-30
1.4417466e-30
1.4451907e-30
1.4426418e-30
1.4415388e-30
1.4411182e-30
1.4409792e-30
1.4409427e-30
1.4409495e-30
1.4410042e-30
1.4411696e-30
1.4416109e-30
1.445153e-30
1.4426046e-30
1.441502e-30
1.4410817e-30
1.4409427e-30
1.4409063e-30
1.4409132e-30
1.4409681e-30
1.4411339e-30
1.4415755e-30
1.4451563e-30
1.4426093e-30
1.4415079e-30
1.4410882e-30
1.4409495e-30
1.4409132e-30
1.4409202e-30
1.4409752e-30
1.441141e-30
1.4415828e-30
1.4452006e-30
1.4426581e-30
1.4415602e-30
1.4411423e-30
1.4410042e-30
1.4409681e-30
1.4409752e-30
1.4410302e-30
1.4411961e-30
1.441638e-30
1.4453377e-30
1.4428103e-30
1.441721e-30
1.4413065e-30
1.4411696e-30
1.4411339e-30
1.441141e-30
1.4411961e-30
1.4413622e-30
1.4418044e-30
1.4457102e-30
1.4432311e-30
1.4421566e-30
1.4417466e-30
1.4416109e-30
1.4415755e-30
1.4415828e-30
1.441638e-30
1.4418044e-30
1.442248e-30
3.2237798e-30
3.218253e-30
3.2158547e-30
3.2149387e-30
3.2146349e-30
3.2145531e-30
3.21456e-30
3.2146546e-30
3.2149463e-30
3.2157333e-30
3.218253e-30
3.2127532e-30
3.2103639e-30
3.2094508e-30
3.2091481e-30
3.2090673e-30
3.2090772e-30
3.2091819e-30
3.2095069e-30
3.2104009e-30
3.2158547e-30
3.2103639e-30
3.2079789e-30
3.2070676e-30
3.2067657e-30
3.2066858e-30
3.2066983e-30
3.2068109e-30
3.2071548e-30
3.2080814e-30
3.2149387e-30
3.2094508e-30
3.2070676e-30
3.2061571e-30
3.2058556e-30
3.2057762e-30
3.2057902e-30
3.2059065e-30
3.2062581e-30
3.2071945e-30
3.2146349e-30
3.2091481e-30
3.2067657e-30
3.2058556e-30
3.2055543e-30
3.2054752e-30
3.2054897e-30
3.2056074e-30
3.2059616e-30
3.2069008e-30
3.2145531e-30
3.2090673e-30
3.2066858e-30
3.2057762e-30
3.2054752e-30
3.2053962e-30
3.205411e-30
3.2055292e-30
3.2058841e-30
3.2068241e-30
3.21456e-30
3.2090772e-30
3.2066983e-30
3.2057902e-30
3.2054897e-30
3.205411e-30
3.2054259e-30
3.2055442e-30
3.2058994e-30
3.2068396e-30
3.2146546e-30
3.2091819e-30
3.2068109e-30
3.2059065e-30
3.2056074e-30
3.2055292e-30
3.2055442e-30
3.2056626e-30
3.2060179e-30
3.2069583e-30
3.2149463e-30
3.2095069e-30
3.2071548e-30
3.2062581e-30
3.2059616e-30
3.2058841e-30
3.2058994e-30
3.2060179e-30
3.2063736e-30
3.2073147e-30
3.2157333e-30
3.2104009e-30
3.2080814e-30
3.2071945e-30
3.2069008e-30
3.2068241e-30
3.2068396e-30
3.2069583e-30
3.2073147e-30
3.2082587e-30
7.2611392e-30
7.249097e-30
7.243855e-30
7.2418489e-30
7.2411829e-30
7.2410032e-30
7.2410176e-30
7.2412223e-30
7.2418504e-30
7.2435315e-30
7.249097e-30
7.2371132e-30
7.2318904e-30
7.2298907e-30
7.2292271e-30
7.2290496e-30
7.2290706e-30
7.229298e-30
7.2300004e-30
7.2319211e-30
7.243855e-30
7.2318904e-30
7.2266769e-30
7.2246811e-30
7.2240191e-30
7.2238437e-30
7.2238707e-30
7.2241154e-30
7.2248602e-30
7.2268539e-30
7.2418489e-30
7.2298907e-30
7.2246811e-30
7.222687e-30
7.2220259e-30
7.2218517e-30
7.2218818e-30
7.2221349e-30
7.2228969e-30
7.2249126e-30
7.2411829e-30
7.2292271e-30
7.2240191e-30
7.2220259e-30
7.2213652e-30
7.2211916e-30
7.2212231e-30
7.2214793e-30
7.222247e-30
7.224269e-30
7.2410032e-30
7.2290496e-30
7.2238437e-30
7.2218517e-30
7.2211916e-30
7.2210183e-30
7.2210503e-30
7.2213075e-30
7.2220769e-30
7.2241005e-30
7.2410176e-30
7.2290706e-30
7.2238707e-30
7.2218818e-30
7.2212231e-30
7.2210503e-30
7.2210825e-30
7.2213401e-30
7.2221101e-30
7.2241341e-30
7.2412223e-30
7.229298e-30
7.2241154e-30
7.2221349e-30
7.2214793e-30
7.2213075e-30
7.2213401e-30
7.2215979e-30
7.2223682e-30
7.2243927e-30
7.2418504e-30
7.2300004e-30
7.2248602e-30
7.2228969e-30
7.222247e-30
7.2220769e-30
7.2221101e-30
7.2223682e-30
7.2231392e-30
7.2251652e-30
7.2435315e-30
7.2319211e-30
7.2268539e-30
7.2249126e-30
7.224269e-30
7.2241005e-30
7.2241341e-30
7.2243927e-30
7.2251652e-30
7.2271975e-30
1.6571678e-29
1.6545104e-29
1.65335e-29
1.6529051e-29
1.6527572e-29
1.6527172e-29
1.6527203e-29
1.6527651e-29
1.6529021e-29
1.6532657e-29
1.6545104e-29
1.6518657e-29
1.6507094e-29
1.650266e-29
1.6501186e-29
1.6500791e-29
1.6500837e-29
1.6501337e-29
1.6502875e-29
1.6507054e-29
1.65335e-29
1.6507094e-29
1.6495553e-29
1.6491126e-29
1.6489656e-29
1.6489266e-29
1.6489325e-29
1.6489864e-29
1.6491498e-29
1.6495843e-29
1.6529051e-29
1.650266e-29
1.6491126e-29
1.6486703e-29
1.6485235e-29
1.6484848e-29
1.6484914e-29
1.6485472e-29
1.6487145e-29
1.649154e-29
1.6527572e-29
1.6501186e-29
1.6489656e-29
1.6485235e-29
1.6483768e-29
1.6483382e-29
1.6483451e-29
1.6484017e-29
1.6485703e-29
1.6490111e-29
1.6527172e-29
1.6500791e-29
1.6489266e-29
1.6484848e-29
1.6483382e-29
1.6482997e-29
1.6483067e-29
1.6483635e-29
1.6485325e-29
1.6489737e-29
1.6527203e-29
1.6500837e-29
1.6489325e-29
1.6484914e-29
1.6483451e-29
1.6483067e-29
1.6483138e-29
1.6483706e-29
1.6485397e-29
1.6489811e-29
1.6527651e-29
1.6501337e-29
1.6489864e-29
1.6485472e-29
1.6484017e-29
1.6483635e-29
1.6483706e-29
1.6484275e-29
1.6485967e-29
1.6490382e-29
1.6529021e-29
1.6502875e-29
1.6491498e-29
1.6487145e-29
1.6485703e-29
1.6485325e-29
1.6485397e-29
1.6485967e-29
1.648766e-29
1.6492078e-29
1.6532657e-29
1.6507054e-29
1.6495843e-29
1.649154e-29
1.6490111e-29
1.6489737e-29
1.6489811e-29
1.6490382e-29
1.6492078e-29
1.6496509e-29
3.8328894e-29
3.8269488e-29
3.8243468e-29
3.8233474e-29
3.8230148e-29
3.8229248e-29
3.8229313e-29
3.8230309e-29
3.8233336e-29
3.8241304e-29
3.8269488e-29
3.8210364e-29
3.8184436e-29
3.8174473e-29
3.8171159e-29
3.817027e-29
3.817037e-29
3.8171483e-29
3.8174896e-29
3.8184112e-29
3.8243468e-29
3.8184436e-29
3.8158554e-29
3.814861e-29
3.8145303e-29
3.8144425e-29
3.8144556e-29
3.8145759e-29
3.8149392e-29
3.8158987e-29
3.8233474e-29
3.8174473e-29
3.814861e-29
3.8138674e-29
3.8135372e-29
3.81345e-29
3.8134647e-29
3.8135894e-29
3.8139616e-29
3.8149325e-29
3.8230148e-29
3.8171159e-29
3.8145303e-29
3.8135372e-29
3.8132072e-29
3.8131203e-29
3.8131357e-29
3.813262e-29
3.8136372e-29
3.8146114e-29
3.8229248e-29
3.817027e-29
3.8144425e-29
3.81345e-29
3.8131203e-29
3.8130336e-29
3.8130492e-29
3.8131761e-29
3.8135521e-29
3.8145272e-29
3.8229313e-29
3.817037e-29
3.8144556e-29
3.8134647e-29
3.8131357e-29
3.8130492e-29
3.813065e-29
3.813192e-29
3.8135684e-29
3.8145437e-29
3.8230309e-29
3.8171483e-29
3.8145759e-29
3.8135894e-29
3.813262e-29
3.8131761e-29
3.813192e-29
3.8133192e-29
3.8136956e-29
3.8146712e-29
3.8233336e-29
3.8174896e-29
3.8149392e-29
3.8139616e-29
3.8136372e-29
3.8135521e-29
3.8135684e-29
3.8136956e-29
3.8140725e-29
3.8150487e-29
3.8241304e-29
3.8184112e-29
3.8158987e-29
3.8149325e-29
3.8146114e-29
3.8145272e-29
3.8145437e-29
3.8146712e-29
3.8150487e-29
3.8160278e-29
8.9850838e-29
8.9716303e-29
8.9657197e-29
8.9634456e-29
8.9626878e-29
8.9624824e-29
8.9624967e-29
8.9627208e-29
8.9633984e-29
8.9651672e-29
8.9716303e-29
8.9582399e-29
8.95235e-29
8.9500828e-29
8.9493276e-29
8.9491249e-29
8.9491471e-29
8.9493984e-29
8.9501659e-29
8.9522251e-29
8.9657197e-29
8.95235e-29
8.9464705e-29
8.9442074e-29
8.9434541e-29
8.9432538e-29
8.9432831e-29
8.9435553e-29
8.9443739e-29
8.9465214e-29
8.9634456e-29
8.9500828e-29
8.9442074e-29
8.9419463e-29
8.941194e-29
8.9409951e-29
8.9410283e-29
8.9413105e-29
8.9421497e-29
8.9443238e-29
8.9626878e-29
8.9493276e-29
8.9434541e-29
8.941194e-29
8.9404422e-29
8.940244e-29
8.9402788e-29
8.9405648e-29
8.941411e-29
8.9435926e-29
8.9624824e-29
8.9491249e-29
8.9432538e-29
8.9409951e-29
8.940244e-29
8.9400462e-29
8.9400816e-29
8.9403689e-29
8.941217e-29
8.9434006e-29
8.9624967e-29
8.9491471e-29
8.9432831e-29
8.9410283e-29
8.9402788e-29
8.9400816e-29
8.9401173e-29
8.9404049e-29
8.9412537e-29
8.9434379e-29
8.9627208e-29
8.9493984e-29
8.9435553e-29
8.9413105e-29
8.9405648e-29
8.9403689e-29
8.9404049e-29
8.9406929e-29
8.941542e-29
8.9437267e-29
8.9633984e-29
8.9501659e-29
8.9443739e-29
8.9421497e-29
8.941411e-29
8.941217e-29
8.9412537e-29
8.941542e-29
8.9423919e-29
8.9445782e-29
8.9651672e-29
8.9522251e-29
8.9465214e-29
8.9443238e-29
8.9435926e-29
8.9434006e-29
8.9434379e-29
8.9437267e-29
8.9445782e-29
8.9467708e-29
2.1349206e-28
2.1318339e-28
2.1304737e-28
2.1299495e-28
2.1297746e-28
2.1297271e-28
2.1297303e-28
2.1297814e-28
2.1299351e-28
2.130333e-28
2.1318339e-28
2.1287614e-28
2.127406e-28
2.1268833e-28
2.126709e-28
2.1266622e-28
2.1266672e-28
2.1267247e-28
2.1268996e-28
2.1273659e-28
2.1304737e-28
2.127406e-28
2.1260529e-28
2.1255312e-28
2.1253573e-28
2.125311e-28
2.1253177e-28
2.1253801e-28
2.125567e-28
2.1260542e-28
2.1299495e-28
2.1268833e-28
2.1255312e-28
2.1250099e-28
2.1248363e-28
2.1247903e-28
2.1247979e-28
2.1248627e-28
2.1250544e-28
2.1255479e-28
2.1297746e-28
2.126709e-28
2.1253573e-28
2.1248363e-28
2.1246628e-28
2.124617e-28
2.1246249e-28
2.1246906e-28
2.124884e-28
2.1253792e-28
2.1297271e-28
2.1266622e-28
2.125311e-28
2.1247903e-28
2.124617e-28
2.1245713e-28
2.1245794e-28
2.1246453e-28
2.1248392e-28
2.1253349e-28
2.1297303e-28
2.1266672e-28
2.1253177e-28
2.1247979e-28
2.1246249e-28
2.1245794e-28
2.1245876e-28
2.1246536e-28
2.1248476e-28
2.1253434e-28
2.1297814e-28
2.1267247e-28
2.1253801e-28
2.1248627e-28
2.1246906e-28
2.1246453e-28
2.1246536e-28
2.1247197e-28
2.1249138e-28
2.1254097e-28
2.1299351e-28
2.1268996e-28
2.125567e-28
2.1250544e-28
2.124884e-28
2.1248392e-28
2.1248476e-28
2.1249138e-28
2.1251081e-28
2.1256043e-28
2.130333e-28
2.1273659e-28
2.1260542e-28
2.1255479e-28
2.1253792e-28
2.1253349e-28
2.1253434e-28
2.1254097e-28
2.1256043e-28
2.126102e-28
5.1419486e-28
5.1347732e-28
5.1316022e-28
5.130378e-28
5.1299691e-28
5.129858e-28
5.129865e-28
5.129983e-28
5.1303365e-28
5.1312435e-28
5.1347732e-28
5.1276309e-28
5.1244706e-28
5.1232499e-28
5.1228424e-28
5.1227328e-28
5.1227442e-28
5.1228776e-28
5.1232815e-28
5.124352e-28
5.1316022e-28
5.1244706e-28
5.1213158e-28
5.1200973e-28
5.1196908e-28
5.1195825e-28
5.119598e-28
5.119743e-28
5.1201756e-28
5.1212957e-28
5.130378e-28
5.1232499e-28
5.1200973e-28
5.1188799e-28
5.1184739e-28
5.1183664e-28
5.118384e-28
5.1185346e-28
5.1189788e-28
5.1201139e-28
5.1299691e-28
5.1228424e-28
5.1196908e-28
5.1184739e-28
5.1180682e-28
5.1179611e-28
5.1179796e-28
5.1181323e-28
5.1185804e-28
5.1197197e-28
5.129858e-28
5.1227328e-28
5.1195825e-28
5.1183664e-28
5.1179611e-28
5.1178542e-28
5.117873e-28
5.1180264e-28
5.1184757e-28
5.1196161e-28
5.129865e-28
5.1227442e-28
5.119598e-28
5.118384e-28
5.1179796e-28
5.117873e-28
5.117892e-28
5.1180457e-28
5.1184952e-28
5.1196359e-28
5.129983e-28
5.1228776e-28
5.119743e-28
5.1185346e-28
5.1181323e-28
5.1180264e-28
5.1180457e-28
5.1181995e-28
5.1186493e-28
5.1197903e-28
5.1303365e-28
5.1232815e-28
5.1201756e-28
5.1189788e-28
5.1185804e-28
5.1184757e-28
5.1184952e-28
5.1186493e-28
5.1190994e-28
5.1202412e-28
5.1312435e-28
5.124352e-28
5.1212957e-28
5.1201139e-28
5.1197197e-28
5.1196161e-28
5.1196359e-28
5.1197903e-28
5.1202412e-28
5.1213862e-28
1.2553895e-27
1.2536996e-27
1.2529506e-27
1.2526609e-27
1.2525641e-27
1.2525377e-27
1.2525393e-27
1.2525669e-27
1.2526493e-27
1.2528588e-27
1.2536996e-27
1.2520173e-27
1.2512708e-27
1.250982e-27
1.2508855e-27
1.2508595e-27
1.2508621e-27
1.2508935e-27
1.250988e-27
1.2512371e-27
1.2529506e-27
1.2512708e-27
1.2505256e-27
1.2502373e-27
1.250141e-27
1.2501153e-27
1.2501189e-27
1.2501531e-27
1.2502546e-27
1.2505157e-27
1.2526609e-27
1.250982e-27
1.2502373e-27
1.2499492e-27
1.2498531e-27
1.2498276e-27
1.2498317e-27
1.2498672e-27
1.2499715e-27
1.2502362e-27
1.2525641e-27
1.2508855e-27
1.250141e-27
1.2498531e-27
1.249757e-27
1.2497316e-27
1.2497359e-27
1.249772e-27
1.2498772e-27
1.2501429e-27
1.2525377e-27
1.2508595e-27
1.2501153e-27
1.2498276e-27
1.2497316e-27
1.2497062e-27
1.2497107e-27
1.2497469e-27
1.2498524e-27
1.2501183e-27
1.2525393e-27
1.2508621e-27
1.2501189e-27
1.2498317e-27
1.2497359e-27
1.2497107e-27
1.2497151e-27
1.2497514e-27
1.249857e-27
1.250123e-27
1.2525669e-27
1.2508935e-27
1.2501531e-27
1.2498672e-27
1.249772e-27
1.2497469e-27
1.2497514e-27
1.2497877e-27
1.2498933e-27
1.2501594e-27
1.2526493e-27
1.250988e-27
1.2502546e-27
1.2499715e-27
1.2498772e-27
1.2498524e-27
1.249857e-27
1.2498933e-27
1.249999e-27
1.2502653e-27
1.2528588e-27
1.2512371e-27
1.2505157e-27
1.2502362e-27
1.2501429e-27
1.2501183e-27
1.250123e-27
1.2501594e-27
1.2502653e-27
1.2505324e-27
3.1070487e-27
3.1030159e-27
3.1012235e-27
3.1005292e-27
3.1002968e-27
3.1002335e-27
3.1002371e-27
3.1003027e-27
3.1004973e-27
3.1009878e-27
3.1030159e-27
3.0990013e-27
3.0972148e-27
3.0965225e-27
3.0962908e-27
3.0962284e-27
3.0962346e-27
3.0963093e-27
3.0965337e-27
3.0971212e-27
3.1012235e-27
3.0972148e-27
3.0954314e-27
3.0947402e-27
3.0945092e-27
3.0944475e-27
3.0944561e-27
3.0945377e-27
3.094779e-27
3.0953959e-27
3.1005292e-27
3.0965225e-27
3.0947402e-27
3.0940497e-27
3.0938189e-27
3.0937577e-27
3.0937676e-27
3.0938525e-27
3.0941007e-27
3.0947264e-27
3.1002968e-27
3.0962908e-27
3.0945092e-27
3.0938189e-27
3.0935883e-27
3.0935273e-27
3.0935377e-27
3.0936239e-27
3.0938744e-27
3.0945026e-27
3.1002335e-27
3.0962284e-27
3.0944475e-27
3.0937577e-27
3.0935273e-27
3.0934664e-27
3.093477e-27
3.0935636e-27
3.0938148e-27
3.0944437e-27
3.1002371e-27
3.0962346e-27
3.0944561e-27
3.0937676e-27
3.0935377e-27
3.093477e-27
3.0934878e-27
3.0935744e-27
3.0938258e-27
3.0944549e-27
3.1003027e-27
3.0963093e-27
3.0945377e-27
3.0938525e-27
3.0936239e-27
3.0935636e-27
3.0935744e-27
3.0936612e-27
3.0939127e-27
3.0945419e-27
3.1004973e-27
3.0965337e-27
3.094779e-27
3.0941007e-27
3.0938744e-27
3.0938148e-27
3.0938258e-27
3.0939127e-27
3.0941644e-27
3.094794e-27
3.1009878e-27
3.0971212e-27
3.0953959e-27
3.0947264e-27
3.0945026e-27
3.0944437e-27
3.0944549e-27
3.0945419e-27
3.094794e-27
3.0954254e-27
7.795534e-27
7.7857834e-27
7.7814377e-27
7.7797515e-27
7.7791866e-27
7.7790324e-27
7.7790409e-27
7.7791987e-27
7.7796645e-27
7.7808283e-27
7.7857834e-27
7.7760763e-27
7.7717448e-27
7.7700633e-27
7.7695001e-27
7.7693481e-27
7.769363e-27
7.7695433e-27
7.7700832e-27
7.7714878e-27
7.7814377e-27
7.7717448e-27
7.7674204e-27
7.7657419e-27
7.7651801e-27
7.76503e-27
7.7650508e-27
7.7652482e-27
7.7658301e-27
7.7673077e-27
7.7797515e-27
7.7700633e-27
7.7657419e-27
7.7640647e-27
7.7635037e-27
7.7633547e-27
7.7633786e-27
7.7635843e-27
7.7641832e-27
7.7656827e-27
7.7791866e-27
7.7695001e-27
7.7651801e-27
7.7635037e-27
7.7629431e-27
7.7627947e-27
7.7628199e-27
7.7630287e-27
7.7636332e-27
7.765139e-27
7.7790324e-27
7.7693481e-27
7.76503e-27
7.7633547e-27
7.7627947e-27
7.7626466e-27
7.7626723e-27
7.7628821e-27
7.7634883e-27
7.7649957e-27
7.7790409e-27
7.769363e-27
7.7650508e-27
7.7633786e-27
7.7628199e-27
7.7626723e-27
7.7626983e-27
7.7629084e-27
7.7635151e-27
7.7650229e-27
7.7791987e-27
7.7695433e-27
7.7652482e-27
7.7635843e-27
7.7630287e-27
7.7628821e-27
7.7629084e-27
7.7631187e-27
7.7637257e-27
7.7652338e-27
7.7796645e-27
7.7700832e-27
7.7658301e-27
7.7641832e-27
7.7636332e-27
7.7634883e-27
7.7635151e-27
7.7637257e-27
7.7643331e-27
7.7658423e-27
7.7808283e-27
7.7714878e-27
7.7673077e-27
7.7656827e-27
7.765139e-27
7.7649957e-27
7.7650229e-27
7.7652338e-27
7.7658423e-27
7.7673555e-27
1.9827894e-26
1.9804008e-26
1.9793333e-26
1.9789184e-26
1.9787793e-26
1.9787413e-26
1.9787433e-26
1.9787818e-26
1.9788948e-26
1.9791746e-26
1.9804008e-26
1.9780227e-26
1.9769586e-26
1.9765449e-26
1.9764062e-26
1.9763687e-26
1.9763723e-26
1.9764165e-26
1.9765481e-26
1.9768886e-26
1.9793333e-26
1.9769586e-26
1.9758963e-26
1.9754833e-26
1.9753449e-26
1.9753079e-26
1.975313e-26
1.9753615e-26
1.9755037e-26
1.9758625e-26
1.9789184e-26
1.9765449e-26
1.9754833e-26
1.9750706e-26
1.9749325e-26
1.9748957e-26
1.9749016e-26
1.9749521e-26
1.9750986e-26
1.9754629e-26
1.9787793e-26
1.9764062e-26
1.9753449e-26
1.9749325e-26
1.9747944e-26
1.9747578e-26
1.974764e-26
1.9748153e-26
1.9749632e-26
1.9753291e-26
1.9787413e-26
1.9763687e-26
1.9753079e-26
1.9748957e-26
1.9747578e-26
1.9747213e-26
1.9747276e-26
1.9747792e-26
1.9749275e-26
1.9752938e-26
1.9787433e-26
1.9763723e-26
1.975313e-26
1.9749016e-26
1.974764e-26
1.9747276e-26
1.974734e-26
1.9747856e-26
1.9749341e-26
1.9753005e-26
1.9787818e-26
1.9764165e-26
1.9753615e-26
1.9749521e-26
1.9748153e-26
1.9747792e-26
1.9747856e-26
1.9748373e-26
1.9749858e-26
1.9753523e-26
1.9788948e-26
1.9765481e-26
1.9755037e-26
1.9750986e-26
1.9749632e-26
1.9749275e-26
1.9749341e-26
1.9749858e-26
1.9751344e-26
1.9755012e-26
1.9791746e-26
1.9768886e-26
1.9758625e-26
1.9754629e-26
1.9753291e-26
1.9752938e-26
1.9753005e-26
1.9753523e-26
1.9755012e-26
1.9758689e-26
5.1125764e-26
5.1066477e-26
5.1039911e-26
5.102957e-26
5.1026098e-26
5.1025149e-26
5.1025196e-26
5.1026148e-26
5.1028927e-26
5.1035748e-26
5.1066477e-26
5.1007449e-26
5.0980967e-26
5.0970654e-26
5.0967193e-26
5.0966257e-26
5.0966346e-26
5.0967441e-26
5.0970695e-26
5.0979061e-26
5.1039911e-26
5.0980967e-26
5.0954528e-26
5.0944233e-26
5.094078e-26
5.0939856e-26
5.0939983e-26
5.0941187e-26
5.094471e-26
5.0953543e-26
5.102957e-26
5.0970654e-26
5.0944233e-26
5.0933946e-26
5.0930498e-26
5.0929582e-26
5.0929728e-26
5.0930985e-26
5.0934617e-26
5.094359e-26
5.1026098e-26
5.0967193e-26
5.094078e-26
5.0930498e-26
5.0927053e-26
5.092614e-26
5.0926294e-26
5.0927571e-26
5.0931239e-26
5.0940253e-26
5.1025149e-26
5.0966257e-26
5.0939856e-26
5.0929582e-26
5.092614e-26
5.0925229e-26
5.0925387e-26
5.092667e-26
5.0930349e-26
5.0939373e-26
5.1025196e-26
5.0966346e-26
5.0939983e-26
5.0929728e-26
5.0926294e-26
5.0925387e-26
5.0925546e-26
5.0926832e-26
5.0930513e-26
5.093954e-26
5.1026148e-26
5.0967441e-26
5.0941187e-26
5.0930985e-26
5.0927571e-26
5.092667e-26
5.0926832e-26
5.0928119e-26
5.0931802e-26
5.0940831e-26
5.1028927e-26
5.0970695e-26
5.094471e-26
5.0934617e-26
5.0931239e-26
5.0930349e-26
5.0930513e-26
5.0931802e-26
5.0935488e-26
5.0944523e-26
5.1035748e-26
5.0979061e-26
5.0953543e-26
5.094359e-26
5.0940253e-26
5.0939373e-26
5.093954e-26
5.0940831e-26
5.0944523e-26
5.0953581e-26
1.3363792e-25
1.3348884e-25
1.3342186e-25
1.3339575e-25
1.3338697e-25
1.3338457e-25
1.3338468e-25
1.3338707e-25
1.33394e-25
1.3341084e-25
1.3348884e-25
1.333404e-25
1.3327362e-25
1.3324758e-25
1.3323883e-25
1.3323647e-25
1.3323669e-25
1.3323944e-25
1.332476e-25
1.3326843e-25
1.3342186e-25
1.3327362e-25
1.3320696e-25
1.3318096e-25
1.3317224e-25
1.331699e-25
1.3317022e-25
1.3317326e-25
1.331821e-25
1.3320415e-25
1.3339575e-25
1.3324758e-25
1.3318096e-25
1.3315499e-25
1.3314627e-25
1.3314395e-25
1.3314432e-25
1.331475e-25
1.3315662e-25
1.3317903e-25
1.3338697e-25
1.3323883e-25
1.3317224e-25
1.3314627e-25
1.3313756e-25
1.3313525e-25
1.3313564e-25
1.3313887e-25
1.3314809e-25
1.331706e-25
1.3338457e-25
1.3323647e-25
1.331699e-25
1.3314395e-25
1.3313525e-25
1.3313295e-25
1.3313335e-25
1.3313659e-25
1.3314584e-25
1.3316838e-25
1.3338468e-25
1.3323669e-25
1.3317022e-25
1.3314432e-25
1.3313564e-25
1.3313335e-25
1.3313375e-25
1.33137e-25
1.3314626e-25
1.331688e-25
1.3338707e-25
1.3323944e-25
1.3317326e-25
1.331475e-25
1.3313887e-25
1.3313659e-25
1.33137e-25
1.3314025e-25
1.3314951e-25
1.3317206e-25
1.33394e-25
1.332476e-25
1.331821e-25
1.3315662e-25
1.3314809e-25
1.3314584e-25
1.3314626e-25
1.3314951e-25
1.3315878e-25
1.3318134e-25
1.3341084e-25
1.3326843e-25
1.3320415e-25
1.3317903e-25
1.331706e-25
1.3316838e-25
1.331688e-25
1.3317206e-25
1.3318134e-25
1.3320396e-25
3.5410728e-25
3.5372747e-25
3.5355639e-25
3.534896e-25
3.5346713e-25
3.5346097e-25
3.5346126e-25
3.5346731e-25
3.5348482e-25
3.5352699e-25
3.5372747e-25
3.5334929e-25
3.5317874e-25
3.5311212e-25
3.5308972e-25
3.5308365e-25
3.5308421e-25
3.5309124e-25
3.5311194e-25
3.5316456e-25
3.5355639e-25
3.5317874e-25
3.5300846e-25
3.5294195e-25
3.5291961e-25
3.5291362e-25
3.5291444e-25
3.529222e-25
3.5294472e-25
3.5300049e-25
3.534896e-25
3.5311212e-25
3.5294195e-25
3.528755e-25
3.5285318e-25
3.5284724e-25
3.5284819e-25
3.5285631e-25
3.5287956e-25
3.5293629e-25
3.5346713e-25
3.5308972e-25
3.5291961e-25
3.5285318e-25
3.5283088e-25
3.5282497e-25
3.5282597e-25
3.5283422e-25
3.5285772e-25
3.5291472e-25
3.5346097e-25
3.5308365e-25
3.5291362e-25
3.5284724e-25
3.5282497e-25
3.5281907e-25
3.528201e-25
3.5282839e-25
3.5285196e-25
3.5290902e-25
3.5346126e-25
3.5308421e-25
3.5291444e-25
3.5284819e-25
3.5282597e-25
3.528201e-25
3.5282114e-25
3.5282944e-25
3.5285303e-25
3.5291012e-25
3.5346731e-25
3.5309124e-25
3.529222e-25
3.5285631e-25
3.5283422e-25
3.5282839e-25
3.5282944e-25
3.5283775e-25
3.5286136e-25
3.5291845e-25
3.5348482e-25
3.5311194e-25
3.5294472e-25
3.5287956e-25
3.5285772e-25
3.5285196e-25
3.5285303e-25
3.5286136e-25
3.5288498e-25
3.5294211e-25
3.5352699e-25
3.5316456e-25
3.5300049e-25
3.5293629e-25
3.5291472e-25
3.5290902e-25
3.5291012e-25
3.5291845e-25
3.5294211e-25
3.5299938e-25
9.5112535e-25
9.5014513e-25
9.4970251e-25
9.4952944e-25
9.4947116e-25
9.4945518e-25
9.494559e-25
9.4947148e-25
9.495163e-25
9.4962331e-25
9.5014513e-25
9.4916908e-25
9.4872781e-25
9.4855518e-25
9.4849708e-25
9.4848133e-25
9.4848279e-25
9.4850093e-25
9.4855424e-25
9.4868893e-25
9.4970251e-25
9.4872781e-25
9.4828723e-25
9.4811489e-25
9.4805693e-25
9.480414e-25
9.4804351e-25
9.4806361e-25
9.4812173e-25
9.4826479e-25
9.4952944e-25
9.4855518e-25
9.4811489e-25
9.4794269e-25
9.478848e-25
9.478694e-25
9.4787188e-25
9.4789291e-25
9.4795297e-25
9.4809854e-25
9.4947116e-25
9.4849708e-25
9.4805693e-25
9.478848e-25
9.4782697e-25
9.4781163e-25
9.4781425e-25
9.4783564e-25
9.4789634e-25
9.4804263e-25
9.4945518e-25
9.4848133e-25
9.480414e-25
9.478694e-25
9.4781163e-25
9.4779632e-25
9.47799e-25
9.478205e-25
9.478814e-25
9.4802787e-25
9.494559e-25
9.4848279e-25
9.4804351e-25
9.4787188e-25
9.4781425e-25
9.47799e-25
9.4780171e-25
9.4782325e-25
9.478842e-25
9.4803072e-25
9.4947148e-25
9.4850093e-25
9.4806361e-25
9.4789291e-25
9.4783564e-25
9.478205e-25
9.4782325e-25
9.4784481e-25
9.4790579e-25
9.4805235e-25
9.495163e-25
9.4855424e-25
9.4812173e-25
9.4795297e-25
9.4789634e-25
9.478814e-25
9.478842e-25
9.4790579e-25
9.4796681e-25
9.4811346e-25
9.4962331e-25
9.4868893e-25
9.4826479e-25
9.4809854e-25
9.4804263e-25
9.4802787e-25
9.4803072e-25
9.4805235e-25
9.4811346e-25
9.4826046e-25
2.5894922e-24
2.5869298e-24
2.5857698e-24
2.5853156e-24
2.5851625e-24
2.5851205e-24
2.5851223e-24
2.5851629e-24
2.5852793e-24
2.5855544e-24
2.5869298e-24
2.5843781e-24
2.5832216e-24
2.5827685e-24
2.5826159e-24
2.5825745e-24
2.5825783e-24
2.5826258e-24
2.5827649e-24
2.5831144e-24
2.5857698e-24
2.5832216e-24
2.5820669e-24
2.5816146e-24
2.5814623e-24
2.5814215e-24
2.5814271e-24
2.5814799e-24
2.5816319e-24
2.5820038e-24
2.5853156e-24
2.5827685e-24
2.5816146e-24
2.5811626e-24
2.5810106e-24
2.5809701e-24
2.5809766e-24
2.5810319e-24
2.5811891e-24
2.5815678e-24
2.5851625e-24
2.5826159e-24
2.5814623e-24
2.5810106e-24
2.5808587e-24
2.5808183e-24
2.5808253e-24
2.5808815e-24
2.5810404e-24
2.581421e-24
2.5851205e-24
2.5825745e-24
2.5814215e-24
2.5809701e-24
2.5808183e-24
2.5807781e-24
2.5807852e-24
2.5808417e-24
2.5810012e-24
2.5813823e-24
2.5851223e-24
2.5825783e-24
2.5814271e-24
2.5809766e-24
2.5808253e-24
2.5807852e-24
2.5807924e-24
2.580849e-24
2.5810086e-24
2.5813899e-24
2.5851629e-24
2.5826258e-24
2.5814799e-24
2.5810319e-24
2.5808815e-24
2.5808417e-24
2.580849e-24
2.5809057e-24
2.5810654e-24
2.5814467e-24
2.5852793e-24
2.5827649e-24
2.5816319e-24
2.5811891e-24
2.5810404e-24
2.5810012e-24
2.5810086e-24
2.5810654e-24
2.5812251e-24
2.5816067e-24
2.5855544e-24
2.5831144e-24
2.5820038e-24
2.5815678e-24
2.581421e-24
2.5813823e-24
2.5813899e-24
2.5814467e-24
2.5816067e-24