/*--------------------------------*- C++ -*----------------------------------*\
| =========                 |                                                 |
| \\      /  F ield         | OpenFOAM: The Open Source CFD Toolbox           |
|  \\    /   O peration     | Version:  dev                                   |
|   \\  /    A nd           | Web:      www.OpenFOAM.org                      |
|    \\/     M anipulation  |                                                 |
\*---------------------------------------------------------------------------*/
FoamFile
{
    version     2.0;
    format      ascii;
    class       volScalarField;
    location    "10";
    object      A;
}
// * * * * * * * * * * * * * * * * * * * * * * * * * * * * * * * * * * * * * //

dimensions      [0 0 0 0 1 0 0];

internalField   nonuniform List<scalar> 
10000
(
7.4141096e-72
7.4113531e-72
7.4104513e-72
7.4102126e-72
7.4101609e-72
7.4101515e-72
7.4101504e-72
7.4101519e-72
7.4101589e-72
7.4101887e-72
7.4113531e-72
7.4085986e-72
7.4076974e-72
7.4074588e-72
7.4074071e-72
7.4073979e-72
7.407397e-72
7.4073996e-72
7.4074119e-72
7.4074621e-72
7.4104513e-72
7.4076974e-72
7.4067964e-72
7.4065579e-72
7.4065062e-72
7.406497e-72
7.4064963e-72
7.4064996e-72
7.4065141e-72
7.4065695e-72
7.4102126e-72
7.4074588e-72
7.4065579e-72
7.4063193e-72
7.4062677e-72
7.4062585e-72
7.4062578e-72
7.4062613e-72
7.4062765e-72
7.4063331e-72
7.4101609e-72
7.4074071e-72
7.4065062e-72
7.4062677e-72
7.4062161e-72
7.4062068e-72
7.4062062e-72
7.4062097e-72
7.4062251e-72
7.4062819e-72
7.4101515e-72
7.4073979e-72
7.406497e-72
7.4062585e-72
7.4062068e-72
7.4061976e-72
7.4061969e-72
7.4062005e-72
7.4062159e-72
7.4062727e-72
7.4101504e-72
7.407397e-72
7.4064963e-72
7.4062578e-72
7.4062062e-72
7.4061969e-72
7.4061963e-72
7.4061999e-72
7.4062153e-72
7.4062721e-72
7.4101519e-72
7.4073996e-72
7.4064996e-72
7.4062613e-72
7.4062097e-72
7.4062005e-72
7.4061999e-72
7.4062035e-72
7.4062188e-72
7.4062757e-72
7.4101589e-72
7.4074119e-72
7.4065141e-72
7.4062765e-72
7.4062251e-72
7.4062159e-72
7.4062153e-72
7.4062188e-72
7.4062342e-72
7.4062911e-72
7.4101887e-72
7.4074621e-72
7.4065695e-72
7.4063331e-72
7.4062819e-72
7.4062727e-72
7.4062721e-72
7.4062757e-72
7.4062911e-72
7.4063479e-72
5.3195131e-71
5.3175874e-71
5.3169538e-71
5.3167859e-71
5.3167495e-71
5.316743e-71
5.3167422e-71
5.3167432e-71
5.3167481e-71
5.3167698e-71
5.3175874e-71
5.3156631e-71
5.3150299e-71
5.3148621e-71
5.3148258e-71
5.3148192e-71
5.3148186e-71
5.3148205e-71
5.3148291e-71
5.3148653e-71
5.3169538e-71
5.3150299e-71
5.3143968e-71
5.314229e-71
5.3141927e-71
5.3141862e-71
5.3141857e-71
5.314188e-71
5.3141983e-71
5.3142381e-71
5.3167859e-71
5.3148621e-71
5.314229e-71
5.3140613e-71
5.314025e-71
5.3140185e-71
5.314018e-71
5.3140205e-71
5.3140312e-71
5.3140719e-71
5.3167495e-71
5.3148258e-71
5.3141927e-71
5.314025e-71
5.3139886e-71
5.3139822e-71
5.3139817e-71
5.3139842e-71
5.3139951e-71
5.3140359e-71
5.316743e-71
5.3148192e-71
5.3141862e-71
5.3140185e-71
5.3139822e-71
5.3139757e-71
5.3139752e-71
5.3139778e-71
5.3139886e-71
5.3140295e-71
5.3167422e-71
5.3148186e-71
5.3141857e-71
5.314018e-71
5.3139817e-71
5.3139752e-71
5.3139748e-71
5.3139773e-71
5.3139882e-71
5.314029e-71
5.3167432e-71
5.3148205e-71
5.314188e-71
5.3140205e-71
5.3139842e-71
5.3139778e-71
5.3139773e-71
5.3139798e-71
5.3139907e-71
5.3140316e-71
5.3167481e-71
5.3148291e-71
5.3141983e-71
5.3140312e-71
5.3139951e-71
5.3139886e-71
5.3139882e-71
5.3139907e-71
5.3140016e-71
5.3140425e-71
5.3167698e-71
5.3148653e-71
5.3142381e-71
5.3140719e-71
5.3140359e-71
5.3140295e-71
5.314029e-71
5.3140316e-71
5.3140425e-71
5.3140833e-71
3.29077e-70
3.2896112e-70
3.2892292e-70
3.2891279e-70
3.2891059e-70
3.289102e-70
3.2891015e-70
3.2891021e-70
3.2891051e-70
3.289118e-70
3.2896112e-70
3.2884533e-70
3.2880715e-70
3.2879703e-70
3.2879483e-70
3.2879444e-70
3.287944e-70
3.2879452e-70
3.2879504e-70
3.2879721e-70
3.2892292e-70
3.2880715e-70
3.2876898e-70
3.2875886e-70
3.2875666e-70
3.2875627e-70
3.2875624e-70
3.2875638e-70
3.2875701e-70
3.287594e-70
3.2891279e-70
3.2879703e-70
3.2875886e-70
3.2874873e-70
3.2874654e-70
3.2874615e-70
3.2874612e-70
3.2874628e-70
3.2874693e-70
3.2874938e-70
3.2891059e-70
3.2879483e-70
3.2875666e-70
3.2874654e-70
3.2874435e-70
3.2874396e-70
3.2874393e-70
3.2874409e-70
3.2874474e-70
3.287472e-70
3.289102e-70
3.2879444e-70
3.2875627e-70
3.2874615e-70
3.2874396e-70
3.2874357e-70
3.2874354e-70
3.287437e-70
3.2874436e-70
3.2874682e-70
3.2891015e-70
3.287944e-70
3.2875624e-70
3.2874612e-70
3.2874393e-70
3.2874354e-70
3.2874351e-70
3.2874367e-70
3.2874433e-70
3.2874679e-70
3.2891021e-70
3.2879452e-70
3.2875638e-70
3.2874628e-70
3.2874409e-70
3.287437e-70
3.2874367e-70
3.2874382e-70
3.2874448e-70
3.2874694e-70
3.2891051e-70
3.2879504e-70
3.2875701e-70
3.2874693e-70
3.2874474e-70
3.2874436e-70
3.2874433e-70
3.2874448e-70
3.2874514e-70
3.287476e-70
3.289118e-70
3.2879721e-70
3.287594e-70
3.2874938e-70
3.287472e-70
3.2874682e-70
3.2874679e-70
3.2874694e-70
3.287476e-70
3.2875007e-70
2.0772339e-69
2.0765229e-69
2.076288e-69
2.0762257e-69
2.0762122e-69
2.0762098e-69
2.0762095e-69
2.0762099e-69
2.0762117e-69
2.0762194e-69
2.0765229e-69
2.0758124e-69
2.0755776e-69
2.0755153e-69
2.0755018e-69
2.0754994e-69
2.0754992e-69
2.0754999e-69
2.0755031e-69
2.0755164e-69
2.076288e-69
2.0755776e-69
2.0753429e-69
2.0752807e-69
2.0752672e-69
2.0752648e-69
2.0752646e-69
2.0752655e-69
2.0752693e-69
2.075284e-69
2.0762257e-69
2.0755153e-69
2.0752807e-69
2.0752184e-69
2.0752049e-69
2.0752025e-69
2.0752023e-69
2.0752033e-69
2.0752073e-69
2.0752223e-69
2.0762122e-69
2.0755018e-69
2.0752672e-69
2.0752049e-69
2.0751914e-69
2.075189e-69
2.0751889e-69
2.0751898e-69
2.0751939e-69
2.0752089e-69
2.0762098e-69
2.0754994e-69
2.0752648e-69
2.0752025e-69
2.075189e-69
2.0751866e-69
2.0751865e-69
2.0751874e-69
2.0751915e-69
2.0752065e-69
2.0762095e-69
2.0754992e-69
2.0752646e-69
2.0752023e-69
2.0751889e-69
2.0751865e-69
2.0751863e-69
2.0751873e-69
2.0751913e-69
2.0752064e-69
2.0762099e-69
2.0754999e-69
2.0752655e-69
2.0752033e-69
2.0751898e-69
2.0751874e-69
2.0751873e-69
2.0751882e-69
2.0751923e-69
2.0752073e-69
2.0762117e-69
2.0755031e-69
2.0752693e-69
2.0752073e-69
2.0751939e-69
2.0751915e-69
2.0751913e-69
2.0751923e-69
2.0751964e-69
2.0752114e-69
2.0762194e-69
2.0755164e-69
2.075284e-69
2.0752223e-69
2.0752089e-69
2.0752065e-69
2.0752064e-69
2.0752073e-69
2.0752114e-69
2.0752264e-69
1.3435017e-68
1.3430549e-68
1.342907e-68
1.3428677e-68
1.3428592e-68
1.3428577e-68
1.3428575e-68
1.3428577e-68
1.3428589e-68
1.3428636e-68
1.3430549e-68
1.3426083e-68
1.3424605e-68
1.3424213e-68
1.3424128e-68
1.3424113e-68
1.3424111e-68
1.3424116e-68
1.3424136e-68
1.3424219e-68
1.342907e-68
1.3424605e-68
1.3423128e-68
1.3422735e-68
1.342265e-68
1.3422635e-68
1.3422634e-68
1.342264e-68
1.3422664e-68
1.3422756e-68
1.3428677e-68
1.3424213e-68
1.3422735e-68
1.3422343e-68
1.3422258e-68
1.3422243e-68
1.3422242e-68
1.3422248e-68
1.3422274e-68
1.3422367e-68
1.3428592e-68
1.3424128e-68
1.342265e-68
1.3422258e-68
1.3422173e-68
1.3422158e-68
1.3422157e-68
1.3422163e-68
1.3422189e-68
1.3422283e-68
1.3428577e-68
1.3424113e-68
1.3422635e-68
1.3422243e-68
1.3422158e-68
1.3422143e-68
1.3422142e-68
1.3422148e-68
1.3422174e-68
1.3422268e-68
1.3428575e-68
1.3424111e-68
1.3422634e-68
1.3422242e-68
1.3422157e-68
1.3422142e-68
1.3422141e-68
1.3422147e-68
1.3422173e-68
1.3422267e-68
1.3428577e-68
1.3424116e-68
1.342264e-68
1.3422248e-68
1.3422163e-68
1.3422148e-68
1.3422147e-68
1.3422153e-68
1.3422179e-68
1.3422273e-68
1.3428589e-68
1.3424136e-68
1.3422664e-68
1.3422274e-68
1.3422189e-68
1.3422174e-68
1.3422173e-68
1.3422179e-68
1.3422205e-68
1.3422299e-68
1.3428636e-68
1.3424219e-68
1.3422756e-68
1.3422367e-68
1.3422283e-68
1.3422268e-68
1.3422267e-68
1.3422273e-68
1.3422299e-68
1.3422393e-68
8.9043245e-68
8.901448e-68
8.9004945e-68
8.9002412e-68
8.9001863e-68
8.9001764e-68
8.9001752e-68
8.9001768e-68
8.9001841e-68
8.9002139e-68
8.901448e-68
8.8985735e-68
8.8976205e-68
8.8973674e-68
8.8973125e-68
8.8973027e-68
8.8973018e-68
8.8973047e-68
8.8973179e-68
8.8973708e-68
8.9004945e-68
8.8976205e-68
8.8966677e-68
8.8964146e-68
8.8963598e-68
8.89635e-68
8.8963493e-68
8.8963529e-68
8.8963688e-68
8.8964275e-68
8.9002412e-68
8.8973674e-68
8.8964146e-68
8.8961616e-68
8.8961067e-68
8.8960969e-68
8.8960963e-68
8.8961002e-68
8.8961168e-68
8.8961768e-68
8.9001863e-68
8.8973125e-68
8.8963598e-68
8.8961067e-68
8.8960519e-68
8.8960421e-68
8.8960414e-68
8.8960454e-68
8.8960622e-68
8.8961225e-68
8.9001764e-68
8.8973027e-68
8.89635e-68
8.8960969e-68
8.8960421e-68
8.8960323e-68
8.8960316e-68
8.8960356e-68
8.8960524e-68
8.8961128e-68
8.9001752e-68
8.8973018e-68
8.8963493e-68
8.8960963e-68
8.8960414e-68
8.8960316e-68
8.896031e-68
8.896035e-68
8.8960518e-68
8.8961122e-68
8.9001768e-68
8.8973047e-68
8.8963529e-68
8.8961002e-68
8.8960454e-68
8.8960356e-68
8.896035e-68
8.896039e-68
8.8960558e-68
8.8961162e-68
8.9001841e-68
8.8973179e-68
8.8963688e-68
8.8961168e-68
8.8960622e-68
8.8960524e-68
8.8960518e-68
8.8960558e-68
8.8960726e-68
8.896133e-68
8.9002139e-68
8.8973708e-68
8.8964275e-68
8.8961768e-68
8.8961225e-68
8.8961128e-68
8.8961122e-68
8.8961162e-68
8.896133e-68
8.8961933e-68
6.0474131e-67
6.0455165e-67
6.0448867e-67
6.0447193e-67
6.0446831e-67
6.0446765e-67
6.0446758e-67
6.0446768e-67
6.0446817e-67
6.0447008e-67
6.0455165e-67
6.0436212e-67
6.0429918e-67
6.0428246e-67
6.0427883e-67
6.0427818e-67
6.0427812e-67
6.0427832e-67
6.042792e-67
6.0428266e-67
6.0448867e-67
6.0429918e-67
6.0423626e-67
6.0421953e-67
6.0421591e-67
6.0421526e-67
6.0421521e-67
6.0421546e-67
6.0421651e-67
6.0422037e-67
6.0447193e-67
6.0428246e-67
6.0421953e-67
6.0420281e-67
6.0419918e-67
6.0419854e-67
6.0419849e-67
6.0419876e-67
6.0419986e-67
6.0420381e-67
6.0446831e-67
6.0427883e-67
6.0421591e-67
6.0419918e-67
6.0419556e-67
6.0419491e-67
6.0419487e-67
6.0419514e-67
6.0419625e-67
6.0420022e-67
6.0446765e-67
6.0427818e-67
6.0421526e-67
6.0419854e-67
6.0419491e-67
6.0419426e-67
6.0419422e-67
6.0419449e-67
6.0419561e-67
6.0419958e-67
6.0446758e-67
6.0427812e-67
6.0421521e-67
6.0419849e-67
6.0419487e-67
6.0419422e-67
6.0419418e-67
6.0419445e-67
6.0419557e-67
6.0419954e-67
6.0446768e-67
6.0427832e-67
6.0421546e-67
6.0419876e-67
6.0419514e-67
6.0419449e-67
6.0419445e-67
6.0419472e-67
6.0419583e-67
6.041998e-67
6.0446817e-67
6.042792e-67
6.0421651e-67
6.0419986e-67
6.0419625e-67
6.0419561e-67
6.0419557e-67
6.0419583e-67
6.0419695e-67
6.0420092e-67
6.0447008e-67
6.0428266e-67
6.0422037e-67
6.0420381e-67
6.0420022e-67
6.0419958e-67
6.0419954e-67
6.041998e-67
6.0420092e-67
6.0420489e-67
4.2085662e-66
4.2072855e-66
4.2068596e-66
4.2067463e-66
4.2067217e-66
4.2067173e-66
4.2067168e-66
4.2067175e-66
4.2067208e-66
4.2067335e-66
4.2072855e-66
4.2060057e-66
4.20558e-66
4.2054667e-66
4.2054422e-66
4.2054378e-66
4.2054374e-66
4.2054387e-66
4.2054447e-66
4.205468e-66
4.2068596e-66
4.20558e-66
4.2051543e-66
4.2050411e-66
4.2050166e-66
4.2050122e-66
4.2050119e-66
4.2050136e-66
4.2050208e-66
4.2050468e-66
4.2067463e-66
4.2054667e-66
4.2050411e-66
4.2049279e-66
4.2049034e-66
4.204899e-66
4.2048987e-66
4.2049005e-66
4.2049081e-66
4.2049347e-66
4.2067217e-66
4.2054422e-66
4.2050166e-66
4.2049034e-66
4.2048789e-66
4.2048745e-66
4.2048742e-66
4.204876e-66
4.2048836e-66
4.2049104e-66
4.2067173e-66
4.2054378e-66
4.2050122e-66
4.204899e-66
4.2048745e-66
4.2048701e-66
4.2048698e-66
4.2048717e-66
4.2048793e-66
4.2049061e-66
4.2067168e-66
4.2054374e-66
4.2050119e-66
4.2048987e-66
4.2048742e-66
4.2048698e-66
4.2048695e-66
4.2048714e-66
4.204879e-66
4.2049058e-66
4.2067175e-66
4.2054387e-66
4.2050136e-66
4.2049005e-66
4.204876e-66
4.2048717e-66
4.2048714e-66
4.2048732e-66
4.2048808e-66
4.2049076e-66
4.2067208e-66
4.2054447e-66
4.2050208e-66
4.2049081e-66
4.2048836e-66
4.2048793e-66
4.204879e-66
4.2048808e-66
4.2048885e-66
4.2049152e-66
4.2067335e-66
4.205468e-66
4.2050468e-66
4.2049347e-66
4.2049104e-66
4.2049061e-66
4.2049058e-66
4.2049076e-66
4.2049152e-66
4.204942e-66
3.0010931e-65
3.0002074e-65
2.9999123e-65
2.9998338e-65
2.9998168e-65
2.9998137e-65
2.9998134e-65
2.9998139e-65
2.9998161e-65
2.9998247e-65
3.0002074e-65
2.9993223e-65
2.9990274e-65
2.9989489e-65
2.9989319e-65
2.9989288e-65
2.9989286e-65
2.9989295e-65
2.9989337e-65
2.9989497e-65
2.9999123e-65
2.9990274e-65
2.9987325e-65
2.9986541e-65
2.9986371e-65
2.998634e-65
2.9986338e-65
2.998635e-65
2.99864e-65
2.998658e-65
2.9998338e-65
2.9989489e-65
2.9986541e-65
2.9985756e-65
2.9985586e-65
2.9985556e-65
2.9985554e-65
2.9985566e-65
2.9985619e-65
2.9985803e-65
2.9998168e-65
2.9989319e-65
2.9986371e-65
2.9985586e-65
2.9985416e-65
2.9985386e-65
2.9985384e-65
2.9985397e-65
2.998545e-65
2.9985635e-65
2.9998137e-65
2.9989288e-65
2.998634e-65
2.9985556e-65
2.9985386e-65
2.9985355e-65
2.9985353e-65
2.9985366e-65
2.9985419e-65
2.9985605e-65
2.9998134e-65
2.9989286e-65
2.9986338e-65
2.9985554e-65
2.9985384e-65
2.9985353e-65
2.9985351e-65
2.9985364e-65
2.9985418e-65
2.9985603e-65
2.9998139e-65
2.9989295e-65
2.998635e-65
2.9985566e-65
2.9985397e-65
2.9985366e-65
2.9985364e-65
2.9985377e-65
2.998543e-65
2.9985616e-65
2.9998161e-65
2.9989337e-65
2.99864e-65
2.9985619e-65
2.998545e-65
2.9985419e-65
2.9985418e-65
2.998543e-65
2.9985484e-65
2.9985669e-65
2.9998247e-65
2.9989497e-65
2.998658e-65
2.9985803e-65
2.9985635e-65
2.9985605e-65
2.9985603e-65
2.9985616e-65
2.9985669e-65
2.9985854e-65
2.1927304e-64
2.1921031e-64
2.1918938e-64
2.1918381e-64
2.191826e-64
2.1918238e-64
2.1918235e-64
2.1918239e-64
2.1918255e-64
2.1918315e-64
2.1921031e-64
2.1914762e-64
2.191267e-64
2.1912113e-64
2.1911992e-64
2.191197e-64
2.1911969e-64
2.1911975e-64
2.1912005e-64
2.1912119e-64
2.1918938e-64
2.191267e-64
2.1910578e-64
2.1910022e-64
2.1909901e-64
2.1909879e-64
2.1909878e-64
2.1909886e-64
2.1909922e-64
2.191005e-64
2.1918381e-64
2.1912113e-64
2.1910022e-64
2.1909465e-64
2.1909344e-64
2.1909322e-64
2.1909321e-64
2.190933e-64
2.1909368e-64
2.1909498e-64
2.191826e-64
2.1911992e-64
2.1909901e-64
2.1909344e-64
2.1909223e-64
2.1909202e-64
2.19092e-64
2.190921e-64
2.1909248e-64
2.1909379e-64
2.1918238e-64
2.191197e-64
2.1909879e-64
2.1909322e-64
2.1909202e-64
2.190918e-64
2.1909179e-64
2.1909188e-64
2.1909226e-64
2.1909357e-64
2.1918235e-64
2.1911969e-64
2.1909878e-64
2.1909321e-64
2.19092e-64
2.1909179e-64
2.1909177e-64
2.1909187e-64
2.1909225e-64
2.1909356e-64
2.1918239e-64
2.1911975e-64
2.1909886e-64
2.190933e-64
2.190921e-64
2.1909188e-64
2.1909187e-64
2.1909196e-64
2.1909234e-64
2.1909365e-64
2.1918255e-64
2.1912005e-64
2.1909922e-64
2.1909368e-64
2.1909248e-64
2.1909226e-64
2.1909225e-64
2.1909234e-64
2.1909272e-64
2.1909403e-64
2.1918315e-64
2.1912119e-64
2.191005e-64
2.1909498e-64
2.1909379e-64
2.1909357e-64
2.1909356e-64
2.1909365e-64
2.1909403e-64
2.1909535e-64
1.641443e-63
1.640988e-63
1.640836e-63
1.6407955e-63
1.6407867e-63
1.6407851e-63
1.6407849e-63
1.6407852e-63
1.6407864e-63
1.6407906e-63
1.640988e-63
1.6405333e-63
1.6403814e-63
1.6403409e-63
1.6403321e-63
1.6403305e-63
1.6403304e-63
1.6403309e-63
1.6403331e-63
1.6403413e-63
1.640836e-63
1.6403814e-63
1.6402295e-63
1.640189e-63
1.6401802e-63
1.6401786e-63
1.6401785e-63
1.6401792e-63
1.6401818e-63
1.640191e-63
1.6407955e-63
1.6403409e-63
1.640189e-63
1.6401485e-63
1.6401397e-63
1.6401382e-63
1.6401381e-63
1.6401387e-63
1.6401415e-63
1.640151e-63
1.6407867e-63
1.6403321e-63
1.6401802e-63
1.6401397e-63
1.640131e-63
1.6401294e-63
1.6401293e-63
1.64013e-63
1.6401328e-63
1.6401423e-63
1.6407851e-63
1.6403305e-63
1.6401786e-63
1.6401382e-63
1.6401294e-63
1.6401278e-63
1.6401277e-63
1.6401284e-63
1.6401312e-63
1.6401407e-63
1.6407849e-63
1.6403304e-63
1.6401785e-63
1.6401381e-63
1.6401293e-63
1.6401277e-63
1.6401276e-63
1.6401283e-63
1.6401311e-63
1.6401407e-63
1.6407852e-63
1.6403309e-63
1.6401792e-63
1.6401387e-63
1.64013e-63
1.6401284e-63
1.6401283e-63
1.640129e-63
1.6401318e-63
1.6401413e-63
1.6407864e-63
1.6403331e-63
1.6401818e-63
1.6401415e-63
1.6401328e-63
1.6401312e-63
1.6401311e-63
1.6401318e-63
1.6401346e-63
1.6401441e-63
1.6407906e-63
1.6403413e-63
1.640191e-63
1.640151e-63
1.6401423e-63
1.6401407e-63
1.6401407e-63
1.6401413e-63
1.6401441e-63
1.6401537e-63
1.2588384e-62
1.2585005e-62
1.2583874e-62
1.2583573e-62
1.2583508e-62
1.2583496e-62
1.2583494e-62
1.2583497e-62
1.2583505e-62
1.2583536e-62
1.2585005e-62
1.2581629e-62
1.2580498e-62
1.2580197e-62
1.2580132e-62
1.258012e-62
1.2580119e-62
1.2580123e-62
1.2580139e-62
1.25802e-62
1.2583874e-62
1.2580498e-62
1.2579369e-62
1.2579067e-62
1.2579002e-62
1.257899e-62
1.257899e-62
1.2578994e-62
1.2579014e-62
1.2579083e-62
1.2583573e-62
1.2580197e-62
1.2579067e-62
1.2578766e-62
1.2578701e-62
1.2578689e-62
1.2578689e-62
1.2578694e-62
1.2578714e-62
1.2578785e-62
1.2583508e-62
1.2580132e-62
1.2579002e-62
1.2578701e-62
1.2578636e-62
1.2578624e-62
1.2578623e-62
1.2578628e-62
1.2578649e-62
1.257872e-62
1.2583496e-62
1.258012e-62
1.257899e-62
1.2578689e-62
1.2578624e-62
1.2578612e-62
1.2578612e-62
1.2578617e-62
1.2578638e-62
1.2578709e-62
1.2583494e-62
1.2580119e-62
1.257899e-62
1.2578689e-62
1.2578623e-62
1.2578612e-62
1.2578611e-62
1.2578616e-62
1.2578637e-62
1.2578708e-62
1.2583497e-62
1.2580123e-62
1.2578994e-62
1.2578694e-62
1.2578628e-62
1.2578617e-62
1.2578616e-62
1.2578621e-62
1.2578642e-62
1.2578713e-62
1.2583505e-62
1.2580139e-62
1.2579014e-62
1.2578714e-62
1.2578649e-62
1.2578638e-62
1.2578637e-62
1.2578642e-62
1.2578663e-62
1.2578734e-62
1.2583536e-62
1.25802e-62
1.2579083e-62
1.2578785e-62
1.257872e-62
1.2578709e-62
1.2578708e-62
1.2578713e-62
1.2578734e-62
1.2578805e-62
9.8896497e-62
9.8870809e-62
9.88622e-62
9.8859904e-62
9.8859406e-62
9.8859316e-62
9.8859306e-62
9.8859321e-62
9.8859388e-62
9.8859621e-62
9.8870809e-62
9.8845137e-62
9.8836533e-62
9.8834238e-62
9.883374e-62
9.8833651e-62
9.8833643e-62
9.8833672e-62
9.8833799e-62
9.8834264e-62
9.88622e-62
9.8836533e-62
9.882793e-62
9.8825636e-62
9.8825138e-62
9.8825049e-62
9.8825043e-62
9.882508e-62
9.8825232e-62
9.8825757e-62
9.8859904e-62
9.8834238e-62
9.8825636e-62
9.8823342e-62
9.8822844e-62
9.8822755e-62
9.882275e-62
9.8822789e-62
9.8822949e-62
9.8823487e-62
9.8859406e-62
9.883374e-62
9.8825138e-62
9.8822844e-62
9.8822346e-62
9.8822258e-62
9.8822252e-62
9.8822292e-62
9.8822454e-62
9.8822994e-62
9.8859316e-62
9.8833651e-62
9.8825049e-62
9.8822755e-62
9.8822258e-62
9.8822169e-62
9.8822164e-62
9.8822203e-62
9.8822365e-62
9.8822906e-62
9.8859306e-62
9.8833643e-62
9.8825043e-62
9.882275e-62
9.8822252e-62
9.8822164e-62
9.8822159e-62
9.8822198e-62
9.882236e-62
9.8822901e-62
9.8859321e-62
9.8833672e-62
9.882508e-62
9.8822789e-62
9.8822292e-62
9.8822203e-62
9.8822198e-62
9.8822238e-62
9.88224e-62
9.8822941e-62
9.8859388e-62
9.8833799e-62
9.8825232e-62
9.8822949e-62
9.8822454e-62
9.8822365e-62
9.882236e-62
9.88224e-62
9.8822562e-62
9.8823103e-62
9.8859621e-62
9.8834264e-62
9.8825757e-62
9.8823487e-62
9.8822994e-62
9.8822906e-62
9.8822901e-62
9.8822941e-62
9.8823103e-62
9.8823645e-62
7.9582194e-61
7.9562201e-61
7.9555491e-61
7.9553701e-61
7.9553312e-61
7.9553242e-61
7.9553234e-61
7.9553246e-61
7.9553299e-61
7.9553477e-61
7.9562201e-61
7.954222e-61
7.9535514e-61
7.9533724e-61
7.9533336e-61
7.9533266e-61
7.953326e-61
7.9533283e-61
7.9533383e-61
7.9533746e-61
7.9555491e-61
7.9535514e-61
7.9528809e-61
7.952702e-61
7.9526631e-61
7.9526562e-61
7.9526558e-61
7.9526587e-61
7.9526707e-61
7.9527117e-61
7.9553701e-61
7.9533724e-61
7.952702e-61
7.9525231e-61
7.9524843e-61
7.9524773e-61
7.9524769e-61
7.95248e-61
7.9524926e-61
7.9525347e-61
7.9553312e-61
7.9533336e-61
7.9526631e-61
7.9524843e-61
7.9524454e-61
7.9524385e-61
7.9524381e-61
7.9524413e-61
7.952454e-61
7.9524963e-61
7.9553242e-61
7.9533266e-61
7.9526562e-61
7.9524773e-61
7.9524385e-61
7.9524316e-61
7.9524312e-61
7.9524343e-61
7.9524471e-61
7.9524894e-61
7.9553234e-61
7.953326e-61
7.9526558e-61
7.9524769e-61
7.9524381e-61
7.9524312e-61
7.9524308e-61
7.952434e-61
7.9524467e-61
7.952489e-61
7.9553246e-61
7.9533283e-61
7.9526587e-61
7.95248e-61
7.9524413e-61
7.9524343e-61
7.952434e-61
7.9524371e-61
7.9524499e-61
7.9524922e-61
7.9553299e-61
7.9533383e-61
7.9526707e-61
7.9524926e-61
7.952454e-61
7.9524471e-61
7.9524467e-61
7.9524499e-61
7.9524626e-61
7.9525049e-61
7.9553477e-61
7.9533746e-61
7.9527117e-61
7.9525347e-61
7.9524963e-61
7.9524894e-61
7.952489e-61
7.9524922e-61
7.9525049e-61
7.9525473e-61
6.558828e-60
6.5572353e-60
6.5567e-60
6.5565571e-60
6.5565261e-60
6.5565205e-60
6.5565199e-60
6.5565209e-60
6.5565251e-60
6.5565391e-60
6.5572353e-60
6.5556435e-60
6.5551085e-60
6.5549657e-60
6.5549347e-60
6.5549291e-60
6.5549287e-60
6.5549305e-60
6.5549385e-60
6.5549675e-60
6.5567e-60
6.5551085e-60
6.5545736e-60
6.5544308e-60
6.5543998e-60
6.5543943e-60
6.5543939e-60
6.5543963e-60
6.554406e-60
6.5544388e-60
6.5565571e-60
6.5549657e-60
6.5544308e-60
6.5542881e-60
6.5542571e-60
6.5542515e-60
6.5542512e-60
6.5542537e-60
6.5542639e-60
6.5542976e-60
6.5565261e-60
6.5549347e-60
6.5543998e-60
6.5542571e-60
6.5542261e-60
6.5542205e-60
6.5542202e-60
6.5542228e-60
6.5542331e-60
6.5542669e-60
6.5565205e-60
6.5549291e-60
6.5543943e-60
6.5542515e-60
6.5542205e-60
6.554215e-60
6.5542147e-60
6.5542173e-60
6.5542276e-60
6.5542614e-60
6.5565199e-60
6.5549287e-60
6.5543939e-60
6.5542512e-60
6.5542202e-60
6.5542147e-60
6.5542144e-60
6.554217e-60
6.5542273e-60
6.5542611e-60
6.5565209e-60
6.5549305e-60
6.5543963e-60
6.5542537e-60
6.5542228e-60
6.5542173e-60
6.554217e-60
6.5542195e-60
6.5542298e-60
6.5542637e-60
6.5565251e-60
6.5549385e-60
6.554406e-60
6.5542639e-60
6.5542331e-60
6.5542276e-60
6.5542273e-60
6.5542298e-60
6.5542401e-60
6.554274e-60
6.5565391e-60
6.5549675e-60
6.5544388e-60
6.5542976e-60
6.5542669e-60
6.5542614e-60
6.5542611e-60
6.5542637e-60
6.554274e-60
6.5543079e-60
5.5355013e-59
5.5342027e-59
5.5337658e-59
5.5336491e-59
5.5336237e-59
5.5336191e-59
5.5336186e-59
5.5336195e-59
5.5336229e-59
5.5336342e-59
5.5342027e-59
5.5329049e-59
5.5324682e-59
5.5323515e-59
5.5323262e-59
5.5323217e-59
5.5323213e-59
5.5323228e-59
5.5323295e-59
5.5323532e-59
5.5337658e-59
5.5324682e-59
5.5320315e-59
5.5319149e-59
5.5318896e-59
5.5318851e-59
5.5318848e-59
5.5318867e-59
5.5318947e-59
5.5319216e-59
5.5336491e-59
5.5323515e-59
5.5319149e-59
5.5317983e-59
5.531773e-59
5.5317684e-59
5.5317682e-59
5.5317703e-59
5.5317787e-59
5.5318063e-59
5.5336237e-59
5.5323262e-59
5.5318896e-59
5.531773e-59
5.5317476e-59
5.5317431e-59
5.5317429e-59
5.531745e-59
5.5317535e-59
5.5317813e-59
5.5336191e-59
5.5323217e-59
5.5318851e-59
5.5317684e-59
5.5317431e-59
5.5317386e-59
5.5317384e-59
5.5317405e-59
5.531749e-59
5.5317768e-59
5.5336186e-59
5.5323213e-59
5.5318848e-59
5.5317682e-59
5.5317429e-59
5.5317384e-59
5.5317381e-59
5.5317402e-59
5.5317488e-59
5.5317766e-59
5.5336195e-59
5.5323228e-59
5.5318867e-59
5.5317703e-59
5.531745e-59
5.5317405e-59
5.5317402e-59
5.5317424e-59
5.5317509e-59
5.5317787e-59
5.5336229e-59
5.5323295e-59
5.5318947e-59
5.5317787e-59
5.5317535e-59
5.531749e-59
5.5317488e-59
5.5317509e-59
5.5317594e-59
5.5317872e-59
5.5336342e-59
5.5323532e-59
5.5319216e-59
5.5318063e-59
5.5317813e-59
5.5317768e-59
5.5317766e-59
5.5317787e-59
5.5317872e-59
5.531815e-59
4.7835097e-58
4.7824264e-58
4.7820614e-58
4.7819638e-58
4.7819426e-58
4.7819388e-58
4.7819384e-58
4.7819391e-58
4.781942e-58
4.7819513e-58
4.7824264e-58
4.7813437e-58
4.7809789e-58
4.7808814e-58
4.7808602e-58
4.7808564e-58
4.7808561e-58
4.7808574e-58
4.780863e-58
4.7808829e-58
4.7820614e-58
4.7809789e-58
4.7806141e-58
4.7805166e-58
4.7804955e-58
4.7804917e-58
4.7804914e-58
4.7804931e-58
4.7804999e-58
4.7805225e-58
4.7819638e-58
4.7808814e-58
4.7805166e-58
4.7804192e-58
4.780398e-58
4.7803942e-58
4.780394e-58
4.7803958e-58
4.7804029e-58
4.7804261e-58
4.7819426e-58
4.7808602e-58
4.7804955e-58
4.780398e-58
4.7803768e-58
4.7803731e-58
4.7803729e-58
4.7803747e-58
4.7803819e-58
4.7804052e-58
4.7819388e-58
4.7808564e-58
4.7804917e-58
4.7803942e-58
4.7803731e-58
4.7803693e-58
4.7803691e-58
4.7803709e-58
4.7803781e-58
4.7804014e-58
4.7819384e-58
4.7808561e-58
4.7804914e-58
4.780394e-58
4.7803729e-58
4.7803691e-58
4.7803689e-58
4.7803707e-58
4.7803779e-58
4.7804012e-58
4.7819391e-58
4.7808574e-58
4.7804931e-58
4.7803958e-58
4.7803747e-58
4.7803709e-58
4.7803707e-58
4.7803725e-58
4.7803797e-58
4.780403e-58
4.781942e-58
4.780863e-58
4.7804999e-58
4.7804029e-58
4.7803819e-58
4.7803781e-58
4.7803779e-58
4.7803797e-58
4.7803869e-58
4.7804103e-58
4.7819513e-58
4.7808829e-58
4.7805225e-58
4.7804261e-58
4.7804052e-58
4.7804014e-58
4.7804012e-58
4.780403e-58
4.7804103e-58
4.7804336e-58
4.231821e-57
4.2308964e-57
4.2305845e-57
4.2305011e-57
4.230483e-57
4.2304797e-57
4.2304793e-57
4.2304799e-57
4.2304824e-57
4.2304903e-57
4.2308964e-57
4.2299723e-57
4.2296606e-57
4.2295772e-57
4.2295591e-57
4.2295559e-57
4.2295556e-57
4.2295567e-57
4.2295616e-57
4.2295787e-57
4.2305845e-57
4.2296606e-57
4.2293489e-57
4.2292655e-57
4.2292474e-57
4.2292442e-57
4.229244e-57
4.2292454e-57
4.2292513e-57
4.2292707e-57
4.2305011e-57
4.2295772e-57
4.2292655e-57
4.2291822e-57
4.2291641e-57
4.2291609e-57
4.2291607e-57
4.2291622e-57
4.2291684e-57
4.2291884e-57
4.230483e-57
4.2295591e-57
4.2292474e-57
4.2291641e-57
4.229146e-57
4.2291428e-57
4.2291426e-57
4.2291442e-57
4.2291504e-57
4.2291705e-57
4.2304797e-57
4.2295559e-57
4.2292442e-57
4.2291609e-57
4.2291428e-57
4.2291396e-57
4.2291394e-57
4.229141e-57
4.2291472e-57
4.2291673e-57
4.2304793e-57
4.2295556e-57
4.229244e-57
4.2291607e-57
4.2291426e-57
4.2291394e-57
4.2291392e-57
4.2291408e-57
4.229147e-57
4.2291671e-57
4.2304799e-57
4.2295567e-57
4.2292454e-57
4.2291622e-57
4.2291442e-57
4.229141e-57
4.2291408e-57
4.2291424e-57
4.2291486e-57
4.2291687e-57
4.2304824e-57
4.2295616e-57
4.2292513e-57
4.2291684e-57
4.2291504e-57
4.2291472e-57
4.229147e-57
4.2291486e-57
4.2291549e-57
4.2291749e-57
4.2304903e-57
4.2295787e-57
4.2292707e-57
4.2291884e-57
4.2291705e-57
4.2291673e-57
4.2291671e-57
4.2291687e-57
4.2291749e-57
4.229195e-57
3.8319858e-56
3.8311786e-56
3.830906e-56
3.8308331e-56
3.8308172e-56
3.8308144e-56
3.8308141e-56
3.8308146e-56
3.8308168e-56
3.8308236e-56
3.8311786e-56
3.8303719e-56
3.8300994e-56
3.8300266e-56
3.8300107e-56
3.8300079e-56
3.8300077e-56
3.8300087e-56
3.830013e-56
3.830028e-56
3.830906e-56
3.8300994e-56
3.829827e-56
3.8297541e-56
3.8297383e-56
3.8297355e-56
3.8297353e-56
3.8297366e-56
3.8297418e-56
3.8297589e-56
3.8308331e-56
3.8300266e-56
3.8297541e-56
3.8296813e-56
3.8296654e-56
3.8296626e-56
3.8296625e-56
3.8296638e-56
3.8296693e-56
3.8296869e-56
3.8308172e-56
3.8300107e-56
3.8297383e-56
3.8296654e-56
3.8296496e-56
3.8296468e-56
3.8296466e-56
3.829648e-56
3.8296536e-56
3.8296712e-56
3.8308144e-56
3.8300079e-56
3.8297355e-56
3.8296626e-56
3.8296468e-56
3.829644e-56
3.8296438e-56
3.8296452e-56
3.8296508e-56
3.8296684e-56
3.8308141e-56
3.8300077e-56
3.8297353e-56
3.8296625e-56
3.8296466e-56
3.8296438e-56
3.8296437e-56
3.8296451e-56
3.8296506e-56
3.8296683e-56
3.8308146e-56
3.8300087e-56
3.8297366e-56
3.8296638e-56
3.829648e-56
3.8296452e-56
3.8296451e-56
3.8296465e-56
3.829652e-56
3.8296697e-56
3.8308168e-56
3.830013e-56
3.8297418e-56
3.8296693e-56
3.8296536e-56
3.8296508e-56
3.8296506e-56
3.829652e-56
3.8296575e-56
3.8296752e-56
3.8308236e-56
3.830028e-56
3.8297589e-56
3.8296869e-56
3.8296712e-56
3.8296684e-56
3.8296683e-56
3.8296697e-56
3.8296752e-56
3.8296929e-56
3.55103e-55
3.5503094e-55
3.5500658e-55
3.5500006e-55
3.5499864e-55
3.5499838e-55
3.5499836e-55
3.549984e-55
3.549986e-55
3.5499921e-55
3.5503094e-55
3.5495893e-55
3.5493457e-55
3.5492805e-55
3.5492664e-55
3.5492638e-55
3.5492636e-55
3.5492645e-55
3.5492684e-55
3.5492819e-55
3.5500658e-55
3.5493457e-55
3.5491022e-55
3.549037e-55
3.5490229e-55
3.5490203e-55
3.5490202e-55
3.5490213e-55
3.5490261e-55
3.5490415e-55
3.5500006e-55
3.5492805e-55
3.549037e-55
3.5489719e-55
3.5489577e-55
3.5489552e-55
3.5489551e-55
3.5489563e-55
3.5489613e-55
3.5489771e-55
3.5499864e-55
3.5492664e-55
3.5490229e-55
3.5489577e-55
3.5489435e-55
3.548941e-55
3.5489409e-55
3.5489422e-55
3.5489472e-55
3.5489631e-55
3.5499838e-55
3.5492638e-55
3.5490203e-55
3.5489552e-55
3.548941e-55
3.5489385e-55
3.5489384e-55
3.5489396e-55
3.5489447e-55
3.5489606e-55
3.5499836e-55
3.5492636e-55
3.5490202e-55
3.5489551e-55
3.5489409e-55
3.5489384e-55
3.5489383e-55
3.5489395e-55
3.5489446e-55
3.5489605e-55
3.549984e-55
3.5492645e-55
3.5490213e-55
3.5489563e-55
3.5489422e-55
3.5489396e-55
3.5489395e-55
3.5489408e-55
3.5489458e-55
3.5489618e-55
3.549986e-55
3.5492684e-55
3.5490261e-55
3.5489613e-55
3.5489472e-55
3.5489447e-55
3.5489446e-55
3.5489458e-55
3.5489509e-55
3.5489668e-55
3.5499921e-55
3.5492819e-55
3.5490415e-55
3.5489771e-55
3.5489631e-55
3.5489606e-55
3.5489605e-55
3.5489618e-55
3.5489668e-55
3.5489827e-55
3.3668912e-54
3.3662335e-54
3.3660108e-54
3.3659512e-54
3.3659383e-54
3.3659359e-54
3.3659357e-54
3.3659361e-54
3.365938e-54
3.3659434e-54
3.3662335e-54
3.3655762e-54
3.3653536e-54
3.365294e-54
3.3652811e-54
3.3652787e-54
3.3652786e-54
3.3652794e-54
3.365283e-54
3.3652954e-54
3.3660108e-54
3.3653536e-54
3.3651311e-54
3.3650715e-54
3.3650585e-54
3.3650562e-54
3.3650561e-54
3.3650572e-54
3.3650616e-54
3.3650758e-54
3.3659512e-54
3.365294e-54
3.3650715e-54
3.3650119e-54
3.364999e-54
3.3649967e-54
3.3649966e-54
3.3649977e-54
3.3650023e-54
3.3650169e-54
3.3659383e-54
3.3652811e-54
3.3650585e-54
3.364999e-54
3.364986e-54
3.3649837e-54
3.3649836e-54
3.3649848e-54
3.3649895e-54
3.3650041e-54
3.3659359e-54
3.3652787e-54
3.3650562e-54
3.3649967e-54
3.3649837e-54
3.3649814e-54
3.3649813e-54
3.3649825e-54
3.3649872e-54
3.3650019e-54
3.3659357e-54
3.3652786e-54
3.3650561e-54
3.3649966e-54
3.3649836e-54
3.3649813e-54
3.3649812e-54
3.3649824e-54
3.3649871e-54
3.3650018e-54
3.3659361e-54
3.3652794e-54
3.3650572e-54
3.3649977e-54
3.3649848e-54
3.3649825e-54
3.3649824e-54
3.3649836e-54
3.3649882e-54
3.3650029e-54
3.365938e-54
3.365283e-54
3.3650616e-54
3.3650023e-54
3.3649895e-54
3.3649872e-54
3.3649871e-54
3.3649882e-54
3.3649929e-54
3.3650076e-54
3.3659434e-54
3.3652954e-54
3.3650758e-54
3.3650169e-54
3.3650041e-54
3.3650019e-54
3.3650018e-54
3.3650029e-54