/*--------------------------------*- C++ -*----------------------------------*\
| =========                 |                                                 |
| \\      /  F ield         | OpenFOAM: The Open Source CFD Toolbox           |
|  \\    /   O peration     | Version:  dev                                   |
|   \\  /    A nd           | Web:      www.OpenFOAM.org                      |
|    \\/     M anipulation  |                                                 |
\*---------------------------------------------------------------------------*/
FoamFile
{
    version     2.0;
    format      ascii;
    class       volScalarField;
    location    "10";
    object      A_0;
}
// * * * * * * * * * * * * * * * * * * * * * * * * * * * * * * * * * * * * * //

dimensions      [0 0 0 0 1 0 0];

internalField   nonuniform List<scalar> 
10000
(
7.1833512e-72
7.1806784e-72
7.1798043e-72
7.1795729e-72
7.1795229e-72
7.1795139e-72
7.1795128e-72
7.1795142e-72
7.179521e-72
7.1795499e-72
7.1806784e-72
7.1780077e-72
7.1771341e-72
7.1769029e-72
7.1768528e-72
7.1768439e-72
7.176843e-72
7.1768456e-72
7.1768575e-72
7.1769061e-72
7.1798043e-72
7.1771341e-72
7.1762607e-72
7.1760296e-72
7.1759796e-72
7.1759706e-72
7.1759699e-72
7.1759731e-72
7.1759872e-72
7.1760409e-72
7.1795729e-72
7.1769029e-72
7.1760296e-72
7.1757984e-72
7.1757484e-72
7.1757395e-72
7.1757388e-72
7.1757422e-72
7.175757e-72
7.1758118e-72
7.1795229e-72
7.1768528e-72
7.1759796e-72
7.1757484e-72
7.1756984e-72
7.1756895e-72
7.1756888e-72
7.1756923e-72
7.1757072e-72
7.1757622e-72
7.1795139e-72
7.1768439e-72
7.1759706e-72
7.1757395e-72
7.1756895e-72
7.1756805e-72
7.1756799e-72
7.1756834e-72
7.1756983e-72
7.1757533e-72
7.1795128e-72
7.176843e-72
7.1759699e-72
7.1757388e-72
7.1756888e-72
7.1756799e-72
7.1756793e-72
7.1756827e-72
7.1756976e-72
7.1757527e-72
7.1795142e-72
7.1768456e-72
7.1759731e-72
7.1757422e-72
7.1756923e-72
7.1756834e-72
7.1756827e-72
7.1756862e-72
7.1757011e-72
7.1757562e-72
7.179521e-72
7.1768575e-72
7.1759872e-72
7.175757e-72
7.1757072e-72
7.1756983e-72
7.1756976e-72
7.1757011e-72
7.175716e-72
7.1757711e-72
7.1795499e-72
7.1769061e-72
7.1760409e-72
7.1758118e-72
7.1757622e-72
7.1757533e-72
7.1757527e-72
7.1757562e-72
7.1757711e-72
7.1758262e-72
5.15559e-71
5.1537222e-71
5.1531078e-71
5.1529451e-71
5.1529098e-71
5.1529035e-71
5.1529027e-71
5.1529037e-71
5.1529085e-71
5.1529295e-71
5.1537222e-71
5.1518558e-71
5.1512418e-71
5.1510791e-71
5.1510439e-71
5.1510376e-71
5.151037e-71
5.1510388e-71
5.1510472e-71
5.1510822e-71
5.1531078e-71
5.1512418e-71
5.1506279e-71
5.1504653e-71
5.1504301e-71
5.1504238e-71
5.1504233e-71
5.1504256e-71
5.1504355e-71
5.1504742e-71
5.1529451e-71
5.1510791e-71
5.1504653e-71
5.1503027e-71
5.1502675e-71
5.1502612e-71
5.1502608e-71
5.1502632e-71
5.1502736e-71
5.150313e-71
5.1529098e-71
5.1510439e-71
5.1504301e-71
5.1502675e-71
5.1502323e-71
5.150226e-71
5.1502256e-71
5.1502281e-71
5.1502386e-71
5.1502782e-71
5.1529035e-71
5.1510376e-71
5.1504238e-71
5.1502612e-71
5.150226e-71
5.1502198e-71
5.1502193e-71
5.1502218e-71
5.1502323e-71
5.1502719e-71
5.1529027e-71
5.151037e-71
5.1504233e-71
5.1502608e-71
5.1502256e-71
5.1502193e-71
5.1502189e-71
5.1502213e-71
5.1502319e-71
5.1502715e-71
5.1529037e-71
5.1510388e-71
5.1504256e-71
5.1502632e-71
5.1502281e-71
5.1502218e-71
5.1502213e-71
5.1502238e-71
5.1502343e-71
5.150274e-71
5.1529085e-71
5.1510472e-71
5.1504355e-71
5.1502736e-71
5.1502386e-71
5.1502323e-71
5.1502319e-71
5.1502343e-71
5.1502449e-71
5.1502845e-71
5.1529295e-71
5.1510822e-71
5.1504742e-71
5.150313e-71
5.1502782e-71
5.1502719e-71
5.1502715e-71
5.150274e-71
5.1502845e-71
5.1503241e-71
3.1906064e-70
3.1894821e-70
3.1891114e-70
3.1890132e-70
3.188992e-70
3.1889881e-70
3.1889877e-70
3.1889883e-70
3.1889911e-70
3.1890036e-70
3.1894821e-70
3.1883586e-70
3.1879882e-70
3.18789e-70
3.1878688e-70
3.1878649e-70
3.1878646e-70
3.1878657e-70
3.1878708e-70
3.1878918e-70
3.1891114e-70
3.1879882e-70
3.1876179e-70
3.1875197e-70
3.1874985e-70
3.1874947e-70
3.1874944e-70
3.1874958e-70
3.1875018e-70
3.1875251e-70
3.1890132e-70
3.18789e-70
3.1875197e-70
3.1874216e-70
3.1874004e-70
3.1873966e-70
3.1873963e-70
3.1873978e-70
3.1874041e-70
3.1874278e-70
3.188992e-70
3.1878688e-70
3.1874985e-70
3.1874004e-70
3.1873791e-70
3.1873753e-70
3.1873751e-70
3.1873765e-70
3.1873829e-70
3.1874068e-70
3.1889881e-70
3.1878649e-70
3.1874947e-70
3.1873966e-70
3.1873753e-70
3.1873715e-70
3.1873713e-70
3.1873728e-70
3.1873792e-70
3.187403e-70
3.1889877e-70
3.1878646e-70
3.1874944e-70
3.1873963e-70
3.1873751e-70
3.1873713e-70
3.187371e-70
3.1873725e-70
3.1873789e-70
3.1874028e-70
3.1889883e-70
3.1878657e-70
3.1874958e-70
3.1873978e-70
3.1873765e-70
3.1873728e-70
3.1873725e-70
3.187374e-70
3.1873804e-70
3.1874043e-70
3.1889911e-70
3.1878708e-70
3.1875018e-70
3.1874041e-70
3.1873829e-70
3.1873792e-70
3.1873789e-70
3.1873804e-70
3.1873868e-70
3.1874107e-70
3.1890036e-70
3.1878918e-70
3.1875251e-70
3.1874278e-70
3.1874068e-70
3.187403e-70
3.1874028e-70
3.1874043e-70
3.1874107e-70
3.1874345e-70
2.0148079e-69
2.0141178e-69
2.0138898e-69
2.0138294e-69
2.0138163e-69
2.0138139e-69
2.0138137e-69
2.013814e-69
2.0138158e-69
2.0138233e-69
2.0141178e-69
2.0134281e-69
2.0132003e-69
2.0131399e-69
2.0131268e-69
2.0131244e-69
2.0131242e-69
2.0131249e-69
2.013128e-69
2.0131409e-69
2.0138898e-69
2.0132003e-69
2.0129725e-69
2.0129121e-69
2.0128991e-69
2.0128967e-69
2.0128965e-69
2.0128974e-69
2.0129011e-69
2.0129153e-69
2.0138294e-69
2.0131399e-69
2.0129121e-69
2.0128517e-69
2.0128387e-69
2.0128363e-69
2.0128362e-69
2.0128371e-69
2.012841e-69
2.0128555e-69
2.0138163e-69
2.0131268e-69
2.0128991e-69
2.0128387e-69
2.0128256e-69
2.0128232e-69
2.0128231e-69
2.012824e-69
2.012828e-69
2.0128425e-69
2.0138139e-69
2.0131244e-69
2.0128967e-69
2.0128363e-69
2.0128232e-69
2.0128209e-69
2.0128208e-69
2.0128217e-69
2.0128256e-69
2.0128402e-69
2.0138137e-69
2.0131242e-69
2.0128965e-69
2.0128362e-69
2.0128231e-69
2.0128208e-69
2.0128206e-69
2.0128215e-69
2.0128255e-69
2.0128401e-69
2.013814e-69
2.0131249e-69
2.0128974e-69
2.0128371e-69
2.012824e-69
2.0128217e-69
2.0128215e-69
2.0128225e-69
2.0128264e-69
2.012841e-69
2.0138158e-69
2.013128e-69
2.0129011e-69
2.012841e-69
2.012828e-69
2.0128256e-69
2.0128255e-69
2.0128264e-69
2.0128304e-69
2.012845e-69
2.0138233e-69
2.0131409e-69
2.0129153e-69
2.0128555e-69
2.0128425e-69
2.0128402e-69
2.0128401e-69
2.012841e-69
2.012845e-69
2.0128595e-69
1.3036479e-68
1.303214e-68
1.3030704e-68
1.3030323e-68
1.303024e-68
1.3030226e-68
1.3030224e-68
1.3030226e-68
1.3030237e-68
1.3030283e-68
1.303214e-68
1.3027803e-68
1.3026369e-68
1.3025988e-68
1.3025905e-68
1.3025891e-68
1.3025889e-68
1.3025894e-68
1.3025913e-68
1.3025993e-68
1.3030704e-68
1.3026369e-68
1.3024934e-68
1.3024553e-68
1.3024471e-68
1.3024456e-68
1.3024455e-68
1.3024461e-68
1.3024484e-68
1.3024573e-68
1.3030323e-68
1.3025988e-68
1.3024553e-68
1.3024173e-68
1.302409e-68
1.3024076e-68
1.3024075e-68
1.3024081e-68
1.3024105e-68
1.3024196e-68
1.303024e-68
1.3025905e-68
1.3024471e-68
1.302409e-68
1.3024008e-68
1.3023993e-68
1.3023992e-68
1.3023998e-68
1.3024023e-68
1.3024114e-68
1.3030226e-68
1.3025891e-68
1.3024456e-68
1.3024076e-68
1.3023993e-68
1.3023979e-68
1.3023978e-68
1.3023984e-68
1.3024009e-68
1.30241e-68
1.3030224e-68
1.3025889e-68
1.3024455e-68
1.3024075e-68
1.3023992e-68
1.3023978e-68
1.3023977e-68
1.3023983e-68
1.3024008e-68
1.3024099e-68
1.3030226e-68
1.3025894e-68
1.3024461e-68
1.3024081e-68
1.3023998e-68
1.3023984e-68
1.3023983e-68
1.3023988e-68
1.3024014e-68
1.3024105e-68
1.3030237e-68
1.3025913e-68
1.3024484e-68
1.3024105e-68
1.3024023e-68
1.3024009e-68
1.3024008e-68
1.3024014e-68
1.3024039e-68
1.302413e-68
1.3030283e-68
1.3025993e-68
1.3024573e-68
1.3024196e-68
1.3024114e-68
1.30241e-68
1.3024099e-68
1.3024105e-68
1.302413e-68
1.3024221e-68
8.6436678e-68
8.6408733e-68
8.6399472e-68
8.6397013e-68
8.639648e-68
8.6396385e-68
8.6396373e-68
8.6396389e-68
8.639646e-68
8.6396749e-68
8.6408733e-68
8.6380808e-68
8.6371553e-68
8.6369095e-68
8.6368563e-68
8.6368467e-68
8.6368459e-68
8.6368487e-68
8.6368616e-68
8.6369128e-68
8.6399472e-68
8.6371553e-68
8.6362299e-68
8.6359842e-68
8.635931e-68
8.6359215e-68
8.6359208e-68
8.6359244e-68
8.6359397e-68
8.6359968e-68
8.6397013e-68
8.6369095e-68
8.6359842e-68
8.6357386e-68
8.6356853e-68
8.6356758e-68
8.6356752e-68
8.635679e-68
8.6356951e-68
8.6357534e-68
8.639648e-68
8.6368563e-68
8.635931e-68
8.6356853e-68
8.6356321e-68
8.6356226e-68
8.635622e-68
8.6356259e-68
8.6356421e-68
8.6357007e-68
8.6396385e-68
8.6368467e-68
8.6359215e-68
8.6356758e-68
8.6356226e-68
8.6356131e-68
8.6356125e-68
8.6356164e-68
8.6356327e-68
8.6356913e-68
8.6396373e-68
8.6368459e-68
8.6359208e-68
8.6356752e-68
8.635622e-68
8.6356125e-68
8.6356119e-68
8.6356157e-68
8.635632e-68
8.6356906e-68
8.6396389e-68
8.6368487e-68
8.6359244e-68
8.635679e-68
8.6356259e-68
8.6356164e-68
8.6356157e-68
8.6356196e-68
8.6356359e-68
8.6356945e-68
8.639646e-68
8.6368616e-68
8.6359397e-68
8.6356951e-68
8.6356421e-68
8.6356327e-68
8.635632e-68
8.6356359e-68
8.6356522e-68
8.6357108e-68
8.6396749e-68
8.6369128e-68
8.6359968e-68
8.6357534e-68
8.6357007e-68
8.6356913e-68
8.6356906e-68
8.6356945e-68
8.6357108e-68
8.6357694e-68
5.8727683e-67
5.8709251e-67
5.8703133e-67
5.8701507e-67
5.8701155e-67
5.8701091e-67
5.8701084e-67
5.8701094e-67
5.8701141e-67
5.8701327e-67
5.8709251e-67
5.8690832e-67
5.8684717e-67
5.8683092e-67
5.868274e-67
5.8682677e-67
5.8682671e-67
5.868269e-67
5.8682776e-67
5.8683112e-67
5.8703133e-67
5.8684717e-67
5.8678603e-67
5.8676979e-67
5.8676627e-67
5.8676564e-67
5.8676559e-67
5.8676583e-67
5.8676686e-67
5.8677061e-67
5.8701507e-67
5.8683092e-67
5.8676979e-67
5.8675355e-67
5.8675003e-67
5.867494e-67
5.8674936e-67
5.8674961e-67
5.8675068e-67
5.8675452e-67
5.8701155e-67
5.868274e-67
5.8676627e-67
5.8675003e-67
5.8674651e-67
5.8674588e-67
5.8674584e-67
5.867461e-67
5.8674718e-67
5.8675103e-67
5.8701091e-67
5.8682677e-67
5.8676564e-67
5.867494e-67
5.8674588e-67
5.8674525e-67
5.8674521e-67
5.8674547e-67
5.8674655e-67
5.8675041e-67
5.8701084e-67
5.8682671e-67
5.8676559e-67
5.8674936e-67
5.8674584e-67
5.8674521e-67
5.8674517e-67
5.8674543e-67
5.8674651e-67
5.8675037e-67
5.8701094e-67
5.868269e-67
5.8676583e-67
5.8674961e-67
5.867461e-67
5.8674547e-67
5.8674543e-67
5.8674569e-67
5.8674677e-67
5.8675063e-67
5.8701141e-67
5.8682776e-67
5.8676686e-67
5.8675068e-67
5.8674718e-67
5.8674655e-67
5.8674651e-67
5.8674677e-67
5.8674786e-67
5.8675172e-67
5.8701327e-67
5.8683112e-67
5.8677061e-67
5.8675452e-67
5.8675103e-67
5.8675041e-67
5.8675037e-67
5.8675063e-67
5.8675172e-67
5.8675557e-67
4.0886946e-66
4.0874495e-66
4.0870354e-66
4.0869254e-66
4.0869015e-66
4.0868972e-66
4.0868967e-66
4.0868974e-66
4.0869006e-66
4.0869129e-66
4.0874495e-66
4.0862051e-66
4.0857913e-66
4.0856813e-66
4.0856575e-66
4.0856532e-66
4.0856528e-66
4.0856541e-66
4.0856599e-66
4.0856826e-66
4.0870354e-66
4.0857913e-66
4.0853776e-66
4.0852676e-66
4.0852438e-66
4.0852395e-66
4.0852392e-66
4.0852409e-66
4.0852479e-66
4.0852731e-66
4.0869254e-66
4.0856813e-66
4.0852676e-66
4.0851577e-66
4.0851338e-66
4.0851296e-66
4.0851293e-66
4.085131e-66
4.0851384e-66
4.0851642e-66
4.0869015e-66
4.0856575e-66
4.0852438e-66
4.0851338e-66
4.08511e-66
4.0851057e-66
4.0851055e-66
4.0851073e-66
4.0851146e-66
4.0851406e-66
4.0868972e-66
4.0856532e-66
4.0852395e-66
4.0851296e-66
4.0851057e-66
4.0851015e-66
4.0851012e-66
4.085103e-66
4.0851104e-66
4.0851364e-66
4.0868967e-66
4.0856528e-66
4.0852392e-66
4.0851293e-66
4.0851055e-66
4.0851012e-66
4.085101e-66
4.0851027e-66
4.0851101e-66
4.0851362e-66
4.0868974e-66
4.0856541e-66
4.0852409e-66
4.085131e-66
4.0851073e-66
4.085103e-66
4.0851027e-66
4.0851045e-66
4.0851119e-66
4.0851379e-66
4.0869006e-66
4.0856599e-66
4.0852479e-66
4.0851384e-66
4.0851146e-66
4.0851104e-66
4.0851101e-66
4.0851119e-66
4.0851193e-66
4.0851453e-66
4.0869129e-66
4.0856826e-66
4.0852731e-66
4.0851642e-66
4.0851406e-66
4.0851364e-66
4.0851362e-66
4.0851379e-66
4.0851453e-66
4.0851714e-66
2.9168115e-65
2.91595e-65
2.915663e-65
2.9155867e-65
2.9155702e-65
2.9155672e-65
2.9155669e-65
2.9155673e-65
2.9155695e-65
2.9155779e-65
2.91595e-65
2.915089e-65
2.9148023e-65
2.914726e-65
2.9147095e-65
2.9147065e-65
2.9147062e-65
2.9147071e-65
2.9147112e-65
2.9147268e-65
2.915663e-65
2.9148023e-65
2.9145156e-65
2.9144393e-65
2.9144228e-65
2.9144198e-65
2.9144196e-65
2.9144208e-65
2.9144256e-65
2.9144431e-65
2.9155867e-65
2.914726e-65
2.9144393e-65
2.9143631e-65
2.9143465e-65
2.9143436e-65
2.9143434e-65
2.9143446e-65
2.9143497e-65
2.9143676e-65
2.9155702e-65
2.9147095e-65
2.9144228e-65
2.9143465e-65
2.91433e-65
2.9143271e-65
2.9143269e-65
2.9143281e-65
2.9143333e-65
2.9143513e-65
2.9155672e-65
2.9147065e-65
2.9144198e-65
2.9143436e-65
2.9143271e-65
2.9143241e-65
2.9143239e-65
2.9143252e-65
2.9143303e-65
2.9143483e-65
2.9155669e-65
2.9147062e-65
2.9144196e-65
2.9143434e-65
2.9143269e-65
2.9143239e-65
2.9143237e-65
2.914325e-65
2.9143302e-65
2.9143482e-65
2.9155673e-65
2.9147071e-65
2.9144208e-65
2.9143446e-65
2.9143281e-65
2.9143252e-65
2.914325e-65
2.9143262e-65
2.9143314e-65
2.9143494e-65
2.9155695e-65
2.9147112e-65
2.9144256e-65
2.9143497e-65
2.9143333e-65
2.9143303e-65
2.9143302e-65
2.9143314e-65
2.9143366e-65
2.9143546e-65
2.9155779e-65
2.9147268e-65
2.9144431e-65
2.9143676e-65
2.9143513e-65
2.9143483e-65
2.9143482e-65
2.9143494e-65
2.9143546e-65
2.9143726e-65
2.1320313e-64
2.1314209e-64
2.1312173e-64
2.1311631e-64
2.1311513e-64
2.1311492e-64
2.131149e-64
2.1311493e-64
2.1311509e-64
2.1311567e-64
2.1314209e-64
2.1308109e-64
2.1306074e-64
2.1305532e-64
2.1305415e-64
2.1305394e-64
2.1305392e-64
2.1305398e-64
2.1305427e-64
2.1305538e-64
2.1312173e-64
2.1306074e-64
2.1304039e-64
2.1303498e-64
2.130338e-64
2.1303359e-64
2.1303358e-64
2.1303366e-64
2.1303401e-64
2.1303525e-64
2.1311631e-64
2.1305532e-64
2.1303498e-64
2.1302956e-64
2.1302839e-64
2.1302818e-64
2.1302817e-64
2.1302825e-64
2.1302862e-64
2.1302989e-64
2.1311513e-64
2.1305415e-64
2.130338e-64
2.1302839e-64
2.1302721e-64
2.13027e-64
2.1302699e-64
2.1302708e-64
2.1302745e-64
2.1302873e-64
2.1311492e-64
2.1305394e-64
2.1303359e-64
2.1302818e-64
2.13027e-64
2.130268e-64
2.1302678e-64
2.1302687e-64
2.1302724e-64
2.1302852e-64
2.131149e-64
2.1305392e-64
2.1303358e-64
2.1302817e-64
2.1302699e-64
2.1302678e-64
2.1302677e-64
2.1302686e-64
2.1302723e-64
2.1302851e-64
2.1311493e-64
2.1305398e-64
2.1303366e-64
2.1302825e-64
2.1302708e-64
2.1302687e-64
2.1302686e-64
2.1302695e-64
2.1302732e-64
2.130286e-64
2.1311509e-64
2.1305427e-64
2.1303401e-64
2.1302862e-64
2.1302745e-64
2.1302724e-64
2.1302723e-64
2.1302732e-64
2.1302769e-64
2.1302897e-64
2.1311567e-64
2.1305538e-64
2.1303525e-64
2.1302989e-64
2.1302873e-64
2.1302852e-64
2.1302851e-64
2.130286e-64
2.1302897e-64
2.1303024e-64
1.5966681e-63
1.5962252e-63
1.5960772e-63
1.5960378e-63
1.5960293e-63
1.5960277e-63
1.5960276e-63
1.5960278e-63
1.596029e-63
1.5960331e-63
1.5962252e-63
1.5957826e-63
1.5956347e-63
1.5955953e-63
1.5955868e-63
1.5955852e-63
1.5955851e-63
1.5955856e-63
1.5955877e-63
1.5955957e-63
1.5960772e-63
1.5956347e-63
1.5954869e-63
1.5954475e-63
1.5954389e-63
1.5954374e-63
1.5954373e-63
1.5954379e-63
1.5954405e-63
1.5954495e-63
1.5960378e-63
1.5955953e-63
1.5954475e-63
1.5954081e-63
1.5953996e-63
1.5953981e-63
1.595398e-63
1.5953986e-63
1.5954013e-63
1.5954105e-63
1.5960293e-63
1.5955868e-63
1.5954389e-63
1.5953996e-63
1.595391e-63
1.5953895e-63
1.5953894e-63
1.5953901e-63
1.5953928e-63
1.5954021e-63
1.5960277e-63
1.5955852e-63
1.5954374e-63
1.5953981e-63
1.5953895e-63
1.595388e-63
1.5953879e-63
1.5953886e-63
1.5953913e-63
1.5954006e-63
1.5960276e-63
1.5955851e-63
1.5954373e-63
1.595398e-63
1.5953894e-63
1.5953879e-63
1.5953878e-63
1.5953885e-63
1.5953912e-63
1.5954005e-63
1.5960278e-63
1.5955856e-63
1.5954379e-63
1.5953986e-63
1.5953901e-63
1.5953886e-63
1.5953885e-63
1.5953891e-63
1.5953919e-63
1.5954011e-63
1.596029e-63
1.5955877e-63
1.5954405e-63
1.5954013e-63
1.5953928e-63
1.5953913e-63
1.5953912e-63
1.5953919e-63
1.5953946e-63
1.5954039e-63
1.5960331e-63
1.5955957e-63
1.5954495e-63
1.5954105e-63
1.5954021e-63
1.5954006e-63
1.5954005e-63
1.5954011e-63
1.5954039e-63
1.5954131e-63
1.225012e-62
1.224683e-62
1.2245729e-62
1.2245436e-62
1.2245372e-62
1.2245361e-62
1.2245359e-62
1.2245361e-62
1.224537e-62
1.22454e-62
1.224683e-62
1.2243542e-62
1.2242441e-62
1.2242148e-62
1.2242085e-62
1.2242073e-62
1.2242072e-62
1.2242076e-62
1.2242092e-62
1.2242151e-62
1.2245729e-62
1.2242441e-62
1.2241341e-62
1.2241048e-62
1.2240985e-62
1.2240973e-62
1.2240973e-62
1.2240977e-62
1.2240996e-62
1.2241063e-62
1.2245436e-62
1.2242148e-62
1.2241048e-62
1.2240755e-62
1.2240692e-62
1.224068e-62
1.224068e-62
1.2240685e-62
1.2240705e-62
1.2240773e-62
1.2245372e-62
1.2242085e-62
1.2240985e-62
1.2240692e-62
1.2240628e-62
1.2240617e-62
1.2240616e-62
1.2240621e-62
1.2240642e-62
1.2240711e-62
1.2245361e-62
1.2242073e-62
1.2240973e-62
1.224068e-62
1.2240617e-62
1.2240605e-62
1.2240605e-62
1.224061e-62
1.224063e-62
1.2240699e-62
1.2245359e-62
1.2242072e-62
1.2240973e-62
1.224068e-62
1.2240616e-62
1.2240605e-62
1.2240604e-62
1.2240609e-62
1.224063e-62
1.2240699e-62
1.2245361e-62
1.2242076e-62
1.2240977e-62
1.2240685e-62
1.2240621e-62
1.224061e-62
1.2240609e-62
1.2240614e-62
1.2240635e-62
1.2240704e-62
1.224537e-62
1.2242092e-62
1.2240996e-62
1.2240705e-62
1.2240642e-62
1.224063e-62
1.224063e-62
1.2240635e-62
1.2240655e-62
1.2240724e-62
1.22454e-62
1.2242151e-62
1.2241063e-62
1.2240773e-62
1.2240711e-62
1.2240699e-62
1.2240699e-62
1.2240704e-62
1.2240724e-62
1.2240793e-62
9.6279502e-62
9.6254474e-62
9.6246089e-62
9.6243854e-62
9.6243369e-62
9.6243282e-62
9.6243272e-62
9.6243287e-62
9.6243352e-62
9.6243578e-62
9.6254474e-62
9.6229462e-62
9.6221082e-62
9.6218848e-62
9.6218363e-62
9.6218276e-62
9.6218269e-62
9.6218297e-62
9.621842e-62
9.6218873e-62
9.6246089e-62
9.6221082e-62
9.6212703e-62
9.621047e-62
9.6209985e-62
9.6209898e-62
9.6209893e-62
9.6209928e-62
9.6210077e-62
9.6210587e-62
9.6243854e-62
9.6218848e-62
9.621047e-62
9.6208236e-62
9.6207752e-62
9.6207665e-62
9.620766e-62
9.6207698e-62
9.6207854e-62
9.6208378e-62
9.6243369e-62
9.6218363e-62
9.6209985e-62
9.6207752e-62
9.6207267e-62
9.6207181e-62
9.6207176e-62
9.6207214e-62
9.6207372e-62
9.6207898e-62
9.6243282e-62
9.6218276e-62
9.6209898e-62
9.6207665e-62
9.6207181e-62
9.6207094e-62
9.6207089e-62
9.6207128e-62
9.6207286e-62
9.6207812e-62
9.6243272e-62
9.6218269e-62
9.6209893e-62
9.620766e-62
9.6207176e-62
9.6207089e-62
9.6207084e-62
9.6207123e-62
9.6207281e-62
9.6207808e-62
9.6243287e-62
9.6218297e-62
9.6209928e-62
9.6207698e-62
9.6207214e-62
9.6207128e-62
9.6207123e-62
9.6207162e-62
9.6207319e-62
9.6207846e-62
9.6243352e-62
9.621842e-62
9.6210077e-62
9.6207854e-62
9.6207372e-62
9.6207286e-62
9.6207281e-62
9.6207319e-62
9.6207477e-62
9.6208004e-62
9.6243578e-62
9.6218873e-62
9.6210587e-62
9.6208378e-62
9.6207898e-62
9.6207812e-62
9.6207808e-62
9.6207846e-62
9.6208004e-62
9.6208531e-62
7.7509041e-61
7.7489553e-61
7.7483015e-61
7.7481272e-61
7.7480893e-61
7.7480825e-61
7.7480817e-61
7.7480829e-61
7.748088e-61
7.7481054e-61
7.7489553e-61
7.7470078e-61
7.7463543e-61
7.7461801e-61
7.7461422e-61
7.7461355e-61
7.7461349e-61
7.7461371e-61
7.7461468e-61
7.7461821e-61
7.7483015e-61
7.7463543e-61
7.745701e-61
7.7455268e-61
7.745489e-61
7.7454822e-61
7.7454818e-61
7.7454846e-61
7.7454963e-61
7.7455362e-61
7.7481272e-61
7.7461801e-61
7.7455268e-61
7.7453525e-61
7.7453147e-61
7.745308e-61
7.7453076e-61
7.7453106e-61
7.7453229e-61
7.7453638e-61
7.7480893e-61
7.7461422e-61
7.745489e-61
7.7453147e-61
7.7452769e-61
7.7452702e-61
7.7452698e-61
7.7452728e-61
7.7452852e-61
7.7453264e-61
7.7480825e-61
7.7461355e-61
7.7454822e-61
7.745308e-61
7.7452702e-61
7.7452634e-61
7.745263e-61
7.7452661e-61
7.7452785e-61
7.7453197e-61
7.7480817e-61
7.7461349e-61
7.7454818e-61
7.7453076e-61
7.7452698e-61
7.745263e-61
7.7452627e-61
7.7452657e-61
7.7452782e-61
7.7453194e-61
7.7480829e-61
7.7461371e-61
7.7454846e-61
7.7453106e-61
7.7452728e-61
7.7452661e-61
7.7452657e-61
7.7452688e-61
7.7452812e-61
7.7453224e-61
7.748088e-61
7.7461468e-61
7.7454963e-61
7.7453229e-61
7.7452852e-61
7.7452785e-61
7.7452782e-61
7.7452812e-61
7.7452937e-61
7.7453349e-61
7.7481054e-61
7.7461821e-61
7.7455362e-61
7.7453638e-61
7.7453264e-61
7.7453197e-61
7.7453194e-61
7.7453224e-61
7.7453349e-61
7.7453761e-61
6.3906817e-60
6.3891286e-60
6.3886068e-60
6.3884676e-60
6.3884373e-60
6.3884319e-60
6.3884313e-60
6.3884322e-60
6.3884363e-60
6.38845e-60
6.3891286e-60
6.3875764e-60
6.3870549e-60
6.3869157e-60
6.3868855e-60
6.3868801e-60
6.3868797e-60
6.3868815e-60
6.3868893e-60
6.3869175e-60
6.3886068e-60
6.3870549e-60
6.3865335e-60
6.3863944e-60
6.3863642e-60
6.3863588e-60
6.3863584e-60
6.3863607e-60
6.3863701e-60
6.3864021e-60
6.3884676e-60
6.3869157e-60
6.3863944e-60
6.3862552e-60
6.386225e-60
6.3862196e-60
6.3862193e-60
6.3862218e-60
6.3862317e-60
6.3862645e-60
6.3884373e-60
6.3868855e-60
6.3863642e-60
6.386225e-60
6.3861948e-60
6.3861895e-60
6.3861892e-60
6.3861916e-60
6.3862017e-60
6.3862346e-60
6.3884319e-60
6.3868801e-60
6.3863588e-60
6.3862196e-60
6.3861895e-60
6.3861841e-60
6.3861838e-60
6.3861863e-60
6.3861963e-60
6.3862293e-60
6.3884313e-60
6.3868797e-60
6.3863584e-60
6.3862193e-60
6.3861892e-60
6.3861838e-60
6.3861835e-60
6.386186e-60
6.386196e-60
6.386229e-60
6.3884322e-60
6.3868815e-60
6.3863607e-60
6.3862218e-60
6.3861916e-60
6.3861863e-60
6.386186e-60
6.3861884e-60
6.3861985e-60
6.3862315e-60
6.3884363e-60
6.3868893e-60
6.3863701e-60
6.3862317e-60
6.3862017e-60
6.3861963e-60
6.386196e-60
6.3861985e-60
6.3862085e-60
6.3862416e-60
6.38845e-60
6.3869175e-60
6.3864021e-60
6.3862645e-60
6.3862346e-60
6.3862293e-60
6.386229e-60
6.3862315e-60
6.3862416e-60
6.3862746e-60
5.395893e-59
5.3946262e-59
5.3942e-59
5.3940863e-59
5.3940616e-59
5.3940571e-59
5.3940566e-59
5.3940574e-59
5.3940608e-59
5.3940718e-59
5.3946262e-59
5.3933602e-59
5.3929342e-59
5.3928205e-59
5.3927958e-59
5.3927914e-59
5.392791e-59
5.3927925e-59
5.392799e-59
5.3928221e-59
5.3942e-59
5.3929342e-59
5.3925084e-59
5.3923947e-59
5.39237e-59
5.3923656e-59
5.3923653e-59
5.3923672e-59
5.392375e-59
5.3924013e-59
5.3940863e-59
5.3928205e-59
5.3923947e-59
5.392281e-59
5.3922563e-59
5.3922519e-59
5.3922517e-59
5.3922537e-59
5.3922619e-59
5.3922888e-59
5.3940616e-59
5.3927958e-59
5.39237e-59
5.3922563e-59
5.3922317e-59
5.3922272e-59
5.392227e-59
5.3922291e-59
5.3922374e-59
5.3922644e-59
5.3940571e-59
5.3927914e-59
5.3923656e-59
5.3922519e-59
5.3922272e-59
5.3922229e-59
5.3922226e-59
5.3922247e-59
5.392233e-59
5.3922601e-59
5.3940566e-59
5.392791e-59
5.3923653e-59
5.3922517e-59
5.392227e-59
5.3922226e-59
5.3922224e-59
5.3922244e-59
5.3922328e-59
5.3922598e-59
5.3940574e-59
5.3927925e-59
5.3923672e-59
5.3922537e-59
5.3922291e-59
5.3922247e-59
5.3922244e-59
5.3922265e-59
5.3922348e-59
5.3922619e-59
5.3940608e-59
5.392799e-59
5.392375e-59
5.3922619e-59
5.3922374e-59
5.392233e-59
5.3922328e-59
5.3922348e-59
5.3922431e-59
5.3922702e-59
5.3940718e-59
5.3928221e-59
5.3924013e-59
5.3922888e-59
5.3922644e-59
5.3922601e-59
5.3922598e-59
5.3922619e-59
5.3922702e-59
5.3922973e-59
4.6648681e-58
4.6638109e-58
4.6634547e-58
4.6633596e-58
4.663339e-58
4.6633353e-58
4.6633348e-58
4.6633355e-58
4.6633383e-58
4.6633474e-58
4.6638109e-58
4.6627542e-58
4.6623983e-58
4.6623032e-58
4.6622826e-58
4.6622789e-58
4.6622786e-58
4.6622798e-58
4.6622853e-58
4.6623047e-58
4.6634547e-58
4.6623983e-58
4.6620424e-58
4.6619474e-58
4.6619267e-58
4.661923e-58
4.6619228e-58
4.6619244e-58
4.661931e-58
4.6619531e-58
4.6633596e-58
4.6623032e-58
4.6619474e-58
4.6618523e-58
4.6618317e-58
4.661828e-58
4.6618278e-58
4.6618295e-58
4.6618365e-58
4.6618591e-58
4.663339e-58
4.6622826e-58
4.6619267e-58
4.6618317e-58
4.661811e-58
4.6618074e-58
4.6618072e-58
4.6618089e-58
4.6618159e-58
4.6618387e-58
4.6633353e-58
4.6622789e-58
4.661923e-58
4.661828e-58
4.6618074e-58
4.6618037e-58
4.6618035e-58
4.6618052e-58
4.6618123e-58
4.661835e-58
4.6633348e-58
4.6622786e-58
4.6619228e-58
4.6618278e-58
4.6618072e-58
4.6618035e-58
4.6618033e-58
4.661805e-58
4.6618121e-58
4.6618349e-58
4.6633355e-58
4.6622798e-58
4.6619244e-58
4.6618295e-58
4.6618089e-58
4.6618052e-58
4.661805e-58
4.6618068e-58
4.6618138e-58
4.6618366e-58
4.6633383e-58
4.6622853e-58
4.661931e-58
4.6618365e-58
4.6618159e-58
4.6618123e-58
4.6618121e-58
4.6618138e-58
4.6618209e-58
4.6618436e-58
4.6633474e-58
4.6623047e-58
4.6619531e-58
4.6618591e-58
4.6618387e-58
4.661835e-58
4.6618349e-58
4.6618366e-58
4.6618436e-58
4.6618664e-58
4.1286421e-57
4.1277394e-57
4.1274349e-57
4.1273536e-57
4.1273359e-57
4.1273327e-57
4.1273324e-57
4.127333e-57
4.1273354e-57
4.1273431e-57
4.1277394e-57
4.1268372e-57
4.1265329e-57
4.1264515e-57
4.1264339e-57
4.1264307e-57
4.1264305e-57
4.1264316e-57
4.1264363e-57
4.1264529e-57
4.1274349e-57
4.1265329e-57
4.1262286e-57
4.1261473e-57
4.1261296e-57
4.1261265e-57
4.1261263e-57
4.1261277e-57
4.1261334e-57
4.1261524e-57
4.1273536e-57
4.1264515e-57
4.1261473e-57
4.126066e-57
4.1260484e-57
4.1260452e-57
4.126045e-57
4.1260465e-57
4.1260526e-57
4.126072e-57
4.1273359e-57
4.1264339e-57
4.1261296e-57
4.1260484e-57
4.1260307e-57
4.1260276e-57
4.1260274e-57
4.1260289e-57
4.126035e-57
4.1260546e-57
4.1273327e-57
4.1264307e-57
4.1261265e-57
4.1260452e-57
4.1260276e-57
4.1260244e-57
4.1260243e-57
4.1260258e-57
4.1260319e-57
4.1260515e-57
4.1273324e-57
4.1264305e-57
4.1261263e-57
4.126045e-57
4.1260274e-57
4.1260243e-57
4.1260241e-57
4.1260256e-57
4.1260317e-57
4.1260513e-57
4.127333e-57
4.1264316e-57
4.1261277e-57
4.1260465e-57
4.1260289e-57
4.1260258e-57
4.1260256e-57
4.1260271e-57
4.1260332e-57
4.1260528e-57
4.1273354e-57
4.1264363e-57
4.1261334e-57
4.1260526e-57
4.126035e-57
4.1260319e-57
4.1260317e-57
4.1260332e-57
4.1260393e-57
4.1260589e-57
4.1273431e-57
4.1264529e-57
4.1261524e-57
4.126072e-57
4.1260546e-57
4.1260515e-57
4.1260513e-57
4.1260528e-57
4.1260589e-57
4.1260785e-57
3.7401752e-56
3.7393868e-56
3.7391206e-56
3.7390494e-56
3.739034e-56
3.7390312e-56
3.7390309e-56
3.7390314e-56
3.7390335e-56
3.7390402e-56
3.7393868e-56
3.7385988e-56
3.7383327e-56
3.7382616e-56
3.7382462e-56
3.7382434e-56
3.7382432e-56
3.7382442e-56
3.7382483e-56
3.738263e-56
3.7391206e-56
3.7383327e-56
3.7380667e-56
3.7379956e-56
3.7379801e-56
3.7379774e-56
3.7379772e-56
3.7379785e-56
3.7379835e-56
3.7380002e-56
3.7390494e-56
3.7382616e-56
3.7379956e-56
3.7379245e-56
3.737909e-56
3.7379063e-56
3.7379061e-56
3.7379074e-56
3.7379128e-56
3.7379299e-56
3.739034e-56
3.7382462e-56
3.7379801e-56
3.737909e-56
3.7378936e-56
3.7378908e-56
3.7378907e-56
3.737892e-56
3.7378974e-56
3.7379147e-56
3.7390312e-56
3.7382434e-56
3.7379774e-56
3.7379063e-56
3.7378908e-56
3.7378881e-56
3.7378879e-56
3.7378893e-56
3.7378947e-56
3.7379119e-56
3.7390309e-56
3.7382432e-56
3.7379772e-56
3.7379061e-56
3.7378907e-56
3.7378879e-56
3.7378878e-56
3.7378891e-56
3.7378946e-56
3.7379118e-56
3.7390314e-56
3.7382442e-56
3.7379785e-56
3.7379074e-56
3.737892e-56
3.7378893e-56
3.7378891e-56
3.7378905e-56
3.7378959e-56
3.7379132e-56
3.7390335e-56
3.7382483e-56
3.7379835e-56
3.7379128e-56
3.7378974e-56
3.7378947e-56
3.7378946e-56
3.7378959e-56
3.7379013e-56
3.7379186e-56
3.7390402e-56
3.738263e-56
3.7380002e-56
3.7379299e-56
3.7379147e-56
3.7379119e-56
3.7379118e-56
3.7379132e-56
3.7379186e-56
3.7379358e-56
3.4674592e-55
3.466755e-55
3.466517e-55
3.4664533e-55
3.4664395e-55
3.466437e-55
3.4664367e-55
3.4664372e-55
3.4664391e-55
3.466445e-55
3.466755e-55
3.4660513e-55
3.4658133e-55
3.4657497e-55
3.4657359e-55
3.4657334e-55
3.4657332e-55
3.4657341e-55
3.4657379e-55
3.4657511e-55
3.466517e-55
3.4658133e-55
3.4655754e-55
3.4655118e-55
3.465498e-55
3.4654955e-55
3.4654954e-55
3.4654965e-55
3.4655011e-55
3.4655162e-55
3.4664533e-55
3.4657497e-55
3.4655118e-55
3.4654482e-55
3.4654344e-55
3.4654319e-55
3.4654318e-55
3.465433e-55
3.4654378e-55
3.4654533e-55
3.4664395e-55
3.4657359e-55
3.465498e-55
3.4654344e-55
3.4654205e-55
3.4654181e-55
3.465418e-55
3.4654192e-55
3.4654241e-55
3.4654396e-55
3.466437e-55
3.4657334e-55
3.4654955e-55
3.4654319e-55
3.4654181e-55
3.4654156e-55
3.4654155e-55
3.4654167e-55
3.4654216e-55
3.4654372e-55
3.4664367e-55
3.4657332e-55
3.4654954e-55
3.4654318e-55
3.465418e-55
3.4654155e-55
3.4654154e-55
3.4654166e-55
3.4654215e-55
3.4654371e-55
3.4664372e-55
3.4657341e-55
3.4654965e-55
3.465433e-55
3.4654192e-55
3.4654167e-55
3.4654166e-55
3.4654179e-55
3.4654228e-55
3.4654383e-55
3.4664391e-55
3.4657379e-55
3.4655011e-55
3.4654378e-55
3.4654241e-55
3.4654216e-55
3.4654215e-55
3.4654228e-55
3.4654277e-55
3.4654432e-55
3.466445e-55
3.4657511e-55
3.4655162e-55
3.4654533e-55
3.4654396e-55
3.4654372e-55
3.4654371e-55
3.4654383e-55
3.4654432e-55
3.4654588e-55
3.289091e-54
3.288448e-54
3.2882303e-54
3.2881721e-54
3.2881595e-54
3.2881572e-54
3.2881569e-54
3.2881574e-54
3.2881592e-54
3.2881645e-54
3.288448e-54
3.2878053e-54
3.2875878e-54
3.2875296e-54
3.2875169e-54
3.2875147e-54
3.2875145e-54
3.2875153e-54
3.2875189e-54
3.287531e-54
3.2882303e-54
3.2875878e-54
3.2873703e-54
3.2873121e-54
3.2872995e-54
3.2872972e-54
3.2872971e-54
3.2872982e-54
3.2873024e-54
3.2873163e-54
3.2881721e-54
3.2875296e-54
3.2873121e-54
3.2872539e-54
3.2872413e-54
3.287239e-54
3.2872389e-54
3.2872401e-54
3.2872446e-54
3.2872588e-54
3.2881595e-54
3.2875169e-54
3.2872995e-54
3.2872413e-54
3.2872286e-54
3.2872264e-54
3.2872263e-54
3.2872274e-54
3.287232e-54
3.2872463e-54
3.2881572e-54
3.2875147e-54
3.2872972e-54
3.287239e-54
3.2872264e-54
3.2872241e-54
3.287224e-54
3.2872252e-54
3.2872297e-54
3.2872441e-54
3.2881569e-54
3.2875145e-54
3.2872971e-54
3.2872389e-54
3.2872263e-54
3.287224e-54
3.2872239e-54
3.2872251e-54
3.2872296e-54
3.287244e-54
3.2881574e-54
3.2875153e-54
3.2872982e-54
3.2872401e-54
3.2872274e-54
3.2872252e-54
3.2872251e-54
3.2872262e-54
3.2872308e-54
3.2872452e-54
3.2881592e-54
3.2875189e-54
3.2873024e-54
3.2872446e-54
3.287232e-54
3.2872297e-54
3.2872296e-54
3.2872308e-54
3.2872354e-54
3.2872497e-54
3.2881645e-54
3.287531e-54
3.2873163e-54
3.2872588e-54
3.2872463e-54
3.2872441e-54
3.287244e-54
3.2872452e-54