/*--------------------------------*- C++ -*----------------------------------*\
| =========                 |                                                 |
| \\      /  F ield         | OpenFOAM: The Open Source CFD Toolbox           |
|  \\    /   O peration     | Version:  dev                                   |
|   \\  /    A nd           | Web:      www.OpenFOAM.org                      |
|    \\/     M anipulation  |                                                 |
\*---------------------------------------------------------------------------*/
FoamFile
{
    version     2.0;
    format      ascii;
    class       volScalarField;
    location    "20";
    object      A;
}
// * * * * * * * * * * * * * * * * * * * * * * * * * * * * * * * * * * * * * //

dimensions      [0 0 0 0 1 0 0];

internalField   nonuniform List<scalar> 
10000
(
1.2759311e-53
1.2757731e-53
1.2757021e-53
1.2756729e-53
1.2756624e-53
1.2756591e-53
1.2756583e-53
1.2756587e-53
1.2756605e-53
1.2756662e-53
1.2757731e-53
1.2756152e-53
1.2755442e-53
1.2755151e-53
1.2755045e-53
1.2755012e-53
1.2755006e-53
1.2755011e-53
1.2755034e-53
1.2755108e-53
1.2757021e-53
1.2755442e-53
1.2754733e-53
1.2754441e-53
1.2754336e-53
1.2754303e-53
1.2754297e-53
1.2754304e-53
1.275433e-53
1.2754409e-53
1.2756729e-53
1.2755151e-53
1.2754441e-53
1.2754149e-53
1.2754044e-53
1.2754012e-53
1.2754005e-53
1.2754013e-53
1.2754041e-53
1.2754122e-53
1.2756624e-53
1.2755045e-53
1.2754336e-53
1.2754044e-53
1.2753939e-53
1.2753906e-53
1.27539e-53
1.2753908e-53
1.2753937e-53
1.2754018e-53
1.2756591e-53
1.2755012e-53
1.2754303e-53
1.2754012e-53
1.2753906e-53
1.2753874e-53
1.2753868e-53
1.2753876e-53
1.2753904e-53
1.2753986e-53
1.2756583e-53
1.2755006e-53
1.2754297e-53
1.2754005e-53
1.27539e-53
1.2753868e-53
1.2753862e-53
1.275387e-53
1.2753899e-53
1.275398e-53
1.2756587e-53
1.2755011e-53
1.2754304e-53
1.2754013e-53
1.2753908e-53
1.2753876e-53
1.275387e-53
1.2753878e-53
1.2753907e-53
1.2753989e-53
1.2756605e-53
1.2755034e-53
1.275433e-53
1.2754041e-53
1.2753937e-53
1.2753904e-53
1.2753899e-53
1.2753907e-53
1.2753935e-53
1.2754017e-53
1.2756662e-53
1.2755108e-53
1.2754409e-53
1.2754122e-53
1.2754018e-53
1.2753986e-53
1.275398e-53
1.2753989e-53
1.2754017e-53
1.2754099e-53
6.2672577e-53
6.2665041e-53
6.2661613e-53
6.2660203e-53
6.2659692e-53
6.2659533e-53
6.2659497e-53
6.2659516e-53
6.2659602e-53
6.2659885e-53
6.2665041e-53
6.2657508e-53
6.2654081e-53
6.2652671e-53
6.2652161e-53
6.2652002e-53
6.2651969e-53
6.2651997e-53
6.2652109e-53
6.2652477e-53
6.2661613e-53
6.2654081e-53
6.2650655e-53
6.2649245e-53
6.2648736e-53
6.2648578e-53
6.2648547e-53
6.2648581e-53
6.2648709e-53
6.2649103e-53
6.2660203e-53
6.2652671e-53
6.2649245e-53
6.2647836e-53
6.2647326e-53
6.2647169e-53
6.264714e-53
6.2647177e-53
6.2647311e-53
6.2647714e-53
6.2659692e-53
6.2652161e-53
6.2648736e-53
6.2647326e-53
6.2646817e-53
6.264666e-53
6.2646631e-53
6.264667e-53
6.2646807e-53
6.2647212e-53
6.2659533e-53
6.2652002e-53
6.2648578e-53
6.2647169e-53
6.264666e-53
6.2646503e-53
6.2646474e-53
6.2646513e-53
6.2646651e-53
6.2647057e-53
6.2659497e-53
6.2651969e-53
6.2648547e-53
6.264714e-53
6.2646631e-53
6.2646474e-53
6.2646446e-53
6.2646485e-53
6.2646623e-53
6.2647029e-53
6.2659516e-53
6.2651997e-53
6.2648581e-53
6.2647177e-53
6.264667e-53
6.2646513e-53
6.2646485e-53
6.2646524e-53
6.2646662e-53
6.2647068e-53
6.2659602e-53
6.2652109e-53
6.2648709e-53
6.2647311e-53
6.2646807e-53
6.2646651e-53
6.2646623e-53
6.2646662e-53
6.26468e-53
6.2647206e-53
6.2659885e-53
6.2652477e-53
6.2649103e-53
6.2647714e-53
6.2647212e-53
6.2647057e-53
6.2647029e-53
6.2647068e-53
6.2647206e-53
6.2647612e-53
2.3677441e-52
2.3674674e-52
2.367341e-52
2.3672889e-52
2.36727e-52
2.3672641e-52
2.3672628e-52
2.3672635e-52
2.3672666e-52
2.367277e-52
2.3674674e-52
2.3671908e-52
2.3670644e-52
2.3670123e-52
2.3669935e-52
2.3669876e-52
2.3669864e-52
2.3669874e-52
2.3669916e-52
2.3670051e-52
2.367341e-52
2.3670644e-52
2.3669381e-52
2.366886e-52
2.3668672e-52
2.3668613e-52
2.3668602e-52
2.3668615e-52
2.3668662e-52
2.3668807e-52
2.3672889e-52
2.3670123e-52
2.366886e-52
2.3668339e-52
2.3668151e-52
2.3668093e-52
2.3668082e-52
2.3668096e-52
2.3668146e-52
2.3668294e-52
2.36727e-52
2.3669935e-52
2.3668672e-52
2.3668151e-52
2.3667963e-52
2.3667905e-52
2.3667894e-52
2.3667909e-52
2.3667959e-52
2.3668109e-52
2.3672641e-52
2.3669876e-52
2.3668613e-52
2.3668093e-52
2.3667905e-52
2.3667847e-52
2.3667836e-52
2.3667851e-52
2.3667902e-52
2.3668051e-52
2.3672628e-52
2.3669864e-52
2.3668602e-52
2.3668082e-52
2.3667894e-52
2.3667836e-52
2.3667826e-52
2.366784e-52
2.3667891e-52
2.3668041e-52
2.3672635e-52
2.3669874e-52
2.3668615e-52
2.3668096e-52
2.3667909e-52
2.3667851e-52
2.366784e-52
2.3667855e-52
2.3667906e-52
2.3668056e-52
2.3672666e-52
2.3669916e-52
2.3668662e-52
2.3668146e-52
2.3667959e-52
2.3667902e-52
2.3667891e-52
2.3667906e-52
2.3667957e-52
2.3668107e-52
2.367277e-52
2.3670051e-52
2.3668807e-52
2.3668294e-52
2.3668109e-52
2.3668051e-52
2.3668041e-52
2.3668056e-52
2.3668107e-52
2.3668256e-52
8.9642762e-52
8.9632588e-52
8.9627924e-52
8.9625999e-52
8.9625302e-52
8.9625084e-52
8.9625036e-52
8.9625061e-52
8.9625176e-52
8.9625549e-52
8.9632588e-52
8.9622418e-52
8.9617756e-52
8.9615831e-52
8.9615135e-52
8.9614918e-52
8.9614873e-52
8.961491e-52
8.9615062e-52
8.9615554e-52
8.9627924e-52
8.9617756e-52
8.9613093e-52
8.961117e-52
8.9610473e-52
8.9610258e-52
8.9610216e-52
8.9610263e-52
8.9610437e-52
8.9610965e-52
8.9625999e-52
8.9615831e-52
8.961117e-52
8.9609246e-52
8.960855e-52
8.9608335e-52
8.9608295e-52
8.9608347e-52
8.960853e-52
8.960907e-52
8.9625302e-52
8.9615135e-52
8.9610473e-52
8.960855e-52
8.9607854e-52
8.960764e-52
8.9607601e-52
8.9607654e-52
8.960784e-52
8.9608384e-52
8.9625084e-52
8.9614918e-52
8.9610258e-52
8.9608335e-52
8.960764e-52
8.9607425e-52
8.9607387e-52
8.960744e-52
8.9607628e-52
8.9608173e-52
8.9625036e-52
8.9614873e-52
8.9610216e-52
8.9608295e-52
8.9607601e-52
8.9607387e-52
8.9607348e-52
8.9607402e-52
8.960759e-52
8.9608135e-52
8.9625061e-52
8.961491e-52
8.9610263e-52
8.9608347e-52
8.9607654e-52
8.960744e-52
8.9607402e-52
8.9607457e-52
8.9607644e-52
8.9608189e-52
8.9625176e-52
8.9615062e-52
8.9610437e-52
8.960853e-52
8.960784e-52
8.9607628e-52
8.960759e-52
8.9607644e-52
8.9607832e-52
8.9608377e-52
8.9625549e-52
8.9615554e-52
8.9610965e-52
8.960907e-52
8.9608384e-52
8.9608173e-52
8.9608135e-52
8.9608189e-52
8.9608377e-52
8.9608922e-52
3.4583548e-51
3.4579738e-51
3.4577985e-51
3.4577261e-51
3.4576998e-51
3.4576916e-51
3.4576898e-51
3.4576908e-51
3.457695e-51
3.4577087e-51
3.4579738e-51
3.4575929e-51
3.4574177e-51
3.4573453e-51
3.4573191e-51
3.4573109e-51
3.4573092e-51
3.4573106e-51
3.4573163e-51
3.4573345e-51
3.4577985e-51
3.4574177e-51
3.4572425e-51
3.4571701e-51
3.4571439e-51
3.4571358e-51
3.4571342e-51
3.457136e-51
3.4571425e-51
3.4571621e-51
3.4577261e-51
3.4573453e-51
3.4571701e-51
3.4570977e-51
3.4570715e-51
3.4570634e-51
3.457062e-51
3.4570639e-51
3.4570708e-51
3.4570908e-51
3.4576998e-51
3.4573191e-51
3.4571439e-51
3.4570715e-51
3.4570454e-51
3.4570373e-51
3.4570358e-51
3.4570378e-51
3.4570448e-51
3.457065e-51
3.4576916e-51
3.4573109e-51
3.4571358e-51
3.4570634e-51
3.4570373e-51
3.4570292e-51
3.4570277e-51
3.4570298e-51
3.4570368e-51
3.457057e-51
3.4576898e-51
3.4573092e-51
3.4571342e-51
3.457062e-51
3.4570358e-51
3.4570277e-51
3.4570263e-51
3.4570284e-51
3.4570354e-51
3.4570556e-51
3.4576908e-51
3.4573106e-51
3.457136e-51
3.4570639e-51
3.4570378e-51
3.4570298e-51
3.4570284e-51
3.4570304e-51
3.4570375e-51
3.4570577e-51
3.457695e-51
3.4573163e-51
3.4571425e-51
3.4570708e-51
3.4570448e-51
3.4570368e-51
3.4570354e-51
3.4570375e-51
3.4570445e-51
3.4570647e-51
3.4577087e-51
3.4573345e-51
3.4571621e-51
3.4570908e-51
3.457065e-51
3.457057e-51
3.4570556e-51
3.4570577e-51
3.4570647e-51
3.4570849e-51
1.3612356e-50
1.3610901e-50
1.3610229e-50
1.3609952e-50
1.3609851e-50
1.3609819e-50
1.3609812e-50
1.3609816e-50
1.3609832e-50
1.3609883e-50
1.3610901e-50
1.3609446e-50
1.3608775e-50
1.3608497e-50
1.3608397e-50
1.3608365e-50
1.3608359e-50
1.3608364e-50
1.3608386e-50
1.3608454e-50
1.3610229e-50
1.3608775e-50
1.3608104e-50
1.3607826e-50
1.3607725e-50
1.3607694e-50
1.3607688e-50
1.3607695e-50
1.360772e-50
1.3607794e-50
1.3609952e-50
1.3608497e-50
1.3607826e-50
1.3607548e-50
1.3607448e-50
1.3607417e-50
1.3607411e-50
1.3607419e-50
1.3607445e-50
1.360752e-50
1.3609851e-50
1.3608397e-50
1.3607725e-50
1.3607448e-50
1.3607347e-50
1.3607316e-50
1.3607311e-50
1.3607318e-50
1.3607345e-50
1.3607421e-50
1.3609819e-50
1.3608365e-50
1.3607694e-50
1.3607417e-50
1.3607316e-50
1.3607285e-50
1.360728e-50
1.3607288e-50
1.3607315e-50
1.3607391e-50
1.3609812e-50
1.3608359e-50
1.3607688e-50
1.3607411e-50
1.3607311e-50
1.360728e-50
1.3607274e-50
1.3607282e-50
1.3607309e-50
1.3607385e-50
1.3609816e-50
1.3608364e-50
1.3607695e-50
1.3607419e-50
1.3607318e-50
1.3607288e-50
1.3607282e-50
1.360729e-50
1.3607317e-50
1.3607393e-50
1.3609832e-50
1.3608386e-50
1.360772e-50
1.3607445e-50
1.3607345e-50
1.3607315e-50
1.3607309e-50
1.3607317e-50
1.3607344e-50
1.360742e-50
1.3609883e-50
1.3608454e-50
1.3607794e-50
1.360752e-50
1.3607421e-50
1.3607391e-50
1.3607385e-50
1.3607393e-50
1.360742e-50
1.3607497e-50
5.46719e-50
5.4666231e-50
5.4663607e-50
5.466252e-50
5.4662125e-50
5.4662002e-50
5.4661975e-50
5.4661989e-50
5.4662052e-50
5.4662245e-50
5.4666231e-50
5.4660565e-50
5.4657941e-50
5.4656854e-50
5.465646e-50
5.4656337e-50
5.4656312e-50
5.4656334e-50
5.4656419e-50
5.4656681e-50
5.4663607e-50
5.4657941e-50
5.4655318e-50
5.4654232e-50
5.4653837e-50
5.4653715e-50
5.4653692e-50
5.4653719e-50
5.4653817e-50
5.4654101e-50
5.466252e-50
5.4656854e-50
5.4654232e-50
5.4653145e-50
5.4652751e-50
5.4652629e-50
5.4652607e-50
5.4652637e-50
5.465274e-50
5.4653031e-50
5.4662125e-50
5.465646e-50
5.4653837e-50
5.4652751e-50
5.4652357e-50
5.4652236e-50
5.4652214e-50
5.4652245e-50
5.465235e-50
5.4652643e-50
5.4662002e-50
5.4656337e-50
5.4653715e-50
5.4652629e-50
5.4652236e-50
5.4652114e-50
5.4652093e-50
5.4652124e-50
5.465223e-50
5.4652524e-50
5.4661975e-50
5.4656312e-50
5.4653692e-50
5.4652607e-50
5.4652214e-50
5.4652093e-50
5.4652071e-50
5.4652103e-50
5.4652209e-50
5.4652503e-50
5.4661989e-50
5.4656334e-50
5.4653719e-50
5.4652637e-50
5.4652245e-50
5.4652124e-50
5.4652103e-50
5.4652134e-50
5.465224e-50
5.4652534e-50
5.4662052e-50
5.4656419e-50
5.4653817e-50
5.465274e-50
5.465235e-50
5.465223e-50
5.4652209e-50
5.465224e-50
5.4652346e-50
5.465264e-50
5.4662245e-50
5.4656681e-50
5.4654101e-50
5.4653031e-50
5.4652643e-50
5.4652524e-50
5.4652503e-50
5.4652534e-50
5.465264e-50
5.4652935e-50
2.2406981e-49
2.2404728e-49
2.2403682e-49
2.2403248e-49
2.2403091e-49
2.2403041e-49
2.240303e-49
2.2403036e-49
2.2403061e-49
2.2403136e-49
2.2404728e-49
2.2402476e-49
2.2401431e-49
2.2400997e-49
2.240084e-49
2.2400791e-49
2.240078e-49
2.2400789e-49
2.2400823e-49
2.2400926e-49
2.2403682e-49
2.2401431e-49
2.2400385e-49
2.2399952e-49
2.2399794e-49
2.2399745e-49
2.2399736e-49
2.2399747e-49
2.2399786e-49
2.2399898e-49
2.2403248e-49
2.2400997e-49
2.2399952e-49
2.2399518e-49
2.2399361e-49
2.2399312e-49
2.2399303e-49
2.2399315e-49
2.2399356e-49
2.2399471e-49
2.2403091e-49
2.240084e-49
2.2399794e-49
2.2399361e-49
2.2399203e-49
2.2399155e-49
2.2399146e-49
2.2399159e-49
2.2399201e-49
2.2399316e-49
2.2403041e-49
2.2400791e-49
2.2399745e-49
2.2399312e-49
2.2399155e-49
2.2399106e-49
2.2399098e-49
2.239911e-49
2.2399153e-49
2.2399268e-49
2.240303e-49
2.240078e-49
2.2399736e-49
2.2399303e-49
2.2399146e-49
2.2399098e-49
2.2399089e-49
2.2399102e-49
2.2399144e-49
2.239926e-49
2.2403036e-49
2.2400789e-49
2.2399747e-49
2.2399315e-49
2.2399159e-49
2.239911e-49
2.2399102e-49
2.2399115e-49
2.2399157e-49
2.2399273e-49
2.2403061e-49
2.2400823e-49
2.2399786e-49
2.2399356e-49
2.2399201e-49
2.2399153e-49
2.2399144e-49
2.2399157e-49
2.2399199e-49
2.2399315e-49
2.2403136e-49
2.2400926e-49
2.2399898e-49
2.2399471e-49
2.2399316e-49
2.2399268e-49
2.239926e-49
2.2399273e-49
2.2399315e-49
2.2399431e-49
9.3714184e-49
9.3705055e-49
9.3700803e-49
9.3699037e-49
9.3698395e-49
9.3698194e-49
9.369815e-49
9.3698174e-49
9.3698275e-49
9.3698572e-49
9.3705055e-49
9.3695929e-49
9.3691679e-49
9.3689913e-49
9.3689272e-49
9.3689072e-49
9.3689031e-49
9.3689067e-49
9.3689204e-49
9.3689617e-49
9.3700803e-49
9.3691679e-49
9.3687429e-49
9.3685663e-49
9.3685022e-49
9.3684824e-49
9.3684786e-49
9.3684831e-49
9.368499e-49
9.3685439e-49
9.3699037e-49
9.3689913e-49
9.3685663e-49
9.3683898e-49
9.3683257e-49
9.3683059e-49
9.3683024e-49
9.3683073e-49
9.3683241e-49
9.3683702e-49
9.3698395e-49
9.3689272e-49
9.3685022e-49
9.3683257e-49
9.3682617e-49
9.3682419e-49
9.3682384e-49
9.3682436e-49
9.3682607e-49
9.3683071e-49
9.3698194e-49
9.3689072e-49
9.3684824e-49
9.3683059e-49
9.3682419e-49
9.3682222e-49
9.3682187e-49
9.3682239e-49
9.3682411e-49
9.3682877e-49
9.369815e-49
9.3689031e-49
9.3684786e-49
9.3683024e-49
9.3682384e-49
9.3682187e-49
9.3682153e-49
9.3682205e-49
9.3682377e-49
9.3682843e-49
9.3698174e-49
9.3689067e-49
9.3684831e-49
9.3683073e-49
9.3682436e-49
9.3682239e-49
9.3682205e-49
9.3682257e-49
9.368243e-49
9.3682895e-49
9.3698275e-49
9.3689204e-49
9.368499e-49
9.3683241e-49
9.3682607e-49
9.3682411e-49
9.3682377e-49
9.368243e-49
9.3682602e-49
9.3683068e-49
9.3698572e-49
9.3689617e-49
9.3685439e-49
9.3683702e-49
9.3683071e-49
9.3682877e-49
9.3682843e-49
9.3682895e-49
9.3683068e-49
9.3683534e-49
3.9998135e-48
3.9994361e-48
3.9992598e-48
3.9991864e-48
3.9991598e-48
3.9991515e-48
3.9991496e-48
3.9991506e-48
3.9991548e-48
3.9991668e-48
3.9994361e-48
3.9990588e-48
3.9988826e-48
3.9988093e-48
3.9987826e-48
3.9987743e-48
3.9987727e-48
3.9987741e-48
3.9987798e-48
3.9987967e-48
3.9992598e-48
3.9988826e-48
3.9987064e-48
3.9986331e-48
3.9986064e-48
3.9985982e-48
3.9985966e-48
3.9985985e-48
3.9986051e-48
3.9986236e-48
3.9991864e-48
3.9988093e-48
3.9986331e-48
3.9985598e-48
3.9985332e-48
3.9985249e-48
3.9985235e-48
3.9985255e-48
3.9985325e-48
3.9985514e-48
3.9991598e-48
3.9987826e-48
3.9986064e-48
3.9985332e-48
3.9985066e-48
3.9984984e-48
3.9984969e-48
3.9984991e-48
3.9985062e-48
3.9985253e-48
3.9991515e-48
3.9987743e-48
3.9985982e-48
3.9985249e-48
3.9984984e-48
3.9984902e-48
3.9984887e-48
3.9984909e-48
3.9984981e-48
3.9985172e-48
3.9991496e-48
3.9987727e-48
3.9985966e-48
3.9985235e-48
3.9984969e-48
3.9984887e-48
3.9984873e-48
3.9984895e-48
3.9984967e-48
3.9985158e-48
3.9991506e-48
3.9987741e-48
3.9985985e-48
3.9985255e-48
3.9984991e-48
3.9984909e-48
3.9984895e-48
3.9984917e-48
3.9984989e-48
3.998518e-48
3.9991548e-48
3.9987798e-48
3.9986051e-48
3.9985325e-48
3.9985062e-48
3.9984981e-48
3.9984967e-48
3.9984989e-48
3.998506e-48
3.9985252e-48
3.9991668e-48
3.9987967e-48
3.9986236e-48
3.9985514e-48
3.9985253e-48
3.9985172e-48
3.9985158e-48
3.998518e-48
3.9985252e-48
3.9985443e-48
1.7421725e-47
1.7420134e-47
1.7419388e-47
1.7419078e-47
1.7418965e-47
1.7418929e-47
1.7418922e-47
1.7418926e-47
1.7418943e-47
1.7418993e-47
1.7420134e-47
1.7418543e-47
1.7417797e-47
1.7417487e-47
1.7417374e-47
1.7417339e-47
1.7417332e-47
1.7417338e-47
1.7417362e-47
1.7417433e-47
1.7419388e-47
1.7417797e-47
1.7417052e-47
1.7416742e-47
1.7416629e-47
1.7416594e-47
1.7416588e-47
1.7416596e-47
1.7416624e-47
1.7416701e-47
1.7419078e-47
1.7417487e-47
1.7416742e-47
1.7416432e-47
1.7416319e-47
1.7416284e-47
1.7416278e-47
1.7416287e-47
1.7416316e-47
1.7416396e-47
1.7418965e-47
1.7417374e-47
1.7416629e-47
1.7416319e-47
1.7416206e-47
1.7416171e-47
1.7416165e-47
1.7416175e-47
1.7416205e-47
1.7416285e-47
1.7418929e-47
1.7417339e-47
1.7416594e-47
1.7416284e-47
1.7416171e-47
1.7416137e-47
1.7416131e-47
1.741614e-47
1.741617e-47
1.741625e-47
1.7418922e-47
1.7417332e-47
1.7416588e-47
1.7416278e-47
1.7416165e-47
1.7416131e-47
1.7416125e-47
1.7416134e-47
1.7416165e-47
1.7416245e-47
1.7418926e-47
1.7417338e-47
1.7416596e-47
1.7416287e-47
1.7416175e-47
1.741614e-47
1.7416134e-47
1.7416143e-47
1.7416174e-47
1.7416254e-47
1.7418943e-47
1.7417362e-47
1.7416624e-47
1.7416316e-47
1.7416205e-47
1.741617e-47
1.7416165e-47
1.7416174e-47
1.7416204e-47
1.7416285e-47
1.7418993e-47
1.7417433e-47
1.7416701e-47
1.7416396e-47
1.7416285e-47
1.741625e-47
1.7416245e-47
1.7416254e-47
1.7416285e-47
1.7416365e-47
7.743886e-47
7.7432015e-47
7.7428799e-47
7.7427459e-47
7.7426971e-47
7.7426818e-47
7.7426785e-47
7.7426803e-47
7.7426879e-47
7.7427087e-47
7.7432015e-47
7.7425173e-47
7.7421958e-47
7.7420618e-47
7.742013e-47
7.7419978e-47
7.7419948e-47
7.7419975e-47
7.742008e-47
7.7420381e-47
7.7428799e-47
7.7421958e-47
7.7418744e-47
7.7417404e-47
7.7416916e-47
7.7416765e-47
7.7416737e-47
7.7416772e-47
7.7416894e-47
7.7417224e-47
7.7427459e-47
7.7420618e-47
7.7417404e-47
7.7416064e-47
7.7415577e-47
7.7415426e-47
7.74154e-47
7.7415438e-47
7.7415567e-47
7.7415906e-47
7.7426971e-47
7.742013e-47
7.7416916e-47
7.7415577e-47
7.741509e-47
7.741494e-47
7.7414914e-47
7.7414954e-47
7.7415085e-47
7.7415427e-47
7.7426818e-47
7.7419978e-47
7.7416765e-47
7.7415426e-47
7.741494e-47
7.7414789e-47
7.7414764e-47
7.7414804e-47
7.7414936e-47
7.7415279e-47
7.7426785e-47
7.7419948e-47
7.7416737e-47
7.74154e-47
7.7414914e-47
7.7414764e-47
7.7414738e-47
7.7414779e-47
7.7414911e-47
7.7415254e-47
7.7426803e-47
7.7419975e-47
7.7416772e-47
7.7415438e-47
7.7414954e-47
7.7414804e-47
7.7414779e-47
7.741482e-47
7.7414952e-47
7.7415295e-47
7.7426879e-47
7.742008e-47
7.7416894e-47
7.7415567e-47
7.7415085e-47
7.7414936e-47
7.7414911e-47
7.7414952e-47
7.7415084e-47
7.7415427e-47
7.7427087e-47
7.7420381e-47
7.7417224e-47
7.7415906e-47
7.7415427e-47
7.7415279e-47
7.7415254e-47
7.7415295e-47
7.7415427e-47
7.741577e-47
3.512668e-46
3.5123677e-46
3.5122262e-46
3.5121672e-46
3.5121457e-46
3.5121389e-46
3.5121375e-46
3.5121383e-46
3.5121416e-46
3.5121506e-46
3.5123677e-46
3.5120675e-46
3.5119261e-46
3.5118671e-46
3.5118456e-46
3.5118389e-46
3.5118375e-46
3.5118388e-46
3.5118434e-46
3.5118565e-46
3.5122262e-46
3.5119261e-46
3.5117847e-46
3.5117257e-46
3.5117042e-46
3.5116976e-46
3.5116963e-46
3.5116979e-46
3.5117032e-46
3.5117176e-46
3.5121672e-46
3.5118671e-46
3.5117257e-46
3.5116667e-46
3.5116452e-46
3.5116386e-46
3.5116374e-46
3.5116391e-46
3.5116448e-46
3.5116596e-46
3.5121457e-46
3.5118456e-46
3.5117042e-46
3.5116452e-46
3.5116237e-46
3.5116171e-46
3.511616e-46
3.5116178e-46
3.5116236e-46
3.5116385e-46
3.5121389e-46
3.5118389e-46
3.5116976e-46
3.5116386e-46
3.5116171e-46
3.5116105e-46
3.5116094e-46
3.5116112e-46
3.511617e-46
3.511632e-46
3.5121375e-46
3.5118375e-46
3.5116963e-46
3.5116374e-46
3.511616e-46
3.5116094e-46
3.5116083e-46
3.5116101e-46
3.5116159e-46
3.5116309e-46
3.5121383e-46
3.5118388e-46
3.5116979e-46
3.5116391e-46
3.5116178e-46
3.5116112e-46
3.5116101e-46
3.5116119e-46
3.5116178e-46
3.5116327e-46
3.5121416e-46
3.5118434e-46
3.5117032e-46
3.5116448e-46
3.5116236e-46
3.511617e-46
3.5116159e-46
3.5116178e-46
3.5116236e-46
3.5116386e-46
3.5121506e-46
3.5118565e-46
3.5117176e-46
3.5116596e-46
3.5116385e-46
3.511632e-46
3.5116309e-46
3.5116327e-46
3.5116386e-46
3.5116536e-46
1.6259753e-45
1.6258409e-45
1.6257775e-45
1.625751e-45
1.6257413e-45
1.6257383e-45
1.6257376e-45
1.625738e-45
1.6257395e-45
1.6257434e-45
1.6258409e-45
1.6257066e-45
1.6256432e-45
1.6256167e-45
1.625607e-45
1.625604e-45
1.6256034e-45
1.625604e-45
1.6256061e-45
1.6256119e-45
1.6257775e-45
1.6256432e-45
1.6255798e-45
1.6255533e-45
1.6255436e-45
1.6255406e-45
1.6255401e-45
1.6255408e-45
1.6255432e-45
1.6255496e-45
1.625751e-45
1.6256167e-45
1.6255533e-45
1.6255267e-45
1.6255171e-45
1.6255141e-45
1.6255136e-45
1.6255144e-45
1.625517e-45
1.6255236e-45
1.6257413e-45
1.625607e-45
1.6255436e-45
1.6255171e-45
1.6255075e-45
1.6255045e-45
1.625504e-45
1.6255048e-45
1.6255074e-45
1.6255141e-45
1.6257383e-45
1.625604e-45
1.6255406e-45
1.6255141e-45
1.6255045e-45
1.6255015e-45
1.625501e-45
1.6255018e-45
1.6255045e-45
1.6255111e-45
1.6257376e-45
1.6256034e-45
1.6255401e-45
1.6255136e-45
1.625504e-45
1.625501e-45
1.6255005e-45
1.6255013e-45
1.625504e-45
1.6255107e-45
1.625738e-45
1.625604e-45
1.6255408e-45
1.6255144e-45
1.6255048e-45
1.6255018e-45
1.6255013e-45
1.6255022e-45
1.6255048e-45
1.6255115e-45
1.6257395e-45
1.6256061e-45
1.6255432e-45
1.625517e-45
1.6255074e-45
1.6255045e-45
1.625504e-45
1.6255048e-45
1.6255075e-45
1.6255141e-45
1.6257434e-45
1.6256119e-45
1.6255496e-45
1.6255236e-45
1.6255141e-45
1.6255111e-45
1.6255107e-45
1.6255115e-45
1.6255141e-45
1.6255208e-45
7.6801901e-45
7.6795771e-45
7.6792867e-45
7.6791653e-45
7.679121e-45
7.6791072e-45
7.6791042e-45
7.6791059e-45
7.6791127e-45
7.6791303e-45
7.6795771e-45
7.6789642e-45
7.678674e-45
7.6785526e-45
7.6785083e-45
7.6784945e-45
7.6784918e-45
7.6784944e-45
7.6785039e-45
7.6785304e-45
7.6792867e-45
7.678674e-45
7.6783838e-45
7.6782624e-45
7.6782182e-45
7.6782045e-45
7.678202e-45
7.6782053e-45
7.6782164e-45
7.6782456e-45
7.6791653e-45
7.6785526e-45
7.6782624e-45
7.678141e-45
7.6780968e-45
7.6780831e-45
7.6780808e-45
7.6780844e-45
7.6780962e-45
7.6781263e-45
7.679121e-45
7.6785083e-45
7.6782182e-45
7.6780968e-45
7.6780526e-45
7.678039e-45
7.6780367e-45
7.6780405e-45
7.6780525e-45
7.6780828e-45
7.6791072e-45
7.6784945e-45
7.6782045e-45
7.6780831e-45
7.678039e-45
7.6780254e-45
7.6780231e-45
7.6780269e-45
7.678039e-45
7.6780694e-45
7.6791042e-45
7.6784918e-45
7.678202e-45
7.6780808e-45
7.6780367e-45
7.6780231e-45
7.6780208e-45
7.6780247e-45
7.6780368e-45
7.6780672e-45
7.6791059e-45
7.6784944e-45
7.6782053e-45
7.6780844e-45
7.6780405e-45
7.6780269e-45
7.6780247e-45
7.6780285e-45
7.6780407e-45
7.6780711e-45
7.6791127e-45
7.6785039e-45
7.6782164e-45
7.6780962e-45
7.6780525e-45
7.678039e-45
7.6780368e-45
7.6780407e-45
7.6780528e-45
7.6780832e-45
7.6791303e-45
7.6785304e-45
7.6782456e-45
7.6781263e-45
7.6780828e-45
7.6780694e-45
7.6780672e-45
7.6780711e-45
7.6780832e-45
7.6781137e-45
3.7015838e-44
3.7012985e-44
3.7011631e-44
3.7011064e-44
3.7010857e-44
3.7010792e-44
3.7010778e-44
3.7010786e-44
3.7010818e-44
3.7010899e-44
3.7012985e-44
3.7010134e-44
3.700878e-44
3.7008213e-44
3.7008006e-44
3.7007941e-44
3.7007929e-44
3.7007941e-44
3.7007986e-44
3.7008108e-44
3.7011631e-44
3.700878e-44
3.7007426e-44
3.7006859e-44
3.7006652e-44
3.7006588e-44
3.7006577e-44
3.7006592e-44
3.7006644e-44
3.700678e-44
3.7011064e-44
3.7008213e-44
3.7006859e-44
3.7006292e-44
3.7006085e-44
3.7006022e-44
3.7006011e-44
3.7006028e-44
3.7006083e-44
3.7006223e-44
3.7010857e-44
3.7008006e-44
3.7006652e-44
3.7006085e-44
3.7005879e-44
3.7005815e-44
3.7005805e-44
3.7005823e-44
3.7005879e-44
3.700602e-44
3.7010792e-44
3.7007941e-44
3.7006588e-44
3.7006022e-44
3.7005815e-44
3.7005752e-44
3.7005741e-44
3.7005759e-44
3.7005816e-44
3.7005957e-44
3.7010778e-44
3.7007929e-44
3.7006577e-44
3.7006011e-44
3.7005805e-44
3.7005741e-44
3.7005731e-44
3.7005749e-44
3.7005806e-44
3.7005947e-44
3.7010786e-44
3.7007941e-44
3.7006592e-44
3.7006028e-44
3.7005823e-44
3.7005759e-44
3.7005749e-44
3.7005767e-44
3.7005824e-44
3.7005966e-44
3.7010818e-44
3.7007986e-44
3.7006644e-44
3.7006083e-44
3.7005879e-44
3.7005816e-44
3.7005806e-44
3.7005824e-44
3.7005881e-44
3.7006023e-44
3.7010899e-44
3.7008108e-44
3.700678e-44
3.7006223e-44
3.700602e-44
3.7005957e-44
3.7005947e-44
3.7005966e-44
3.7006023e-44
3.7006164e-44
1.8202492e-43
1.8201139e-43
1.8200494e-43
1.8200224e-43
1.8200126e-43
1.8200095e-43
1.8200088e-43
1.8200092e-43
1.8200107e-43
1.8200145e-43
1.8201139e-43
1.8199786e-43
1.8199141e-43
1.8198871e-43
1.8198773e-43
1.8198742e-43
1.8198736e-43
1.8198742e-43
1.8198763e-43
1.8198821e-43
1.8200494e-43
1.8199141e-43
1.8198498e-43
1.8198227e-43
1.8198129e-43
1.8198099e-43
1.8198093e-43
1.8198101e-43
1.8198126e-43
1.819819e-43
1.8200224e-43
1.8198871e-43
1.8198227e-43
1.8197958e-43
1.8197859e-43
1.8197829e-43
1.8197824e-43
1.8197832e-43
1.8197859e-43
1.8197925e-43
1.8200126e-43
1.8198773e-43
1.8198129e-43
1.8197859e-43
1.8197761e-43
1.819773e-43
1.8197725e-43
1.8197734e-43
1.8197761e-43
1.8197828e-43
1.8200095e-43
1.8198742e-43
1.8198099e-43
1.8197829e-43
1.819773e-43
1.81977e-43
1.8197695e-43
1.8197704e-43
1.8197731e-43
1.8197798e-43
1.8200088e-43
1.8198736e-43
1.8198093e-43
1.8197824e-43
1.8197725e-43
1.8197695e-43
1.819769e-43
1.8197699e-43
1.8197726e-43
1.8197793e-43
1.8200092e-43
1.8198742e-43
1.8198101e-43
1.8197832e-43
1.8197734e-43
1.8197704e-43
1.8197699e-43
1.8197708e-43
1.8197735e-43
1.8197802e-43
1.8200107e-43
1.8198763e-43
1.8198126e-43
1.8197859e-43
1.8197761e-43
1.8197731e-43
1.8197726e-43
1.8197735e-43
1.8197763e-43
1.819783e-43
1.8200145e-43
1.8198821e-43
1.819819e-43
1.8197925e-43
1.8197828e-43
1.8197798e-43
1.8197793e-43
1.8197802e-43
1.819783e-43
1.8197897e-43
9.1319858e-43
9.1313309e-43
9.1310185e-43
9.1308874e-43
9.1308395e-43
9.1308245e-43
9.1308213e-43
9.1308233e-43
9.1308306e-43
9.1308486e-43
9.1313309e-43
9.1306764e-43
9.130364e-43
9.1302329e-43
9.1301851e-43
9.1301702e-43
9.1301673e-43
9.1301702e-43
9.1301806e-43
9.1302086e-43
9.1310185e-43
9.130364e-43
9.1300518e-43
9.1299207e-43
9.1298729e-43
9.1298581e-43
9.1298554e-43
9.1298592e-43
9.1298714e-43
9.1299024e-43
9.1308874e-43
9.1302329e-43
9.1299207e-43
9.1297896e-43
9.1297418e-43
9.1297271e-43
9.1297246e-43
9.1297287e-43
9.1297417e-43
9.1297737e-43
9.1308395e-43
9.1301851e-43
9.1298729e-43
9.1297418e-43
9.1296941e-43
9.1296794e-43
9.1296769e-43
9.1296812e-43
9.1296945e-43
9.1297268e-43
9.1308245e-43
9.1301702e-43
9.1298581e-43
9.1297271e-43
9.1296794e-43
9.1296647e-43
9.1296623e-43
9.1296666e-43
9.1296799e-43
9.1297124e-43
9.1308213e-43
9.1301673e-43
9.1298554e-43
9.1297246e-43
9.1296769e-43
9.1296623e-43
9.1296599e-43
9.1296642e-43
9.1296776e-43
9.12971e-43
9.1308233e-43
9.1301702e-43
9.1298592e-43
9.1297287e-43
9.1296812e-43
9.1296666e-43
9.1296642e-43
9.1296686e-43
9.129682e-43
9.1297144e-43
9.1308306e-43
9.1301806e-43
9.1298714e-43
9.1297417e-43
9.1296945e-43
9.1296799e-43
9.1296776e-43
9.129682e-43
9.1296954e-43
9.1297278e-43
9.1308486e-43
9.1302086e-43
9.1299024e-43
9.1297737e-43
9.1297268e-43
9.1297124e-43
9.12971e-43
9.1297144e-43
9.1297278e-43
9.1297602e-43
4.6735542e-42
4.6732313e-42
4.6730768e-42
4.6730119e-42
4.6729883e-42
4.6729808e-42
4.6729793e-42
4.6729802e-42
4.6729839e-42
4.6729926e-42
4.6732313e-42
4.6729085e-42
4.6727541e-42
4.6726892e-42
4.6726655e-42
4.6726581e-42
4.6726567e-42
4.6726582e-42
4.6726634e-42
4.6726771e-42
4.6730768e-42
4.6727541e-42
4.6725997e-42
4.6725348e-42
4.6725112e-42
4.6725038e-42
4.6725026e-42
4.6725044e-42
4.6725105e-42
4.6725258e-42
4.6730119e-42
4.6726892e-42
4.6725348e-42
4.67247e-42
4.6724463e-42
4.672439e-42
4.6724378e-42
4.6724399e-42
4.6724464e-42
4.6724622e-42
4.6729883e-42
4.6726655e-42
4.6725112e-42
4.6724463e-42
4.6724227e-42
4.6724154e-42
4.6724142e-42
4.6724164e-42
4.672423e-42
4.6724389e-42
4.6729808e-42
4.6726581e-42
4.6725038e-42
4.672439e-42
4.6724154e-42
4.6724081e-42
4.6724069e-42
4.6724091e-42
4.6724158e-42
4.6724318e-42
4.6729793e-42
4.6726567e-42
4.6725026e-42
4.6724378e-42
4.6724142e-42
4.6724069e-42
4.6724058e-42
4.672408e-42
4.6724146e-42
4.6724307e-42
4.6729802e-42
4.6726582e-42
4.6725044e-42
4.6724399e-42
4.6724164e-42
4.6724091e-42
4.672408e-42
4.6724101e-42
4.6724168e-42
4.6724329e-42
4.6729839e-42
4.6726634e-42
4.6725105e-42
4.6724464e-42
4.672423e-42
4.6724158e-42
4.6724146e-42
4.6724168e-42
4.6724235e-42
4.6724395e-42
4.6729926e-42
4.6726771e-42
4.6725258e-42
4.6724622e-42
4.6724389e-42
4.6724318e-42
4.6724307e-42
4.6724329e-42
4.6724395e-42
4.6724556e-42
2.4396439e-41
2.4394815e-41
2.4394037e-41
2.439371e-41
2.4393591e-41
2.4393553e-41
2.4393545e-41
2.439355e-41
2.4393568e-41
2.4393612e-41
2.4394815e-41
2.4393193e-41
2.4392415e-41
2.4392088e-41
2.4391968e-41
2.4391931e-41
2.4391924e-41
2.4391931e-41
2.4391958e-41
2.4392027e-41
2.4394037e-41
2.4392415e-41
2.4391637e-41
2.439131e-41
2.4391191e-41
2.4391154e-41
2.4391147e-41
2.4391157e-41
2.4391188e-41
2.4391265e-41
2.439371e-41
2.4392088e-41
2.439131e-41
2.4390983e-41
2.4390863e-41
2.4390827e-41
2.4390821e-41
2.4390831e-41
2.4390864e-41
2.4390944e-41
2.4393591e-41
2.4391968e-41
2.4391191e-41
2.4390863e-41
2.4390744e-41
2.4390707e-41
2.4390702e-41
2.4390712e-41
2.4390746e-41
2.4390827e-41
2.4393553e-41
2.4391931e-41
2.4391154e-41
2.4390827e-41
2.4390707e-41
2.4390671e-41
2.4390665e-41
2.4390676e-41
2.439071e-41
2.4390791e-41
2.4393545e-41
2.4391924e-41
2.4391147e-41
2.4390821e-41
2.4390702e-41
2.4390665e-41
2.4390659e-41
2.439067e-41
2.4390704e-41
2.4390785e-41
2.439355e-41
2.4391931e-41
2.4391157e-41
2.4390831e-41
2.4390712e-41
2.4390676e-41
2.439067e-41
2.4390681e-41
2.4390715e-41
2.4390796e-41
2.4393568e-41
2.4391958e-41
2.4391188e-41
2.4390864e-41
2.4390746e-41
2.439071e-41
2.4390704e-41
2.4390715e-41
2.4390749e-41
2.439083e-41
2.4393612e-41
2.4392027e-41
2.4391265e-41
2.4390944e-41
2.4390827e-41
2.4390791e-41
2.4390785e-41
2.4390796e-41
2.439083e-41
2.4390911e-41
1.2988069e-40
1.2987238e-40
1.2986838e-40
1.298667e-40
1.2986608e-40
1.2986589e-40
1.2986585e-40
1.2986588e-40
1.2986597e-40
1.2986619e-40
1.2987238e-40
1.2986406e-40
1.2986007e-40
1.2985839e-40
1.2985777e-40
1.2985758e-40
1.2985754e-40
1.2985758e-40
1.2985772e-40
1.2985807e-40
1.2986838e-40
1.2986007e-40
1.2985608e-40
1.2985439e-40
1.2985378e-40
1.2985359e-40
1.2985356e-40
1.2985361e-40
1.2985377e-40
1.2985416e-40
1.298667e-40
1.2985839e-40
1.2985439e-40
1.2985271e-40
1.298521e-40
1.2985191e-40
1.2985188e-40
1.2985193e-40
1.2985211e-40
1.2985251e-40
1.2986608e-40
1.2985777e-40
1.2985378e-40
1.298521e-40
1.2985149e-40
1.298513e-40
1.2985127e-40
1.2985132e-40
1.298515e-40
1.2985191e-40
1.2986589e-40
1.2985758e-40
1.2985359e-40
1.2985191e-40
1.298513e-40
1.2985111e-40
1.2985108e-40
1.2985114e-40
1.2985131e-40
1.2985173e-40
1.2986585e-40
1.2985754e-40
1.2985356e-40
1.2985188e-40
1.2985127e-40
1.2985108e-40
1.2985105e-40
1.2985111e-40
1.2985128e-40
1.298517e-40
1.2986588e-40
1.2985758e-40
1.2985361e-40
1.2985193e-40
1.2985132e-40
1.2985114e-40
1.2985111e-40
1.2985117e-40
1.2985134e-40
1.2985176e-40
1.2986597e-40
1.2985772e-40
1.2985377e-40
1.2985211e-40
1.298515e-40
1.2985131e-40
1.2985128e-40
1.2985134e-40
1.2985152e-40
1.2985193e-40
1.2986619e-40
1.2985807e-40
1.2985416e-40
1.2985251e-40
1.2985191e-40
1.2985173e-40