/*--------------------------------*- C++ -*----------------------------------*\
| =========                 |                                                 |
| \\      /  F ield         | OpenFOAM: The Open Source CFD Toolbox           |
|  \\    /   O peration     | Version:  dev                                   |
|   \\  /    A nd           | Web:      www.OpenFOAM.org                      |
|    \\/     M anipulation  |                                                 |
\*---------------------------------------------------------------------------*/
FoamFile
{
    version     2.0;
    format      ascii;
    class       volScalarField;
    location    "20";
    object      A_0;
}
// * * * * * * * * * * * * * * * * * * * * * * * * * * * * * * * * * * * * * //

dimensions      [0 0 0 0 1 0 0];

internalField   nonuniform List<scalar> 
10000
(
1.2577174e-53
1.2575616e-53
1.2574916e-53
1.2574629e-53
1.2574525e-53
1.2574492e-53
1.2574485e-53
1.2574489e-53
1.2574506e-53
1.2574562e-53
1.2575616e-53
1.2574059e-53
1.2573359e-53
1.2573072e-53
1.2572968e-53
1.2572936e-53
1.2572929e-53
1.2572934e-53
1.2572957e-53
1.257303e-53
1.2574916e-53
1.2573359e-53
1.257266e-53
1.2572372e-53
1.2572268e-53
1.2572236e-53
1.257223e-53
1.2572237e-53
1.2572263e-53
1.2572341e-53
1.2574629e-53
1.2573072e-53
1.2572372e-53
1.2572085e-53
1.2571981e-53
1.2571949e-53
1.2571943e-53
1.257195e-53
1.2571978e-53
1.2572058e-53
1.2574525e-53
1.2572968e-53
1.2572268e-53
1.2571981e-53
1.2571877e-53
1.2571845e-53
1.2571839e-53
1.2571847e-53
1.2571875e-53
1.2571955e-53
1.2574492e-53
1.2572936e-53
1.2572236e-53
1.2571949e-53
1.2571845e-53
1.2571813e-53
1.2571807e-53
1.2571815e-53
1.2571843e-53
1.2571924e-53
1.2574485e-53
1.2572929e-53
1.257223e-53
1.2571943e-53
1.2571839e-53
1.2571807e-53
1.2571801e-53
1.2571809e-53
1.2571837e-53
1.2571918e-53
1.2574489e-53
1.2572934e-53
1.2572237e-53
1.257195e-53
1.2571847e-53
1.2571815e-53
1.2571809e-53
1.2571817e-53
1.2571845e-53
1.2571926e-53
1.2574506e-53
1.2572957e-53
1.2572263e-53
1.2571978e-53
1.2571875e-53
1.2571843e-53
1.2571837e-53
1.2571845e-53
1.2571873e-53
1.2571954e-53
1.2574562e-53
1.257303e-53
1.2572341e-53
1.2572058e-53
1.2571955e-53
1.2571924e-53
1.2571918e-53
1.2571926e-53
1.2571954e-53
1.2572035e-53
6.1784928e-53
6.1777495e-53
6.1774115e-53
6.1772724e-53
6.1772221e-53
6.1772064e-53
6.1772029e-53
6.1772048e-53
6.1772132e-53
6.1772411e-53
6.1777495e-53
6.1770066e-53
6.1766687e-53
6.1765296e-53
6.1764794e-53
6.1764637e-53
6.1764605e-53
6.1764631e-53
6.1764742e-53
6.1765105e-53
6.1774115e-53
6.1766687e-53
6.1763308e-53
6.1761918e-53
6.1761415e-53
6.176126e-53
6.176123e-53
6.1761263e-53
6.1761389e-53
6.1761778e-53
6.1772724e-53
6.1765296e-53
6.1761918e-53
6.1760528e-53
6.1760026e-53
6.1759871e-53
6.1759842e-53
6.1759878e-53
6.1760011e-53
6.1760408e-53
6.1772221e-53
6.1764794e-53
6.1761415e-53
6.1760026e-53
6.1759524e-53
6.1759369e-53
6.1759341e-53
6.1759378e-53
6.1759514e-53
6.1759913e-53
6.1772064e-53
6.1764637e-53
6.176126e-53
6.1759871e-53
6.1759369e-53
6.1759214e-53
6.1759186e-53
6.1759224e-53
6.175936e-53
6.175976e-53
6.1772029e-53
6.1764605e-53
6.176123e-53
6.1759842e-53
6.1759341e-53
6.1759186e-53
6.1759158e-53
6.1759197e-53
6.1759333e-53
6.1759733e-53
6.1772048e-53
6.1764631e-53
6.1761263e-53
6.1759878e-53
6.1759378e-53
6.1759224e-53
6.1759197e-53
6.1759235e-53
6.1759371e-53
6.1759771e-53
6.1772132e-53
6.1764742e-53
6.1761389e-53
6.1760011e-53
6.1759514e-53
6.175936e-53
6.1759333e-53
6.1759371e-53
6.1759507e-53
6.1759908e-53
6.1772411e-53
6.1765105e-53
6.1761778e-53
6.1760408e-53
6.1759913e-53
6.175976e-53
6.1759733e-53
6.1759771e-53
6.1759908e-53
6.1760308e-53
2.3345795e-52
2.3343065e-52
2.3341818e-52
2.3341305e-52
2.3341119e-52
2.3341061e-52
2.3341048e-52
2.3341055e-52
2.3341086e-52
2.3341188e-52
2.3343065e-52
2.3340337e-52
2.3339091e-52
2.3338577e-52
2.3338391e-52
2.3338333e-52
2.3338321e-52
2.3338331e-52
2.3338372e-52
2.3338506e-52
2.3341818e-52
2.3339091e-52
2.3337844e-52
2.3337331e-52
2.3337145e-52
2.3337088e-52
2.3337077e-52
2.3337089e-52
2.3337135e-52
2.3337279e-52
2.3341305e-52
2.3338577e-52
2.3337331e-52
2.3336818e-52
2.3336632e-52
2.3336575e-52
2.3336564e-52
2.3336578e-52
2.3336627e-52
2.3336773e-52
2.3341119e-52
2.3338391e-52
2.3337145e-52
2.3336632e-52
2.3336446e-52
2.3336389e-52
2.3336379e-52
2.3336393e-52
2.3336443e-52
2.333659e-52
2.3341061e-52
2.3338333e-52
2.3337088e-52
2.3336575e-52
2.3336389e-52
2.3336332e-52
2.3336322e-52
2.3336336e-52
2.3336386e-52
2.3336533e-52
2.3341048e-52
2.3338321e-52
2.3337077e-52
2.3336564e-52
2.3336379e-52
2.3336322e-52
2.3336311e-52
2.3336326e-52
2.3336376e-52
2.3336523e-52
2.3341055e-52
2.3338331e-52
2.3337089e-52
2.3336578e-52
2.3336393e-52
2.3336336e-52
2.3336326e-52
2.333634e-52
2.333639e-52
2.3336538e-52
2.3341086e-52
2.3338372e-52
2.3337135e-52
2.3336627e-52
2.3336443e-52
2.3336386e-52
2.3336376e-52
2.333639e-52
2.333644e-52
2.3336588e-52
2.3341188e-52
2.3338506e-52
2.3337279e-52
2.3336773e-52
2.333659e-52
2.3336533e-52
2.3336523e-52
2.3336538e-52
2.3336588e-52
2.3336736e-52
8.8402054e-52
8.8392017e-52
8.8387416e-52
8.8385517e-52
8.838483e-52
8.8384615e-52
8.8384567e-52
8.8384593e-52
8.8384706e-52
8.8385073e-52
8.8392017e-52
8.8381984e-52
8.8377384e-52
8.8375486e-52
8.8374799e-52
8.8374586e-52
8.8374541e-52
8.8374578e-52
8.8374728e-52
8.8375213e-52
8.8387416e-52
8.8377384e-52
8.8372785e-52
8.8370888e-52
8.8370201e-52
8.8369988e-52
8.8369947e-52
8.8369993e-52
8.8370165e-52
8.8370686e-52
8.8385517e-52
8.8375486e-52
8.8370888e-52
8.836899e-52
8.8368304e-52
8.8368092e-52
8.8368053e-52
8.8368104e-52
8.8368284e-52
8.8368817e-52
8.838483e-52
8.8374799e-52
8.8370201e-52
8.8368304e-52
8.8367618e-52
8.8367406e-52
8.8367368e-52
8.836742e-52
8.8367604e-52
8.836814e-52
8.8384615e-52
8.8374586e-52
8.8369988e-52
8.8368092e-52
8.8367406e-52
8.8367195e-52
8.8367157e-52
8.836721e-52
8.8367395e-52
8.8367932e-52
8.8384567e-52
8.8374541e-52
8.8369947e-52
8.8368053e-52
8.8367368e-52
8.8367157e-52
8.8367119e-52
8.8367172e-52
8.8367357e-52
8.8367895e-52
8.8384593e-52
8.8374578e-52
8.8369993e-52
8.8368104e-52
8.836742e-52
8.836721e-52
8.8367172e-52
8.8367226e-52
8.8367411e-52
8.8367948e-52
8.8384706e-52
8.8374728e-52
8.8370165e-52
8.8368284e-52
8.8367604e-52
8.8367395e-52
8.8367357e-52
8.8367411e-52
8.8367596e-52
8.8368134e-52
8.8385073e-52
8.8375213e-52
8.8370686e-52
8.8368817e-52
8.836814e-52
8.8367932e-52
8.8367895e-52
8.8367948e-52
8.8368134e-52
8.8368671e-52
3.4110736e-51
3.4106976e-51
3.4105247e-51
3.4104532e-51
3.4104273e-51
3.4104193e-51
3.4104175e-51
3.4104184e-51
3.4104226e-51
3.4104361e-51
3.4106976e-51
3.4103218e-51
3.4101489e-51
3.4100775e-51
3.4100516e-51
3.4100436e-51
3.4100419e-51
3.4100433e-51
3.4100489e-51
3.4100668e-51
3.4105247e-51
3.4101489e-51
3.4099761e-51
3.4099047e-51
3.4098788e-51
3.4098708e-51
3.4098693e-51
3.409871e-51
3.4098775e-51
3.4098967e-51
3.4104532e-51
3.4100775e-51
3.4099047e-51
3.4098333e-51
3.4098074e-51
3.4097994e-51
3.409798e-51
3.4097999e-51
3.4098067e-51
3.4098264e-51
3.4104273e-51
3.4100516e-51
3.4098788e-51
3.4098074e-51
3.4097816e-51
3.4097736e-51
3.4097722e-51
3.4097742e-51
3.4097811e-51
3.4098009e-51
3.4104193e-51
3.4100436e-51
3.4098708e-51
3.4097994e-51
3.4097736e-51
3.4097657e-51
3.4097642e-51
3.4097662e-51
3.4097732e-51
3.4097931e-51
3.4104175e-51
3.4100419e-51
3.4098693e-51
3.409798e-51
3.4097722e-51
3.4097642e-51
3.4097628e-51
3.4097648e-51
3.4097718e-51
3.4097917e-51
3.4104184e-51
3.4100433e-51
3.409871e-51
3.4097999e-51
3.4097742e-51
3.4097662e-51
3.4097648e-51
3.4097669e-51
3.4097738e-51
3.4097937e-51
3.4104226e-51
3.4100489e-51
3.4098775e-51
3.4098067e-51
3.4097811e-51
3.4097732e-51
3.4097718e-51
3.4097738e-51
3.4097808e-51
3.4098007e-51
3.4104361e-51
3.4100668e-51
3.4098967e-51
3.4098264e-51
3.4098009e-51
3.4097931e-51
3.4097917e-51
3.4097937e-51
3.4098007e-51
3.4098206e-51
1.3428579e-50
1.3427143e-50
1.342648e-50
1.3426206e-50
1.3426106e-50
1.3426075e-50
1.3426068e-50
1.3426072e-50
1.3426088e-50
1.3426138e-50
1.3427143e-50
1.3425707e-50
1.3425045e-50
1.3424771e-50
1.3424671e-50
1.342464e-50
1.3424634e-50
1.3424639e-50
1.3424661e-50
1.3424728e-50
1.342648e-50
1.3425045e-50
1.3424382e-50
1.3424108e-50
1.3424009e-50
1.3423978e-50
1.3423972e-50
1.3423979e-50
1.3424004e-50
1.3424076e-50
1.3426206e-50
1.3424771e-50
1.3424108e-50
1.3423834e-50
1.3423735e-50
1.3423704e-50
1.3423699e-50
1.3423706e-50
1.3423732e-50
1.3423807e-50
1.3426106e-50
1.3424671e-50
1.3424009e-50
1.3423735e-50
1.3423636e-50
1.3423605e-50
1.34236e-50
1.3423607e-50
1.3423634e-50
1.3423709e-50
1.3426075e-50
1.342464e-50
1.3423978e-50
1.3423704e-50
1.3423605e-50
1.3423574e-50
1.3423569e-50
1.3423577e-50
1.3423604e-50
1.3423679e-50
1.3426068e-50
1.3424634e-50
1.3423972e-50
1.3423699e-50
1.34236e-50
1.3423569e-50
1.3423564e-50
1.3423571e-50
1.3423598e-50
1.3423673e-50
1.3426072e-50
1.3424639e-50
1.3423979e-50
1.3423706e-50
1.3423607e-50
1.3423577e-50
1.3423571e-50
1.3423579e-50
1.3423606e-50
1.3423681e-50
1.3426088e-50
1.3424661e-50
1.3424004e-50
1.3423732e-50
1.3423634e-50
1.3423604e-50
1.3423598e-50
1.3423606e-50
1.3423633e-50
1.3423708e-50
1.3426138e-50
1.3424728e-50
1.3424076e-50
1.3423807e-50
1.3423709e-50
1.3423679e-50
1.3423673e-50
1.3423681e-50
1.3423708e-50
1.3423783e-50
5.394322e-50
5.3937624e-50
5.3935034e-50
5.3933961e-50
5.3933572e-50
5.393345e-50
5.3933423e-50
5.3933438e-50
5.39335e-50
5.393369e-50
5.3937624e-50
5.3932031e-50
5.3929442e-50
5.3928369e-50
5.392798e-50
5.3927859e-50
5.3927834e-50
5.3927855e-50
5.3927939e-50
5.3928198e-50
5.3935034e-50
5.3929442e-50
5.3926853e-50
5.392578e-50
5.3925391e-50
5.3925271e-50
5.3925248e-50
5.3925274e-50
5.3925371e-50
5.3925652e-50
5.3933961e-50
5.3928369e-50
5.392578e-50
5.3924708e-50
5.3924319e-50
5.3924199e-50
5.3924177e-50
5.3924206e-50
5.3924308e-50
5.3924596e-50
5.3933572e-50
5.392798e-50
5.3925391e-50
5.3924319e-50
5.392393e-50
5.3923811e-50
5.3923789e-50
5.392382e-50
5.3923923e-50
5.3924213e-50
5.393345e-50
5.3927859e-50
5.3925271e-50
5.3924199e-50
5.3923811e-50
5.3923691e-50
5.392367e-50
5.39237e-50
5.3923805e-50
5.3924095e-50
5.3933423e-50
5.3927834e-50
5.3925248e-50
5.3924177e-50
5.3923789e-50
5.392367e-50
5.3923648e-50
5.3923679e-50
5.3923784e-50
5.3924074e-50
5.3933438e-50
5.3927855e-50
5.3925274e-50
5.3924206e-50
5.392382e-50
5.39237e-50
5.3923679e-50
5.392371e-50
5.3923815e-50
5.3924105e-50
5.39335e-50
5.3927939e-50
5.3925371e-50
5.3924308e-50
5.3923923e-50
5.3923805e-50
5.3923784e-50
5.3923815e-50
5.3923919e-50
5.392421e-50
5.393369e-50
5.3928198e-50
5.3925652e-50
5.3924596e-50
5.3924213e-50
5.3924095e-50
5.3924074e-50
5.3924105e-50
5.392421e-50
5.39245e-50
2.2112239e-49
2.2110015e-49
2.2108982e-49
2.2108554e-49
2.2108399e-49
2.210835e-49
2.2108339e-49
2.2108345e-49
2.210837e-49
2.2108443e-49
2.2110015e-49
2.2107792e-49
2.210676e-49
2.2106332e-49
2.2106176e-49
2.2106128e-49
2.2106118e-49
2.2106126e-49
2.210616e-49
2.2106262e-49
2.2108982e-49
2.210676e-49
2.2105728e-49
2.21053e-49
2.2105144e-49
2.2105096e-49
2.2105087e-49
2.2105098e-49
2.2105136e-49
2.2105247e-49
2.2108554e-49
2.2106332e-49
2.21053e-49
2.2104872e-49
2.2104716e-49
2.2104668e-49
2.210466e-49
2.2104671e-49
2.2104712e-49
2.2104825e-49
2.2108399e-49
2.2106176e-49
2.2105144e-49
2.2104716e-49
2.2104561e-49
2.2104513e-49
2.2104505e-49
2.2104517e-49
2.2104558e-49
2.2104672e-49
2.210835e-49
2.2106128e-49
2.2105096e-49
2.2104668e-49
2.2104513e-49
2.2104465e-49
2.2104457e-49
2.2104469e-49
2.2104511e-49
2.2104625e-49
2.2108339e-49
2.2106118e-49
2.2105087e-49
2.210466e-49
2.2104505e-49
2.2104457e-49
2.2104449e-49
2.2104461e-49
2.2104503e-49
2.2104617e-49
2.2108345e-49
2.2106126e-49
2.2105098e-49
2.2104671e-49
2.2104517e-49
2.2104469e-49
2.2104461e-49
2.2104474e-49
2.2104515e-49
2.210463e-49
2.210837e-49
2.210616e-49
2.2105136e-49
2.2104712e-49
2.2104558e-49
2.2104511e-49
2.2104503e-49
2.2104515e-49
2.2104557e-49
2.2104671e-49
2.2108443e-49
2.2106262e-49
2.2105247e-49
2.2104825e-49
2.2104672e-49
2.2104625e-49
2.2104617e-49
2.210463e-49
2.2104671e-49
2.2104786e-49
9.249795e-49
9.2488936e-49
9.2484738e-49
9.2482994e-49
9.2482361e-49
9.2482162e-49
9.2482119e-49
9.2482143e-49
9.2482242e-49
9.2482535e-49
9.2488936e-49
9.2479925e-49
9.2475728e-49
9.2473985e-49
9.2473352e-49
9.2473155e-49
9.2473115e-49
9.247315e-49
9.2473285e-49
9.2473693e-49
9.2484738e-49
9.2475728e-49
9.2471532e-49
9.2469789e-49
9.2469156e-49
9.246896e-49
9.2468923e-49
9.2468967e-49
9.2469124e-49
9.2469568e-49
9.2482994e-49
9.2473985e-49
9.2469789e-49
9.2468046e-49
9.2467414e-49
9.2467218e-49
9.2467183e-49
9.2467232e-49
9.2467398e-49
9.2467853e-49
9.2482361e-49
9.2473352e-49
9.2469156e-49
9.2467414e-49
9.2466782e-49
9.2466587e-49
9.2466552e-49
9.2466603e-49
9.2466772e-49
9.246723e-49
9.2482162e-49
9.2473155e-49
9.246896e-49
9.2467218e-49
9.2466587e-49
9.2466392e-49
9.2466358e-49
9.2466409e-49
9.2466579e-49
9.2467038e-49
9.2482119e-49
9.2473115e-49
9.2468923e-49
9.2467183e-49
9.2466552e-49
9.2466358e-49
9.2466324e-49
9.2466375e-49
9.2466545e-49
9.2467005e-49
9.2482143e-49
9.247315e-49
9.2468967e-49
9.2467232e-49
9.2466603e-49
9.2466409e-49
9.2466375e-49
9.2466427e-49
9.2466597e-49
9.2467057e-49
9.2482242e-49
9.2473285e-49
9.2469124e-49
9.2467398e-49
9.2466772e-49
9.2466579e-49
9.2466545e-49
9.2466597e-49
9.2466767e-49
9.2467227e-49
9.2482535e-49
9.2473693e-49
9.2469568e-49
9.2467853e-49
9.246723e-49
9.2467038e-49
9.2467005e-49
9.2467057e-49
9.2467227e-49
9.2467687e-49
3.9486136e-48
3.9482409e-48
3.9480668e-48
3.9479944e-48
3.9479681e-48
3.9479598e-48
3.947958e-48
3.947959e-48
3.9479631e-48
3.947975e-48
3.9482409e-48
3.9478683e-48
3.9476942e-48
3.9476219e-48
3.9475956e-48
3.9475874e-48
3.9475857e-48
3.9475872e-48
3.9475928e-48
3.9476095e-48
3.9480668e-48
3.9476942e-48
3.9475202e-48
3.9474479e-48
3.9474216e-48
3.9474134e-48
3.9474119e-48
3.9474138e-48
3.9474203e-48
3.9474385e-48
3.9479944e-48
3.9476219e-48
3.9474479e-48
3.9473755e-48
3.9473492e-48
3.9473411e-48
3.9473397e-48
3.9473417e-48
3.9473486e-48
3.9473673e-48
3.9479681e-48
3.9475956e-48
3.9474216e-48
3.9473492e-48
3.947323e-48
3.9473149e-48
3.9473134e-48
3.9473156e-48
3.9473226e-48
3.9473414e-48
3.9479598e-48
3.9475874e-48
3.9474134e-48
3.9473411e-48
3.9473149e-48
3.9473068e-48
3.9473054e-48
3.9473075e-48
3.9473146e-48
3.9473334e-48
3.947958e-48
3.9475857e-48
3.9474119e-48
3.9473397e-48
3.9473134e-48
3.9473054e-48
3.947304e-48
3.9473061e-48
3.9473132e-48
3.9473321e-48
3.947959e-48
3.9475872e-48
3.9474138e-48
3.9473417e-48
3.9473156e-48
3.9473075e-48
3.9473061e-48
3.9473083e-48
3.9473154e-48
3.9473342e-48
3.9479631e-48
3.9475928e-48
3.9474203e-48
3.9473486e-48
3.9473226e-48
3.9473146e-48
3.9473132e-48
3.9473154e-48
3.9473225e-48
3.9473413e-48
3.947975e-48
3.9476095e-48
3.9474385e-48
3.9473673e-48
3.9473414e-48
3.9473334e-48
3.9473321e-48
3.9473342e-48
3.9473413e-48
3.9473602e-48
1.7201839e-47
1.7200267e-47
1.719953e-47
1.7199224e-47
1.7199112e-47
1.7199077e-47
1.719907e-47
1.7199074e-47
1.7199091e-47
1.719914e-47
1.7200267e-47
1.7198695e-47
1.7197959e-47
1.7197653e-47
1.7197541e-47
1.7197507e-47
1.71975e-47
1.7197506e-47
1.719753e-47
1.7197599e-47
1.719953e-47
1.7197959e-47
1.7197223e-47
1.7196917e-47
1.7196805e-47
1.7196771e-47
1.7196764e-47
1.7196772e-47
1.71968e-47
1.7196876e-47
1.7199224e-47
1.7197653e-47
1.7196917e-47
1.719661e-47
1.7196499e-47
1.7196465e-47
1.7196459e-47
1.7196467e-47
1.7196497e-47
1.7196575e-47
1.7199112e-47
1.7197541e-47
1.7196805e-47
1.7196499e-47
1.7196388e-47
1.7196353e-47
1.7196347e-47
1.7196357e-47
1.7196386e-47
1.7196465e-47
1.7199077e-47
1.7197507e-47
1.7196771e-47
1.7196465e-47
1.7196353e-47
1.7196319e-47
1.7196313e-47
1.7196322e-47
1.7196352e-47
1.7196432e-47
1.719907e-47
1.71975e-47
1.7196764e-47
1.7196459e-47
1.7196347e-47
1.7196313e-47
1.7196307e-47
1.7196317e-47
1.7196347e-47
1.7196426e-47
1.7199074e-47
1.7197506e-47
1.7196772e-47
1.7196467e-47
1.7196357e-47
1.7196322e-47
1.7196317e-47
1.7196326e-47
1.7196356e-47
1.7196435e-47
1.7199091e-47
1.719753e-47
1.71968e-47
1.7196497e-47
1.7196386e-47
1.7196352e-47
1.7196347e-47
1.7196356e-47
1.7196386e-47
1.7196465e-47
1.719914e-47
1.7197599e-47
1.7196876e-47
1.7196575e-47
1.7196465e-47
1.7196432e-47
1.7196426e-47
1.7196435e-47
1.7196465e-47
1.7196544e-47
7.6475476e-47
7.6468713e-47
7.6465537e-47
7.6464212e-47
7.6463731e-47
7.646358e-47
7.6463547e-47
7.6463565e-47
7.646364e-47
7.6463846e-47
7.6468713e-47
7.6461953e-47
7.6458778e-47
7.6457454e-47
7.6456972e-47
7.6456822e-47
7.6456792e-47
7.6456819e-47
7.6456922e-47
7.645722e-47
7.6465537e-47
7.6458778e-47
7.6455602e-47
7.6454279e-47
7.6453797e-47
7.6453648e-47
7.6453621e-47
7.6453655e-47
7.6453775e-47
7.6454101e-47
7.6464212e-47
7.6457454e-47
7.6454279e-47
7.6452955e-47
7.6452474e-47
7.6452325e-47
7.6452299e-47
7.6452337e-47
7.6452464e-47
7.6452799e-47
7.6463731e-47
7.6456972e-47
7.6453797e-47
7.6452474e-47
7.6451993e-47
7.6451845e-47
7.6451819e-47
7.6451859e-47
7.6451988e-47
7.6452326e-47
7.646358e-47
7.6456822e-47
7.6453648e-47
7.6452325e-47
7.6451845e-47
7.6451697e-47
7.6451671e-47
7.6451712e-47
7.6451842e-47
7.645218e-47
7.6463547e-47
7.6456792e-47
7.6453621e-47
7.6452299e-47
7.6451819e-47
7.6451671e-47
7.6451646e-47
7.6451686e-47
7.6451817e-47
7.6452155e-47
7.6463565e-47
7.6456819e-47
7.6453655e-47
7.6452337e-47
7.6451859e-47
7.6451712e-47
7.6451686e-47
7.6451727e-47
7.6451857e-47
7.6452196e-47
7.646364e-47
7.6456922e-47
7.6453775e-47
7.6452464e-47
7.6451988e-47
7.6451842e-47
7.6451817e-47
7.6451857e-47
7.6451988e-47
7.6452326e-47
7.6463846e-47
7.645722e-47
7.6454101e-47
7.6452799e-47
7.6452326e-47
7.645218e-47
7.6452155e-47
7.6452196e-47
7.6452326e-47
7.6452665e-47
3.469609e-46
3.4693123e-46
3.4691725e-46
3.4691142e-46
3.469093e-46
3.4690863e-46
3.4690849e-46
3.4690857e-46
3.469089e-46
3.4690978e-46
3.4693123e-46
3.4690157e-46
3.468876e-46
3.4688176e-46
3.4687964e-46
3.4687898e-46
3.4687885e-46
3.4687897e-46
3.4687943e-46
3.4688072e-46
3.4691725e-46
3.468876e-46
3.4687363e-46
3.468678e-46
3.4686567e-46
3.4686502e-46
3.468649e-46
3.4686505e-46
3.4686558e-46
3.46867e-46
3.4691142e-46
3.4688176e-46
3.468678e-46
3.4686196e-46
3.4685985e-46
3.4685919e-46
3.4685908e-46
3.4685925e-46
3.4685981e-46
3.4686127e-46
3.469093e-46
3.4687964e-46
3.4686567e-46
3.4685985e-46
3.4685773e-46
3.4685707e-46
3.4685696e-46
3.4685714e-46
3.4685771e-46
3.4685918e-46
3.4690863e-46
3.4687898e-46
3.4686502e-46
3.4685919e-46
3.4685707e-46
3.4685642e-46
3.4685631e-46
3.4685649e-46
3.4685706e-46
3.4685854e-46
3.4690849e-46
3.4687885e-46
3.468649e-46
3.4685908e-46
3.4685696e-46
3.4685631e-46
3.468562e-46
3.4685638e-46
3.4685695e-46
3.4685843e-46
3.4690857e-46
3.4687897e-46
3.4686505e-46
3.4685925e-46
3.4685714e-46
3.4685649e-46
3.4685638e-46
3.4685656e-46
3.4685713e-46
3.4685861e-46
3.469089e-46
3.4687943e-46
3.4686558e-46
3.4685981e-46
3.4685771e-46
3.4685706e-46
3.4685695e-46
3.4685713e-46
3.4685771e-46
3.4685919e-46
3.4690978e-46
3.4688072e-46
3.46867e-46
3.4686127e-46
3.4685918e-46
3.4685854e-46
3.4685843e-46
3.4685861e-46
3.4685919e-46
3.4686067e-46
1.6063429e-45
1.6062101e-45
1.6061474e-45
1.6061212e-45
1.6061117e-45
1.6061087e-45
1.606108e-45
1.6061084e-45
1.6061099e-45
1.6061138e-45
1.6062101e-45
1.6060774e-45
1.6060147e-45
1.6059885e-45
1.605979e-45
1.605976e-45
1.6059754e-45
1.6059759e-45
1.605978e-45
1.6059837e-45
1.6061474e-45
1.6060147e-45
1.605952e-45
1.6059258e-45
1.6059163e-45
1.6059133e-45
1.6059128e-45
1.6059135e-45
1.6059159e-45
1.6059222e-45
1.6061212e-45
1.6059885e-45
1.6059258e-45
1.6058996e-45
1.6058901e-45
1.6058871e-45
1.6058866e-45
1.6058874e-45
1.6058899e-45
1.6058965e-45
1.6061117e-45
1.605979e-45
1.6059163e-45
1.6058901e-45
1.6058806e-45
1.6058776e-45
1.6058771e-45
1.6058779e-45
1.6058805e-45
1.6058871e-45
1.6061087e-45
1.605976e-45
1.6059133e-45
1.6058871e-45
1.6058776e-45
1.6058747e-45
1.6058742e-45
1.605875e-45
1.6058776e-45
1.6058842e-45
1.606108e-45
1.6059754e-45
1.6059128e-45
1.6058866e-45
1.6058771e-45
1.6058742e-45
1.6058737e-45
1.6058745e-45
1.6058771e-45
1.6058837e-45
1.6061084e-45
1.6059759e-45
1.6059135e-45
1.6058874e-45
1.6058779e-45
1.605875e-45
1.6058745e-45
1.6058753e-45
1.605878e-45
1.6058846e-45
1.6061099e-45
1.605978e-45
1.6059159e-45
1.6058899e-45
1.6058805e-45
1.6058776e-45
1.6058771e-45
1.605878e-45
1.6058806e-45
1.6058872e-45
1.6061138e-45
1.6059837e-45
1.6059222e-45
1.6058965e-45
1.6058871e-45
1.6058842e-45
1.6058837e-45
1.6058846e-45
1.6058872e-45
1.6058938e-45
7.5888826e-45
7.5882766e-45
7.5879896e-45
7.5878695e-45
7.5878258e-45
7.5878121e-45
7.5878091e-45
7.5878109e-45
7.5878175e-45
7.587835e-45
7.5882766e-45
7.5876708e-45
7.5873839e-45
7.5872639e-45
7.5872201e-45
7.5872065e-45
7.5872038e-45
7.5872064e-45
7.5872158e-45
7.5872419e-45
7.5879896e-45
7.5873839e-45
7.587097e-45
7.586977e-45
7.5869334e-45
7.5869198e-45
7.5869174e-45
7.5869206e-45
7.5869316e-45
7.5869604e-45
7.5878695e-45
7.5872639e-45
7.586977e-45
7.5868571e-45
7.5868134e-45
7.5867999e-45
7.5867976e-45
7.5868012e-45
7.5868128e-45
7.5868425e-45
7.5878258e-45
7.5872201e-45
7.5869334e-45
7.5868134e-45
7.5867697e-45
7.5867563e-45
7.586754e-45
7.5867577e-45
7.5867696e-45
7.5867996e-45
7.5878121e-45
7.5872065e-45
7.5869198e-45
7.5867999e-45
7.5867563e-45
7.5867428e-45
7.5867406e-45
7.5867444e-45
7.5867563e-45
7.5867864e-45
7.5878091e-45
7.5872038e-45
7.5869174e-45
7.5867976e-45
7.586754e-45
7.5867406e-45
7.5867383e-45
7.5867421e-45
7.5867541e-45
7.5867842e-45
7.5878109e-45
7.5872064e-45
7.5869206e-45
7.5868012e-45
7.5867577e-45
7.5867444e-45
7.5867421e-45
7.5867459e-45
7.5867579e-45
7.586788e-45
7.5878175e-45
7.5872158e-45
7.5869316e-45
7.5868128e-45
7.5867696e-45
7.5867563e-45
7.5867541e-45
7.5867579e-45
7.58677e-45
7.5868e-45
7.587835e-45
7.5872419e-45
7.5869604e-45
7.5868425e-45
7.5867996e-45
7.5867864e-45
7.5867842e-45
7.586788e-45
7.5868e-45
7.5868301e-45
3.6582691e-44
3.657987e-44
3.6578531e-44
3.6577971e-44
3.6577766e-44
3.6577702e-44
3.6577688e-44
3.6577696e-44
3.6577728e-44
3.6577807e-44
3.657987e-44
3.6577051e-44
3.6575712e-44
3.6575152e-44
3.6574947e-44
3.6574884e-44
3.6574871e-44
3.6574883e-44
3.6574927e-44
3.6575048e-44
3.6578531e-44
3.6575712e-44
3.6574374e-44
3.6573813e-44
3.6573609e-44
3.6573546e-44
3.6573534e-44
3.657355e-44
3.6573601e-44
3.6573735e-44
3.6577971e-44
3.6575152e-44
3.6573813e-44
3.6573253e-44
3.6573049e-44
3.6572986e-44
3.6572975e-44
3.6572992e-44
3.6573047e-44
3.6573185e-44
3.6577766e-44
3.6574947e-44
3.6573609e-44
3.6573049e-44
3.6572845e-44
3.6572782e-44
3.6572771e-44
3.6572789e-44
3.6572845e-44
3.6572984e-44
3.6577702e-44
3.6574884e-44
3.6573546e-44
3.6572986e-44
3.6572782e-44
3.6572719e-44
3.6572709e-44
3.6572727e-44
3.6572783e-44
3.6572922e-44
3.6577688e-44
3.6574871e-44
3.6573534e-44
3.6572975e-44
3.6572771e-44
3.6572709e-44
3.6572698e-44
3.6572716e-44
3.6572773e-44
3.6572912e-44
3.6577696e-44
3.6574883e-44
3.657355e-44
3.6572992e-44
3.6572789e-44
3.6572727e-44
3.6572716e-44
3.6572734e-44
3.6572791e-44
3.657293e-44
3.6577728e-44
3.6574927e-44
3.6573601e-44
3.6573047e-44
3.6572845e-44
3.6572783e-44
3.6572773e-44
3.6572791e-44
3.6572847e-44
3.6572987e-44
3.6577807e-44
3.6575048e-44
3.6573735e-44
3.6573185e-44
3.6572984e-44
3.6572922e-44
3.6572912e-44
3.657293e-44
3.6572987e-44
3.6573126e-44
1.7992924e-43
1.7991586e-43
1.7990949e-43
1.7990682e-43
1.7990584e-43
1.7990554e-43
1.7990547e-43
1.7990551e-43
1.7990566e-43
1.7990603e-43
1.7991586e-43
1.7990248e-43
1.7989611e-43
1.7989344e-43
1.7989247e-43
1.7989216e-43
1.798921e-43
1.7989216e-43
1.7989237e-43
1.7989294e-43
1.7990949e-43
1.7989611e-43
1.7988974e-43
1.7988707e-43
1.798861e-43
1.798858e-43
1.7988574e-43
1.7988582e-43
1.7988607e-43
1.798867e-43
1.7990682e-43
1.7989344e-43
1.7988707e-43
1.798844e-43
1.7988343e-43
1.7988313e-43
1.7988308e-43
1.7988316e-43
1.7988342e-43
1.7988408e-43
1.7990584e-43
1.7989247e-43
1.798861e-43
1.7988343e-43
1.7988246e-43
1.7988216e-43
1.7988211e-43
1.7988219e-43
1.7988246e-43
1.7988312e-43
1.7990554e-43
1.7989216e-43
1.798858e-43
1.7988313e-43
1.7988216e-43
1.7988186e-43
1.7988181e-43
1.798819e-43
1.7988217e-43
1.7988283e-43
1.7990547e-43
1.798921e-43
1.7988574e-43
1.7988308e-43
1.7988211e-43
1.7988181e-43
1.7988176e-43
1.7988185e-43
1.7988212e-43
1.7988278e-43
1.7990551e-43
1.7989216e-43
1.7988582e-43
1.7988316e-43
1.7988219e-43
1.798819e-43
1.7988185e-43
1.7988194e-43
1.7988221e-43
1.7988287e-43
1.7990566e-43
1.7989237e-43
1.7988607e-43
1.7988342e-43
1.7988246e-43
1.7988217e-43
1.7988212e-43
1.7988221e-43
1.7988248e-43
1.7988314e-43
1.7990603e-43
1.7989294e-43
1.798867e-43
1.7988408e-43
1.7988312e-43
1.7988283e-43
1.7988278e-43
1.7988287e-43
1.7988314e-43
1.798838e-43
9.0285831e-43
9.0279354e-43
9.0276265e-43
9.0274968e-43
9.0274495e-43
9.0274347e-43
9.0274315e-43
9.0274334e-43
9.0274406e-43
9.0274584e-43
9.0279354e-43
9.027288e-43
9.0269791e-43
9.0268495e-43
9.0268022e-43
9.0267875e-43
9.0267846e-43
9.0267875e-43
9.0267978e-43
9.0268254e-43
9.0276265e-43
9.0269791e-43
9.0266703e-43
9.0265407e-43
9.0264934e-43
9.0264788e-43
9.0264762e-43
9.0264798e-43
9.0264919e-43
9.0265226e-43
9.0274968e-43
9.0268495e-43
9.0265407e-43
9.0264111e-43
9.0263638e-43
9.0263492e-43
9.0263468e-43
9.0263508e-43
9.0263637e-43
9.0263954e-43
9.0274495e-43
9.0268022e-43
9.0264934e-43
9.0263638e-43
9.0263166e-43
9.026302e-43
9.0262997e-43
9.0263039e-43
9.026317e-43
9.026349e-43
9.0274347e-43
9.0267875e-43
9.0264788e-43
9.0263492e-43
9.026302e-43
9.0262875e-43
9.0262852e-43
9.0262894e-43
9.0263026e-43
9.0263347e-43
9.0274315e-43
9.0267846e-43
9.0264762e-43
9.0263468e-43
9.0262997e-43
9.0262852e-43
9.0262828e-43
9.0262871e-43
9.0263003e-43
9.0263324e-43
9.0274334e-43
9.0267875e-43
9.0264798e-43
9.0263508e-43
9.0263039e-43
9.0262894e-43
9.0262871e-43
9.0262914e-43
9.0263046e-43
9.0263367e-43
9.0274406e-43
9.0267978e-43
9.0264919e-43
9.0263637e-43
9.026317e-43
9.0263026e-43
9.0263003e-43
9.0263046e-43
9.0263179e-43
9.0263499e-43
9.0274584e-43
9.0268254e-43
9.0265226e-43
9.0263954e-43
9.026349e-43
9.0263347e-43
9.0263324e-43
9.0263367e-43
9.0263499e-43
9.026382e-43
4.6215298e-42
4.6212103e-42
4.6210576e-42
4.6209934e-42
4.6209699e-42
4.6209626e-42
4.620961e-42
4.620962e-42
4.6209656e-42
4.6209742e-42
4.6212103e-42
4.620891e-42
4.6207382e-42
4.6206741e-42
4.6206507e-42
4.6206434e-42
4.6206419e-42
4.6206434e-42
4.6206485e-42
4.6206621e-42
4.6210576e-42
4.6207382e-42
4.6205855e-42
4.6205214e-42
4.620498e-42
4.6204907e-42
4.6204895e-42
4.6204913e-42
4.6204973e-42
4.6205125e-42
4.6209934e-42
4.6206741e-42
4.6205214e-42
4.6204572e-42
4.6204338e-42
4.6204266e-42
4.6204254e-42
4.6204275e-42
4.6204339e-42
4.6204495e-42
4.6209699e-42
4.6206507e-42
4.620498e-42
4.6204338e-42
4.6204105e-42
4.6204033e-42
4.6204021e-42
4.6204042e-42
4.6204108e-42
4.6204265e-42
4.6209626e-42
4.6206434e-42
4.6204907e-42
4.6204266e-42
4.6204033e-42
4.6203961e-42
4.6203949e-42
4.6203971e-42
4.6204036e-42
4.6204195e-42
4.620961e-42
4.6206419e-42
4.6204895e-42
4.6204254e-42
4.6204021e-42
4.6203949e-42
4.6203938e-42
4.6203959e-42
4.6204025e-42
4.6204184e-42
4.620962e-42
4.6206434e-42
4.6204913e-42
4.6204275e-42
4.6204042e-42
4.6203971e-42
4.6203959e-42
4.6203981e-42
4.6204047e-42
4.6204205e-42
4.6209656e-42
4.6206485e-42
4.6204973e-42
4.6204339e-42
4.6204108e-42
4.6204036e-42
4.6204025e-42
4.6204047e-42
4.6204113e-42
4.6204271e-42
4.6209742e-42
4.6206621e-42
4.6205125e-42
4.6204495e-42
4.6204265e-42
4.6204195e-42
4.6204184e-42
4.6204205e-42
4.6204271e-42
4.620443e-42
2.4129572e-41
2.4127966e-41
2.4127196e-41
2.4126872e-41
2.4126754e-41
2.4126717e-41
2.4126709e-41
2.4126714e-41
2.4126732e-41
2.4126775e-41
2.4127966e-41
2.412636e-41
2.412559e-41
2.4125267e-41
2.4125148e-41
2.4125112e-41
2.4125105e-41
2.4125112e-41
2.4125138e-41
2.4125206e-41
2.4127196e-41
2.412559e-41
2.4124821e-41
2.4124497e-41
2.4124379e-41
2.4124343e-41
2.4124336e-41
2.4124346e-41
2.4124376e-41
2.4124453e-41
2.4126872e-41
2.4125267e-41
2.4124497e-41
2.4124174e-41
2.4124056e-41
2.4124019e-41
2.4124013e-41
2.4124024e-41
2.4124056e-41
2.4124135e-41
2.4126754e-41
2.4125148e-41
2.4124379e-41
2.4124056e-41
2.4123938e-41
2.4123901e-41
2.4123895e-41
2.4123906e-41
2.412394e-41
2.4124019e-41
2.4126717e-41
2.4125112e-41
2.4124343e-41
2.4124019e-41
2.4123901e-41
2.4123865e-41
2.4123859e-41
2.412387e-41
2.4123904e-41
2.4123983e-41
2.4126709e-41
2.4125105e-41
2.4124336e-41
2.4124013e-41
2.4123895e-41
2.4123859e-41
2.4123853e-41
2.4123864e-41
2.4123898e-41
2.4123978e-41
2.4126714e-41
2.4125112e-41
2.4124346e-41
2.4124024e-41
2.4123906e-41
2.412387e-41
2.4123864e-41
2.4123876e-41
2.4123909e-41
2.4123989e-41
2.4126732e-41
2.4125138e-41
2.4124376e-41
2.4124056e-41
2.412394e-41
2.4123904e-41
2.4123898e-41
2.4123909e-41
2.4123943e-41
2.4124023e-41
2.4126775e-41
2.4125206e-41
2.4124453e-41
2.4124135e-41
2.4124019e-41
2.4123983e-41
2.4123978e-41
2.4123989e-41
2.4124023e-41
2.4124103e-41
1.2848519e-40
1.2847696e-40
1.2847301e-40
1.2847135e-40
1.2847074e-40
1.2847055e-40
1.2847051e-40
1.2847053e-40
1.2847063e-40
1.2847084e-40
1.2847696e-40
1.2846874e-40
1.2846478e-40
1.2846312e-40
1.2846251e-40
1.2846232e-40
1.2846229e-40
1.2846232e-40
1.2846246e-40
1.2846281e-40
1.2847301e-40
1.2846478e-40
1.2846083e-40
1.2845917e-40
1.2845856e-40
1.2845837e-40
1.2845834e-40
1.2845839e-40
1.2845855e-40
1.2845894e-40
1.2847135e-40
1.2846312e-40
1.2845917e-40
1.284575e-40
1.284569e-40
1.2845671e-40
1.2845668e-40
1.2845673e-40
1.284569e-40
1.2845731e-40
1.2847074e-40
1.2846251e-40
1.2845856e-40
1.284569e-40
1.2845629e-40
1.284561e-40
1.2845607e-40
1.2845613e-40
1.284563e-40
1.2845671e-40
1.2847055e-40
1.2846232e-40
1.2845837e-40
1.2845671e-40
1.284561e-40
1.2845592e-40
1.2845589e-40
1.2845594e-40
1.2845612e-40
1.2845653e-40
1.2847051e-40
1.2846229e-40
1.2845834e-40
1.2845668e-40
1.2845607e-40
1.2845589e-40
1.2845586e-40
1.2845592e-40
1.2845609e-40
1.284565e-40
1.2847053e-40
1.2846232e-40
1.2845839e-40
1.2845673e-40
1.2845613e-40
1.2845594e-40
1.2845592e-40
1.2845597e-40
1.2845615e-40
1.2845656e-40
1.2847063e-40
1.2846246e-40
1.2845855e-40
1.284569e-40
1.284563e-40
1.2845612e-40
1.2845609e-40
1.2845615e-40
1.2845632e-40
1.2845673e-40
1.2847084e-40
1.2846281e-40
1.2845894e-40
1.2845731e-40
1.2845671e-40
1.2845653e-40
1.284565e-40