/*--------------------------------*- C++ -*----------------------------------*\
| =========                 |                                                 |
| \\      /  F ield         | OpenFOAM: The Open Source CFD Toolbox           |
|  \\    /   O peration     | Version:  dev                                   |
|   \\  /    A nd           | Web:      www.OpenFOAM.org                      |
|    \\/     M anipulation  |                                                 |
\*---------------------------------------------------------------------------*/
FoamFile
{
    version     2.0;
    format      ascii;
    class       volScalarField;
    location    "69.995";
    object      A;
}
// * * * * * * * * * * * * * * * * * * * * * * * * * * * * * * * * * * * * * //

dimensions      [0 0 0 0 1 0 0];

internalField   nonuniform List<scalar> 
10000
(
1.2050089e-26
1.2033769e-26
1.2025399e-26
1.2021096e-26
1.2019042e-26
1.2018212e-26
1.20181e-26
1.2018597e-26
1.2019975e-26
1.2022865e-26
1.2033769e-26
1.2017518e-26
1.2009173e-26
1.2004881e-26
1.2002833e-26
1.200201e-26
1.2001913e-26
1.2002446e-26
1.200392e-26
1.200709e-26
1.2025399e-26
1.2009173e-26
1.2000842e-26
1.1996558e-26
1.1994516e-26
1.1993701e-26
1.1993621e-26
1.1994187e-26
1.1995726e-26
1.1998992e-26
1.2021096e-26
1.2004881e-26
1.1996558e-26
1.1992278e-26
1.1990242e-26
1.1989434e-26
1.1989365e-26
1.1989954e-26
1.1991527e-26
1.1994827e-26
1.2019042e-26
1.2002833e-26
1.1994516e-26
1.1990242e-26
1.1988209e-26
1.1987406e-26
1.1987345e-26
1.1987945e-26
1.1989534e-26
1.1992848e-26
1.2018212e-26
1.200201e-26
1.1993701e-26
1.1989434e-26
1.1987406e-26
1.1986607e-26
1.198655e-26
1.1987157e-26
1.1988752e-26
1.1992071e-26
1.20181e-26
1.2001913e-26
1.1993621e-26
1.1989365e-26
1.1987345e-26
1.198655e-26
1.1986497e-26
1.1987107e-26
1.1988705e-26
1.1992026e-26
1.2018597e-26
1.2002446e-26
1.1994187e-26
1.1989954e-26
1.1987945e-26
1.1987157e-26
1.1987107e-26
1.1987718e-26
1.1989319e-26
1.1992642e-26
1.2019975e-26
1.200392e-26
1.1995726e-26
1.1991527e-26
1.1989534e-26
1.1988752e-26
1.1988705e-26
1.1989319e-26
1.1990921e-26
1.1994247e-26
1.2022865e-26
1.200709e-26
1.1998992e-26
1.1994827e-26
1.1992848e-26
1.1992071e-26
1.1992026e-26
1.1992642e-26
1.1994247e-26
1.1997583e-26
4.0983497e-26
4.0930076e-26
4.0901937e-26
4.0887437e-26
4.088051e-26
4.087771e-26
4.0877332e-26
4.0878999e-26
4.0883634e-26
4.0893719e-26
4.0930076e-26
4.0876881e-26
4.0848822e-26
4.0834357e-26
4.0827452e-26
4.0824675e-26
4.0824345e-26
4.0826134e-26
4.0831097e-26
4.0842139e-26
4.0901937e-26
4.0848822e-26
4.0820811e-26
4.0806373e-26
4.0799487e-26
4.0796739e-26
4.0796464e-26
4.0798369e-26
4.0803552e-26
4.0814916e-26
4.0887437e-26
4.0834357e-26
4.0806373e-26
4.0791953e-26
4.0785083e-26
4.0782358e-26
4.0782125e-26
4.0784104e-26
4.0789401e-26
4.0800883e-26
4.088051e-26
4.0827452e-26
4.0799487e-26
4.0785083e-26
4.0778228e-26
4.0775519e-26
4.0775312e-26
4.0777331e-26
4.0782682e-26
4.0794209e-26
4.087771e-26
4.0824675e-26
4.0796739e-26
4.0782358e-26
4.0775519e-26
4.0772823e-26
4.0772631e-26
4.0774671e-26
4.0780044e-26
4.0791589e-26
4.0877332e-26
4.0824345e-26
4.0796464e-26
4.0782125e-26
4.0775312e-26
4.0772631e-26
4.077245e-26
4.07745e-26
4.0779884e-26
4.0791437e-26
4.0878999e-26
4.0826134e-26
4.0798369e-26
4.0784104e-26
4.0777331e-26
4.0774671e-26
4.07745e-26
4.0776557e-26
4.0781948e-26
4.0793506e-26
4.0883634e-26
4.0831097e-26
4.0803552e-26
4.0789401e-26
4.0782682e-26
4.0780044e-26
4.0779884e-26
4.0781948e-26
4.0787346e-26
4.0798914e-26
4.0893719e-26
4.0842139e-26
4.0814916e-26
4.0800883e-26
4.0794209e-26
4.0791589e-26
4.0791437e-26
4.0793506e-26
4.0798914e-26
4.0810516e-26
8.6798431e-26
8.6688963e-26
8.6630533e-26
8.660034e-26
8.65859e-26
8.6580056e-26
8.6579256e-26
8.6582702e-26
8.65923e-26
8.6613827e-26
8.6688963e-26
8.6579949e-26
8.6521684e-26
8.6491563e-26
8.6477166e-26
8.6471372e-26
8.6470674e-26
8.6474377e-26
8.6484666e-26
8.6508216e-26
8.6630533e-26
8.6521684e-26
8.6463517e-26
8.6433451e-26
8.6419096e-26
8.641336e-26
8.641278e-26
8.6416726e-26
8.6427478e-26
8.6451708e-26
8.660034e-26
8.6491563e-26
8.6433451e-26
8.6403424e-26
8.6389103e-26
8.6383415e-26
8.6382922e-26
8.6387026e-26
8.6398019e-26
8.6422498e-26
8.65859e-26
8.6477166e-26
8.6419096e-26
8.6389103e-26
8.6374811e-26
8.6369158e-26
8.6368718e-26
8.6372907e-26
8.6384012e-26
8.6408587e-26
8.6580056e-26
8.6471372e-26
8.641336e-26
8.6383415e-26
8.6369158e-26
8.6363532e-26
8.6363125e-26
8.6367356e-26
8.6378511e-26
8.6403122e-26
8.6579256e-26
8.6470674e-26
8.641278e-26
8.6382922e-26
8.6368718e-26
8.6363125e-26
8.6362741e-26
8.6366994e-26
8.6378171e-26
8.6402797e-26
8.6582702e-26
8.6474377e-26
8.6416726e-26
8.6387026e-26
8.6372907e-26
8.6367356e-26
8.6366994e-26
8.6371261e-26
8.6382452e-26
8.640709e-26
8.65923e-26
8.6484666e-26
8.6427478e-26
8.6398019e-26
8.6384012e-26
8.6378511e-26
8.6378171e-26
8.6382452e-26
8.6393657e-26
8.6418317e-26
8.6613827e-26
8.6508216e-26
8.6451708e-26
8.6422498e-26
8.6408587e-26
8.6403122e-26
8.6402797e-26
8.640709e-26
8.6418317e-26
8.6443052e-26
1.6937633e-25
1.6916959e-25
1.6905836e-25
1.6900072e-25
1.6897311e-25
1.6896192e-25
1.6896037e-25
1.6896688e-25
1.6898502e-25
1.6902602e-25
1.6916959e-25
1.6896369e-25
1.6885277e-25
1.6879527e-25
1.6876774e-25
1.6875665e-25
1.6875529e-25
1.6876231e-25
1.6878178e-25
1.6882672e-25
1.6905836e-25
1.6885277e-25
1.6874204e-25
1.6868464e-25
1.6865719e-25
1.6864621e-25
1.6864508e-25
1.6865257e-25
1.6867294e-25
1.687192e-25
1.6900072e-25
1.6879527e-25
1.6868464e-25
1.6862732e-25
1.6859993e-25
1.6858905e-25
1.6858808e-25
1.6859587e-25
1.6861671e-25
1.6866346e-25
1.6897311e-25
1.6876774e-25
1.6865719e-25
1.6859993e-25
1.6857261e-25
1.6856179e-25
1.6856093e-25
1.6856888e-25
1.6858994e-25
1.6863687e-25
1.6896192e-25
1.6875665e-25
1.6864621e-25
1.6858905e-25
1.6856179e-25
1.6855102e-25
1.6855023e-25
1.6855826e-25
1.6857941e-25
1.6862641e-25
1.6896037e-25
1.6875529e-25
1.6864508e-25
1.6858808e-25
1.6856093e-25
1.6855023e-25
1.6854947e-25
1.6855755e-25
1.6857875e-25
1.6862578e-25
1.6896688e-25
1.6876231e-25
1.6865257e-25
1.6859587e-25
1.6856888e-25
1.6855826e-25
1.6855755e-25
1.6856566e-25
1.6858688e-25
1.6863393e-25
1.6898502e-25
1.6878178e-25
1.6867294e-25
1.6861671e-25
1.6858994e-25
1.6857941e-25
1.6857875e-25
1.6858688e-25
1.6860813e-25
1.6865523e-25
1.6902602e-25
1.6882672e-25
1.687192e-25
1.6866346e-25
1.6863687e-25
1.6862641e-25
1.6862578e-25
1.6863393e-25
1.6865523e-25
1.6870246e-25
3.2615203e-25
3.2576684e-25
3.2555845e-25
3.2545016e-25
3.2539821e-25
3.2537712e-25
3.2537414e-25
3.2538625e-25
3.2541986e-25
3.254957e-25
3.2576684e-25
3.2538321e-25
3.2517539e-25
3.2506736e-25
3.2501555e-25
3.2499465e-25
3.2499205e-25
3.250051e-25
3.2504129e-25
3.2512466e-25
3.2555845e-25
3.2517539e-25
3.2496792e-25
3.2486008e-25
3.2480843e-25
3.2478774e-25
3.2478557e-25
3.2479953e-25
3.2483743e-25
3.2492333e-25
3.2545016e-25
3.2506736e-25
3.2486008e-25
3.2475238e-25
3.2470085e-25
3.2468033e-25
3.2467849e-25
3.2469303e-25
3.2473182e-25
3.2481865e-25
3.2539821e-25
3.2501555e-25
3.2480843e-25
3.2470085e-25
3.2464943e-25
3.2462904e-25
3.2462739e-25
3.2464225e-25
3.2468145e-25
3.2476864e-25
3.2537712e-25
3.2499465e-25
3.2478774e-25
3.2468033e-25
3.2462904e-25
3.2460876e-25
3.2460723e-25
3.2462224e-25
3.2466163e-25
3.2474895e-25
3.2537414e-25
3.2499205e-25
3.2478557e-25
3.2467849e-25
3.2462739e-25
3.2460723e-25
3.2460578e-25
3.2462087e-25
3.2466035e-25
3.2474772e-25
3.2538625e-25
3.250051e-25
3.2479953e-25
3.2469303e-25
3.2464225e-25
3.2462224e-25
3.2462087e-25
3.2463602e-25
3.2467554e-25
3.2476296e-25
3.2541986e-25
3.2504129e-25
3.2483743e-25
3.2473182e-25
3.2468145e-25
3.2466163e-25
3.2466035e-25
3.2467554e-25
3.2471511e-25
3.2480261e-25
3.254957e-25
3.2512466e-25
3.2492333e-25
3.2481865e-25
3.2476864e-25
3.2474895e-25
3.2474772e-25
3.2476296e-25
3.2480261e-25
3.2489037e-25
6.3081108e-25
6.3009055e-25
6.2969894e-25
6.2949489e-25
6.2939683e-25
6.2935697e-25
6.2935125e-25
6.2937379e-25
6.2943619e-25
6.2957607e-25
6.3009055e-25
6.293729e-25
6.2898236e-25
6.2877877e-25
6.28681e-25
6.2864148e-25
6.2863649e-25
6.2866085e-25
6.2872819e-25
6.2888257e-25
6.2969894e-25
6.2898236e-25
6.2859244e-25
6.2838923e-25
6.2829173e-25
6.2825263e-25
6.2824846e-25
6.2827456e-25
6.2834519e-25
6.2850444e-25
6.2949489e-25
6.2877877e-25
6.2838923e-25
6.2818627e-25
6.2808901e-25
6.2805025e-25
6.280467e-25
6.280739e-25
6.2814625e-25
6.2830727e-25
6.2939683e-25
6.28681e-25
6.2829173e-25
6.2808901e-25
6.2799196e-25
6.2795344e-25
6.2795027e-25
6.2797808e-25
6.2805122e-25
6.2821292e-25
6.2935697e-25
6.2864148e-25
6.2825263e-25
6.2805025e-25
6.2795344e-25
6.2791511e-25
6.2791217e-25
6.2794027e-25
6.2801377e-25
6.2817573e-25
6.2935125e-25
6.2863649e-25
6.2824846e-25
6.280467e-25
6.2795027e-25
6.2791217e-25
6.2790938e-25
6.2793765e-25
6.280113e-25
6.2817337e-25
6.2937379e-25
6.2866085e-25
6.2827456e-25
6.280739e-25
6.2797808e-25
6.2794027e-25
6.2793765e-25
6.2796601e-25
6.2803976e-25
6.2820191e-25
6.2943619e-25
6.2872819e-25
6.2834519e-25
6.2814625e-25
6.2805122e-25
6.2801377e-25
6.280113e-25
6.2803976e-25
6.2811359e-25
6.2827589e-25
6.2957607e-25
6.2888257e-25
6.2850444e-25
6.2830727e-25
6.2821292e-25
6.2817573e-25
6.2817337e-25
6.2820191e-25
6.2827589e-25
6.2843867e-25
1.2314721e-24
1.2301123e-24
1.22937e-24
1.2289823e-24
1.2287956e-24
1.2287196e-24
1.2287086e-24
1.2287509e-24
1.2288676e-24
1.2291273e-24
1.2301123e-24
1.2287578e-24
1.2280175e-24
1.2276307e-24
1.2274445e-24
1.2273692e-24
1.2273595e-24
1.2274054e-24
1.2275317e-24
1.2278196e-24
1.22937e-24
1.2280175e-24
1.2272785e-24
1.2268923e-24
1.2267067e-24
1.2266322e-24
1.2266241e-24
1.2266733e-24
1.226806e-24
1.2271033e-24
1.2289823e-24
1.2276307e-24
1.2268923e-24
1.2265066e-24
1.2263215e-24
1.2262476e-24
1.2262407e-24
1.226292e-24
1.2264281e-24
1.2267288e-24
1.2287956e-24
1.2274445e-24
1.2267067e-24
1.2263215e-24
1.2261367e-24
1.2260633e-24
1.2260572e-24
1.2261097e-24
1.2262472e-24
1.2265493e-24
1.2287196e-24
1.2273692e-24
1.2266322e-24
1.2262476e-24
1.2260633e-24
1.2259903e-24
1.2259846e-24
1.2260377e-24
1.2261759e-24
1.2264784e-24
1.2287086e-24
1.2273595e-24
1.2266241e-24
1.2262407e-24
1.2260572e-24
1.2259846e-24
1.2259792e-24
1.2260326e-24
1.2261711e-24
1.2264738e-24
1.2287509e-24
1.2274054e-24
1.2266733e-24
1.226292e-24
1.2261097e-24
1.2260377e-24
1.2260326e-24
1.2260862e-24
1.2262249e-24
1.2265278e-24
1.2288676e-24
1.2275317e-24
1.226806e-24
1.2264281e-24
1.2262472e-24
1.2261759e-24
1.2261711e-24
1.2262249e-24
1.2263638e-24
1.2266669e-24
1.2291273e-24
1.2278196e-24
1.2271033e-24
1.2267288e-24
1.2265493e-24
1.2264784e-24
1.2264738e-24
1.2265278e-24
1.2266669e-24
1.226971e-24
2.4299806e-24
2.4273875e-24
2.4259664e-24
2.4252221e-24
2.4248632e-24
2.4247169e-24
2.4246952e-24
2.4247755e-24
2.4249962e-24
2.4254829e-24
2.4273875e-24
2.4248047e-24
2.4233873e-24
2.4226446e-24
2.4222867e-24
2.4221417e-24
2.4221228e-24
2.42221e-24
2.4224494e-24
2.4229913e-24
2.4259664e-24
2.4233873e-24
2.4219722e-24
2.4212308e-24
2.4208739e-24
2.4207305e-24
2.4207147e-24
2.4208084e-24
2.4210604e-24
2.4216207e-24
2.4252221e-24
2.4226446e-24
2.4212308e-24
2.4204904e-24
2.4201344e-24
2.4199922e-24
2.4199787e-24
2.4200767e-24
2.4203351e-24
2.4209022e-24
2.4248632e-24
2.4222867e-24
2.4208739e-24
2.4201344e-24
2.4197792e-24
2.4196379e-24
2.4196258e-24
2.4197261e-24
2.4199875e-24
2.4205572e-24
2.4247169e-24
2.4221417e-24
2.4207305e-24
2.4199922e-24
2.4196379e-24
2.4194973e-24
2.4194861e-24
2.4195875e-24
2.4198502e-24
2.4204209e-24
2.4246952e-24
2.4221228e-24
2.4207147e-24
2.4199787e-24
2.4196258e-24
2.4194861e-24
2.4194756e-24
2.4195775e-24
2.4198408e-24
2.4204119e-24
2.4247755e-24
2.42221e-24
2.4208084e-24
2.4200767e-24
2.4197261e-24
2.4195875e-24
2.4195775e-24
2.4196799e-24
2.4199435e-24
2.4205149e-24
2.4249962e-24
2.4224494e-24
2.4210604e-24
2.4203351e-24
2.4199875e-24
2.4198502e-24
2.4198408e-24
2.4199435e-24
2.4202075e-24
2.4207794e-24
2.4254829e-24
2.4229913e-24
2.4216207e-24
2.4209022e-24
2.4205572e-24
2.4204209e-24
2.4204119e-24
2.4205149e-24
2.4207794e-24
2.4213529e-24
4.8486196e-24
4.8436219e-24
4.8408718e-24
4.8394278e-24
4.8387303e-24
4.8384456e-24
4.8384029e-24
4.8385569e-24
4.8389786e-24
4.8399003e-24
4.8436219e-24
4.8386436e-24
4.8359007e-24
4.8344598e-24
4.8337643e-24
4.8334821e-24
4.8334448e-24
4.8336125e-24
4.8340712e-24
4.8351023e-24
4.8408718e-24
4.8359007e-24
4.8331621e-24
4.8317237e-24
4.8310303e-24
4.8307511e-24
4.83072e-24
4.8309006e-24
4.831384e-24
4.8324517e-24
4.8394278e-24
4.8344598e-24
4.8317237e-24
4.8302872e-24
4.8295955e-24
4.8293188e-24
4.8292922e-24
4.8294812e-24
4.8299774e-24
4.8310584e-24
4.8387303e-24
4.8337643e-24
4.8310303e-24
4.8295955e-24
4.8289053e-24
4.8286304e-24
4.8286067e-24
4.8288001e-24
4.8293023e-24
4.8303883e-24
4.8384456e-24
4.8334821e-24
4.8307511e-24
4.8293188e-24
4.8286304e-24
4.828357e-24
4.8283349e-24
4.8285306e-24
4.8290354e-24
4.8301234e-24
4.8384029e-24
4.8334448e-24
4.83072e-24
4.8292922e-24
4.8286067e-24
4.8283349e-24
4.8283141e-24
4.8285109e-24
4.8290168e-24
4.8301057e-24
4.8385569e-24
4.8336125e-24
4.8309006e-24
4.8294812e-24
4.8288001e-24
4.8285306e-24
4.8285109e-24
4.8287084e-24
4.829215e-24
4.8303045e-24
4.8389786e-24
4.8340712e-24
4.831384e-24
4.8299774e-24
4.8293023e-24
4.8290354e-24
4.8290168e-24
4.829215e-24
4.8297223e-24
4.8308127e-24
4.8399003e-24
4.8351023e-24
4.8324517e-24
4.8310584e-24
4.8303883e-24
4.8301234e-24
4.8301057e-24
4.8303045e-24
4.8308127e-24
4.8319062e-24
9.784499e-24
9.7747614e-24
9.7693819e-24
9.7665501e-24
9.7651802e-24
9.7646203e-24
9.7645352e-24
9.7648338e-24
9.7656483e-24
9.7674131e-24
9.7747614e-24
9.7650615e-24
9.7596957e-24
9.75687e-24
9.7555039e-24
9.754949e-24
9.7548747e-24
9.7552007e-24
9.7560894e-24
9.7580732e-24
9.7693819e-24
9.7596957e-24
9.7543384e-24
9.7515176e-24
9.7501556e-24
9.7496066e-24
9.7495446e-24
9.7498964e-24
9.7508345e-24
9.7528915e-24
9.7665501e-24
9.75687e-24
9.7515176e-24
9.7487004e-24
9.7473417e-24
9.7467977e-24
9.7467449e-24
9.7471133e-24
9.7480769e-24
9.7501607e-24
9.7651802e-24
9.7555039e-24
9.7501556e-24
9.7473417e-24
9.7459861e-24
9.7454457e-24
9.7453984e-24
9.7457758e-24
9.7467513e-24
9.7488452e-24
9.7646203e-24
9.754949e-24
9.7496066e-24
9.7467977e-24
9.7454457e-24
9.7449082e-24
9.7448643e-24
9.7452461e-24
9.7462269e-24
9.7483247e-24
9.7645352e-24
9.7548747e-24
9.7495446e-24
9.7467449e-24
9.7453984e-24
9.7448643e-24
9.7448228e-24
9.7452069e-24
9.74619e-24
9.7482895e-24
9.7648338e-24
9.7552007e-24
9.7498964e-24
9.7471133e-24
9.7457758e-24
9.7452461e-24
9.7452069e-24
9.7455926e-24
9.7465769e-24
9.7486775e-24
9.7656483e-24
9.7560894e-24
9.7508345e-24
9.7480769e-24
9.7467513e-24
9.7462269e-24
9.74619e-24
9.7465769e-24
9.7475626e-24
9.7496649e-24
9.7674131e-24
9.7580732e-24
9.7528915e-24
9.7501607e-24
9.7488452e-24
9.7483247e-24
9.7482895e-24
9.7486775e-24
9.7496649e-24
9.7517732e-24
1.9970989e-23
1.9951808e-23
1.994117e-23
1.9935556e-23
1.9932836e-23
1.9931723e-23
1.9931552e-23
1.9932138e-23
1.9933729e-23
1.9937145e-23
1.9951808e-23
1.9932701e-23
1.9922089e-23
1.9916487e-23
1.9913775e-23
1.9912672e-23
1.9912522e-23
1.9913163e-23
1.9914904e-23
1.9918764e-23
1.994117e-23
1.9922089e-23
1.9911495e-23
1.9905902e-23
1.9903198e-23
1.9902107e-23
1.9901982e-23
1.9902675e-23
1.9904516e-23
1.9908524e-23
1.9935556e-23
1.9916487e-23
1.9905902e-23
1.9900317e-23
1.989762e-23
1.9896539e-23
1.9896432e-23
1.9897159e-23
1.9899052e-23
1.9903114e-23
1.9932836e-23
1.9913775e-23
1.9903198e-23
1.989762e-23
1.9894928e-23
1.9893854e-23
1.9893759e-23
1.9894504e-23
1.9896421e-23
1.9900503e-23
1.9931723e-23
1.9912672e-23
1.9902107e-23
1.9896539e-23
1.9893854e-23
1.9892786e-23
1.9892698e-23
1.9893452e-23
1.9895379e-23
1.9899469e-23
1.9931552e-23
1.9912522e-23
1.9901982e-23
1.9896432e-23
1.9893759e-23
1.9892698e-23
1.9892615e-23
1.9893373e-23
1.9895305e-23
1.9899399e-23
1.9932138e-23
1.9913163e-23
1.9902675e-23
1.9897159e-23
1.9894504e-23
1.9893452e-23
1.9893373e-23
1.9894135e-23
1.9896069e-23
1.9900165e-23
1.9933729e-23
1.9914904e-23
1.9904516e-23
1.9899052e-23
1.9896421e-23
1.9895379e-23
1.9895305e-23
1.9896069e-23
1.9898006e-23
1.9902105e-23
1.9937145e-23
1.9918764e-23
1.9908524e-23
1.9903114e-23
1.9900503e-23
1.9899469e-23
1.9899399e-23
1.9900165e-23
1.9902105e-23
1.9906216e-23
4.1231162e-23
4.1192963e-23
4.1171695e-23
4.1160444e-23
4.1154985e-23
4.1152748e-23
4.11524e-23
4.1153562e-23
4.1156704e-23
4.1163392e-23
4.1192963e-23
4.1154909e-23
4.1133694e-23
4.1122467e-23
4.1117023e-23
4.1114806e-23
4.1114502e-23
4.1115777e-23
4.1119226e-23
4.1126822e-23
4.1171695e-23
4.1133694e-23
4.1112512e-23
4.1101304e-23
4.1095876e-23
4.1093684e-23
4.1093431e-23
4.1094812e-23
4.1098465e-23
4.1106364e-23
4.1160444e-23
4.1122467e-23
4.1101304e-23
4.1090111e-23
4.1084696e-23
4.1082524e-23
4.1082309e-23
4.1083758e-23
4.1087517e-23
4.1095526e-23
4.1154985e-23
4.1117023e-23
4.1095876e-23
4.1084696e-23
4.1079294e-23
4.1077136e-23
4.1076944e-23
4.1078431e-23
4.1082239e-23
4.1090289e-23
4.1152748e-23
4.1114806e-23
4.1093684e-23
4.1082524e-23
4.1077136e-23
4.1074991e-23
4.1074813e-23
4.1076317e-23
4.1080147e-23
4.1088214e-23
4.11524e-23
4.1114502e-23
4.1093431e-23
4.1082309e-23
4.1076944e-23
4.1074813e-23
4.1074644e-23
4.1076158e-23
4.1079997e-23
4.1088071e-23
4.1153562e-23
4.1115777e-23
4.1094812e-23
4.1083758e-23
4.1078431e-23
4.1076317e-23
4.1076158e-23
4.1077679e-23
4.1081523e-23
4.1089601e-23
4.1156704e-23
4.1119226e-23
4.1098465e-23
4.1087517e-23
4.1082239e-23
4.1080147e-23
4.1079997e-23
4.1081523e-23
4.1085372e-23
4.1093457e-23
4.1163392e-23
4.1126822e-23
4.1106364e-23
4.1095526e-23
4.1090289e-23
4.1088214e-23
4.1088071e-23
4.1089601e-23
4.1093457e-23
4.1101564e-23
8.6106461e-23
8.6029545e-23
8.5986559e-23
8.5963765e-23
8.5952687e-23
8.5948142e-23
8.5947427e-23
8.5949759e-23
8.5956037e-23
8.5969274e-23
8.6029545e-23
8.595292e-23
8.591004e-23
8.5887292e-23
8.5876244e-23
8.5871741e-23
8.5871118e-23
8.5873683e-23
8.5880595e-23
8.5895711e-23
8.5986559e-23
8.591004e-23
8.5867225e-23
8.5844516e-23
8.5833501e-23
8.5829048e-23
8.582853e-23
8.5831314e-23
8.5838648e-23
8.585439e-23
8.5963765e-23
8.5887292e-23
8.5844516e-23
8.5821836e-23
8.5810849e-23
8.5806438e-23
8.5805997e-23
8.5808922e-23
8.5816474e-23
8.5832445e-23
8.5952687e-23
8.5876244e-23
8.5833501e-23
8.5810849e-23
8.5799888e-23
8.5795506e-23
8.5795114e-23
8.5798115e-23
8.5805768e-23
8.5821826e-23
8.5948142e-23
8.5871741e-23
8.5829048e-23
8.5806438e-23
8.5795506e-23
8.579115e-23
8.5790786e-23
8.5793824e-23
8.5801522e-23
8.5817613e-23
8.5947427e-23
8.5871118e-23
8.582853e-23
8.5805997e-23
8.5795114e-23
8.5790786e-23
8.5790441e-23
8.57935e-23
8.5801216e-23
8.5817322e-23
8.5949759e-23
8.5873683e-23
8.5831314e-23
8.5808922e-23
8.5798115e-23
8.5793824e-23
8.57935e-23
8.5796571e-23
8.5804298e-23
8.5820412e-23
8.5956037e-23
8.5880595e-23
8.5838648e-23
8.5816474e-23
8.5805768e-23
8.5801522e-23
8.5801216e-23
8.5804298e-23
8.5812036e-23
8.5828164e-23
8.5969274e-23
8.5895711e-23
8.585439e-23
8.5832445e-23
8.5821826e-23
8.5817613e-23
8.5817322e-23
8.5820412e-23
8.5828164e-23
8.5844335e-23
1.8190517e-22
1.8174858e-22
1.8166074e-22
1.8161405e-22
1.8159132e-22
1.8158199e-22
1.8158051e-22
1.8158524e-22
1.8159792e-22
1.8162442e-22
1.8174858e-22
1.8159258e-22
1.8150495e-22
1.8145836e-22
1.8143569e-22
1.8142644e-22
1.8142515e-22
1.8143037e-22
1.8144438e-22
1.8147481e-22
1.8166074e-22
1.8150495e-22
1.8141746e-22
1.8137094e-22
1.8134834e-22
1.813392e-22
1.8133813e-22
1.813438e-22
1.813587e-22
1.8139043e-22
1.8161405e-22
1.8145836e-22
1.8137094e-22
1.8132448e-22
1.8130194e-22
1.8129289e-22
1.8129198e-22
1.8129795e-22
1.8131329e-22
1.8134551e-22
1.8159132e-22
1.8143569e-22
1.8134834e-22
1.8130194e-22
1.8127946e-22
1.8127047e-22
1.8126965e-22
1.8127578e-22
1.8129134e-22
1.8132374e-22
1.8158199e-22
1.8142644e-22
1.813392e-22
1.8129289e-22
1.8127047e-22
1.8126152e-22
1.8126077e-22
1.8126698e-22
1.8128263e-22
1.813151e-22
1.8158051e-22
1.8142515e-22
1.8133813e-22
1.8129198e-22
1.8126965e-22
1.8126077e-22
1.8126006e-22
1.8126631e-22
1.81282e-22
1.813145e-22
1.8158524e-22
1.8143037e-22
1.813438e-22
1.8129795e-22
1.8127578e-22
1.8126698e-22
1.8126631e-22
1.8127259e-22
1.812883e-22
1.8132081e-22
1.8159792e-22
1.8144438e-22
1.813587e-22
1.8131329e-22
1.8129134e-22
1.8128263e-22
1.81282e-22
1.812883e-22
1.8130403e-22
1.8133657e-22
1.8162442e-22
1.8147481e-22
1.8139043e-22
1.8134551e-22
1.8132374e-22
1.813151e-22
1.813145e-22
1.8132081e-22
1.8133657e-22
1.813692e-22
3.8874458e-22
3.8842227e-22
3.8824079e-22
3.881441e-22
3.8809697e-22
3.8807759e-22
3.8807449e-22
3.880842e-22
3.8811012e-22
3.8816376e-22
3.8842227e-22
3.8810115e-22
3.879201e-22
3.878236e-22
3.877766e-22
3.877574e-22
3.8775471e-22
3.8776544e-22
3.8779417e-22
3.8785613e-22
3.8824079e-22
3.879201e-22
3.8773932e-22
3.8764299e-22
3.8759613e-22
3.8757715e-22
3.8757491e-22
3.8758662e-22
3.876172e-22
3.8768193e-22
3.881441e-22
3.878236e-22
3.8764299e-22
3.8754678e-22
3.8750004e-22
3.8748125e-22
3.8747935e-22
3.8749168e-22
3.8752322e-22
3.8758896e-22
3.8809697e-22
3.877766e-22
3.8759613e-22
3.8750004e-22
3.8745341e-22
3.8743475e-22
3.8743306e-22
3.8744572e-22
3.8747771e-22
3.8754383e-22
3.8807759e-22
3.877574e-22
3.8757715e-22
3.8748125e-22
3.8743475e-22
3.874162e-22
3.8741463e-22
3.8742746e-22
3.8745964e-22
3.8752591e-22
3.8807449e-22
3.8775471e-22
3.8757491e-22
3.8747935e-22
3.8743306e-22
3.8741463e-22
3.8741316e-22
3.8742607e-22
3.8745834e-22
3.8752467e-22
3.880842e-22
3.8776544e-22
3.8758662e-22
3.8749168e-22
3.8744572e-22
3.8742746e-22
3.8742607e-22
3.8743904e-22
3.8747136e-22
3.8753772e-22
3.8811012e-22
3.8779417e-22
3.876172e-22
3.8752322e-22
3.8747771e-22
3.8745964e-22
3.8745834e-22
3.8747136e-22
3.8750372e-22
3.8757014e-22
3.8816376e-22
3.8785613e-22
3.8768193e-22
3.8758896e-22
3.8754383e-22
3.8752591e-22
3.8752467e-22
3.8753772e-22
3.8757014e-22
3.8763673e-22
8.4042761e-22
8.3975681e-22
8.3937773e-22
8.3917531e-22
8.3907649e-22
8.3903582e-22
8.3902926e-22
8.3904943e-22
8.39103e-22
8.3921283e-22
8.3975681e-22
8.3908847e-22
8.3871029e-22
8.3850826e-22
8.3840972e-22
8.3836943e-22
8.3836373e-22
8.3838609e-22
8.3844565e-22
8.3857326e-22
8.3937773e-22
8.3871029e-22
8.3833267e-22
8.3813098e-22
8.3803273e-22
8.3799292e-22
8.379882e-22
8.3801262e-22
8.3807615e-22
8.3820968e-22
8.3917531e-22
8.3850826e-22
8.3813098e-22
8.3792955e-22
8.3783156e-22
8.3779213e-22
8.3778814e-22
8.3781389e-22
8.3787947e-22
8.3801515e-22
8.3907649e-22
8.3840972e-22
8.3803273e-22
8.3783156e-22
8.377338e-22
8.3769465e-22
8.3769111e-22
8.3771757e-22
8.377841e-22
8.379206e-22
8.3903582e-22
8.3836943e-22
8.3799292e-22
8.3779213e-22
8.3769465e-22
8.3765573e-22
8.3765245e-22
8.3767927e-22
8.3774622e-22
8.3788304e-22
8.3902926e-22
8.3836373e-22
8.379882e-22
8.3778814e-22
8.3769111e-22
8.3765245e-22
8.3764937e-22
8.3767636e-22
8.3774349e-22
8.3788044e-22
8.3904943e-22
8.3838609e-22
8.3801262e-22
8.3781389e-22
8.3771757e-22
8.3767927e-22
8.3767636e-22
8.3770348e-22
8.3777071e-22
8.3790773e-22
8.39103e-22
8.3844565e-22
8.3807615e-22
8.3787947e-22
8.377841e-22
8.3774622e-22
8.3774349e-22
8.3777071e-22
8.3783803e-22
8.3797517e-22
8.3921283e-22
8.3857326e-22
8.3820968e-22
8.3801515e-22
8.379206e-22
8.3788304e-22
8.3788044e-22
8.3790773e-22
8.3797517e-22
8.3811266e-22
1.8380404e-21
1.8366289e-21
1.8358284e-21
1.8353999e-21
1.8351905e-21
1.8351042e-21
1.8350902e-21
1.8351325e-21
1.8352445e-21
1.8354719e-21
1.8366289e-21
1.8352225e-21
1.8344239e-21
1.8339962e-21
1.8337874e-21
1.8337019e-21
1.8336897e-21
1.8337368e-21
1.8338618e-21
1.8341276e-21
1.8358284e-21
1.8344239e-21
1.8336264e-21
1.8331995e-21
1.8329912e-21
1.8329068e-21
1.8328967e-21
1.8329483e-21
1.8330818e-21
1.8333604e-21
1.8353999e-21
1.8339962e-21
1.8331995e-21
1.8327731e-21
1.8325654e-21
1.8324818e-21
1.8324733e-21
1.8325277e-21
1.8326656e-21
1.832949e-21
1.8351905e-21
1.8337874e-21
1.8329912e-21
1.8325654e-21
1.8323582e-21
1.8322752e-21
1.8322677e-21
1.8323236e-21
1.8324636e-21
1.8327487e-21
1.8351042e-21
1.8337019e-21
1.8329068e-21
1.8324818e-21
1.8322752e-21
1.8321927e-21
1.8321857e-21
1.8322425e-21
1.8323833e-21
1.8326691e-21
1.8350902e-21
1.8336897e-21
1.8328967e-21
1.8324733e-21
1.8322677e-21
1.8321857e-21
1.8321792e-21
1.8322363e-21
1.8323776e-21
1.8326636e-21
1.8351325e-21
1.8337368e-21
1.8329483e-21
1.8325277e-21
1.8323236e-21
1.8322425e-21
1.8322363e-21
1.8322937e-21
1.8324352e-21
1.8327213e-21
1.8352445e-21
1.8338618e-21
1.8330818e-21
1.8326656e-21
1.8324636e-21
1.8323833e-21
1.8323776e-21
1.8324352e-21
1.8325768e-21
1.8328633e-21
1.8354719e-21
1.8341276e-21
1.8333604e-21
1.832949e-21
1.8327487e-21
1.8326691e-21
1.8326636e-21
1.8327213e-21
1.8328633e-21
1.8331504e-21
4.0665484e-21
4.0635454e-21
4.0618363e-21
4.0609196e-21
4.0604708e-21
4.0602857e-21
4.0602555e-21
4.0603455e-21
4.0605823e-21
4.0610586e-21
4.0635454e-21
4.0605533e-21
4.0588482e-21
4.0579331e-21
4.0574856e-21
4.0573023e-21
4.0572761e-21
4.0573764e-21
4.0576415e-21
4.0582018e-21
4.0618363e-21
4.0588482e-21
4.0571455e-21
4.056232e-21
4.0557858e-21
4.0556047e-21
4.0555831e-21
4.0556932e-21
4.0559769e-21
4.0565652e-21
4.0609196e-21
4.0579331e-21
4.056232e-21
4.0553197e-21
4.0548747e-21
4.0546954e-21
4.0546772e-21
4.0547935e-21
4.0550869e-21
4.0556853e-21
4.0604708e-21
4.0574856e-21
4.0557858e-21
4.0548747e-21
4.0544307e-21
4.0542528e-21
4.0542367e-21
4.0543563e-21
4.0546543e-21
4.0552565e-21
4.0602857e-21
4.0573023e-21
4.0556047e-21
4.0546954e-21
4.0542528e-21
4.0540759e-21
4.0540611e-21
4.0541824e-21
4.0544823e-21
4.055086e-21
4.0602555e-21
4.0572761e-21
4.0555831e-21
4.0546772e-21
4.0542367e-21
4.0540611e-21
4.0540472e-21
4.0541693e-21
4.0544701e-21
4.0550744e-21
4.0603455e-21
4.0573764e-21
4.0556932e-21
4.0547935e-21
4.0543563e-21
4.0541824e-21
4.0541693e-21
4.0542921e-21
4.0545932e-21
4.0551979e-21
4.0605823e-21
4.0576415e-21
4.0559769e-21
4.0550869e-21
4.0546543e-21
4.0544823e-21
4.0544701e-21
4.0545932e-21
4.0548948e-21
4.0555e-21
4.0610586e-21
4.0582018e-21
4.0565652e-21
4.0556853e-21
4.0552565e-21
4.055086e-21
4.0550744e-21
4.0551979e-21
4.0555e-21
4.0561067e-21
9.1013386e-21
9.0948797e-21
9.0911908e-21
9.0892078e-21
9.0882357e-21
9.0878346e-21
9.0877688e-21
9.0879621e-21
9.0884686e-21
9.0894772e-21
9.0948797e-21
9.0884439e-21
9.0847634e-21
9.0827841e-21
9.0818147e-21
9.0814174e-21
9.0813605e-21
9.0815767e-21
9.0821455e-21
9.0833399e-21
9.0911908e-21
9.0847634e-21
9.0810883e-21
9.0791122e-21
9.0781458e-21
9.0777534e-21
9.0777066e-21
9.0779442e-21
9.0785544e-21
9.0798104e-21
9.0892078e-21
9.0827841e-21
9.0791122e-21
9.0771388e-21
9.076175e-21
9.0757865e-21
9.0757473e-21
9.0759987e-21
9.0766301e-21
9.0779086e-21
9.0882357e-21
9.0818147e-21
9.0781458e-21
9.076175e-21
9.0752135e-21
9.0748279e-21
9.0747933e-21
9.0750521e-21
9.0756934e-21
9.0769805e-21
9.0878346e-21
9.0814174e-21
9.0777534e-21
9.0757865e-21
9.0748279e-21
9.0744448e-21
9.0744129e-21
9.0746754e-21
9.075321e-21
9.0766114e-21
9.0877688e-21
9.0813605e-21
9.0777066e-21
9.0757473e-21
9.0747933e-21
9.0744129e-21
9.074383e-21
9.0746474e-21
9.0752949e-21
9.0765866e-21
9.0879621e-21
9.0815767e-21
9.0779442e-21
9.0759987e-21
9.0750521e-21
9.0746754e-21
9.0746474e-21
9.0749129e-21
9.0755615e-21
9.0768539e-21
9.0884686e-21
9.0821455e-21
9.0785544e-21
9.0766301e-21
9.0756934e-21
9.075321e-21
9.0752949e-21
9.0755615e-21
9.0762109e-21
9.0775043e-21
9.0894772e-21
9.0833399e-21
9.0798104e-21
9.0779086e-21
9.0769805e-21
9.0766114e-21
9.0765866e-21
9.0768539e-21
9.0775043e-21
9.078801e-21
2.0605348e-20
2.0591304e-20
2.0583255e-20
2.0578919e-20
2.0576791e-20
2.0575912e-20
2.0575767e-20
2.0576188e-20
2.0577283e-20
2.0579444e-20
2.0591304e-20
2.0577309e-20
2.0569279e-20
2.0564951e-20
2.0562829e-20
2.0561958e-20
2.0561833e-20
2.0562305e-20
2.0563539e-20
2.0566115e-20
2.0583255e-20
2.0569279e-20
2.056126e-20
2.0556939e-20
2.0554823e-20
2.0553964e-20
2.0553861e-20
2.0554381e-20
2.0555707e-20
2.0558421e-20
2.0578919e-20
2.0564951e-20
2.0556939e-20
2.0552624e-20
2.0550514e-20
2.0549663e-20
2.0549578e-20
2.0550128e-20
2.0551502e-20
2.0554265e-20
2.0576791e-20
2.0562829e-20
2.0554823e-20
2.0550514e-20
2.0548409e-20
2.0547565e-20
2.054749e-20
2.0548056e-20
2.0549452e-20
2.0552235e-20
2.0575912e-20
2.0561958e-20
2.0553964e-20
2.0549663e-20
2.0547565e-20
2.0546726e-20
2.0546657e-20
2.0547231e-20
2.0548637e-20
2.0551427e-20
2.0575767e-20
2.0561833e-20
2.0553861e-20
2.0549578e-20
2.054749e-20
2.0546657e-20
2.0546592e-20
2.0547171e-20
2.0548581e-20
2.0551374e-20
2.0576188e-20
2.0562305e-20
2.0554381e-20
2.0550128e-20
2.0548056e-20
2.0547231e-20
2.0547171e-20
2.0547752e-20
2.0549165e-20
2.0551959e-20
2.0577283e-20
2.0563539e-20
2.0555707e-20
2.0551502e-20
2.0549452e-20
2.0548637e-20
2.0548581e-20
2.0549165e-20
2.0550579e-20
2.0553375e-20
2.0579444e-20
2.0566115e-20
2.0558421e-20
2.0554265e-20
2.0552235e-20
2.0551427e-20
2.0551374e-20
2.0551959e-20
2.0553375e-20
2.0556179e-20
4.7187961e-20
4.7157091e-20
4.713934e-20
4.7129757e-20
4.7125048e-20
4.7123101e-20
4.712278e-20
4.7123704e-20
4.71261e-20
4.713078e-20
4.7157091e-20
4.7126329e-20
4.7108618e-20
4.7099053e-20
4.7094356e-20
4.7092429e-20
4.7092152e-20
4.7093191e-20
4.7095902e-20
4.7101518e-20
4.713934e-20
4.7108618e-20
4.7090932e-20
4.7081383e-20
4.70767e-20
4.7074797e-20
4.7074571e-20
4.7075718e-20
4.7078637e-20
4.7084565e-20
4.7129757e-20
4.7099053e-20
4.7081383e-20
4.7071846e-20
4.7067176e-20
4.7065293e-20
4.7065105e-20
4.7066321e-20
4.7069347e-20
4.7075388e-20
4.7125048e-20
4.7094356e-20
4.70767e-20
4.7067176e-20
4.7062518e-20
4.706065e-20
4.7060485e-20
4.7061738e-20
4.7064814e-20
4.7070898e-20
4.7123101e-20
4.7092429e-20
4.7074797e-20
4.7065293e-20
4.706065e-20
4.7058793e-20
4.7058642e-20
4.7059914e-20
4.7063011e-20
4.7069112e-20
4.712278e-20
4.7092152e-20
4.7074571e-20
4.7065105e-20
4.7060485e-20
4.7058642e-20
4.7058501e-20
4.7059782e-20
4.7062889e-20
4.7068996e-20
4.7123704e-20
4.7093191e-20
4.7075718e-20
4.7066321e-20
4.7061738e-20
4.7059914e-20
4.7059782e-20
4.706107e-20
4.7064181e-20
4.7070292e-20
4.71261e-20
4.7095902e-20
4.7078637e-20
4.7069347e-20
4.7064814e-20
4.7063011e-20
4.7062889e-20
4.7064181e-20
4.7067297e-20
4.7073412e-20
4.713078e-20
4.7101518e-20
4.7084565e-20
4.7075388e-20
4.7070898e-20