/*--------------------------------*- C++ -*----------------------------------*\
| =========                 |                                                 |
| \\      /  F ield         | OpenFOAM: The Open Source CFD Toolbox           |
|  \\    /   O peration     | Version:  dev                                   |
|   \\  /    A nd           | Web:      www.OpenFOAM.org                      |
|    \\/     M anipulation  |                                                 |
\*---------------------------------------------------------------------------*/
FoamFile
{
    version     2.0;
    format      ascii;
    class       volScalarField;
    location    "46.995";
    object      A;
}
// * * * * * * * * * * * * * * * * * * * * * * * * * * * * * * * * * * * * * //

dimensions      [0 0 0 0 1 0 0];

internalField   nonuniform List<scalar> 
10000
(
3.5987705e-34
3.5907792e-34
3.5879367e-34
3.5870549e-34
3.5868206e-34
3.5867693e-34
3.5867799e-34
3.5868728e-34
3.5872105e-34
3.5881824e-34
3.5907792e-34
3.5828333e-34
3.5800037e-34
3.5791257e-34
3.5788925e-34
3.5788419e-34
3.5788549e-34
3.5789579e-34
3.5793339e-34
3.5804391e-34
3.5879367e-34
3.5800037e-34
3.5771797e-34
3.5763034e-34
3.5760708e-34
3.5760207e-34
3.5760355e-34
3.5761452e-34
3.5765405e-34
3.5776832e-34
3.5870549e-34
3.5791257e-34
3.5763034e-34
3.5754278e-34
3.5751954e-34
3.5751456e-34
3.5751613e-34
3.5752736e-34
3.5756754e-34
3.5768279e-34
3.5868206e-34
3.5788925e-34
3.5760708e-34
3.5751954e-34
3.5749631e-34
3.5749134e-34
3.5749293e-34
3.5750424e-34
3.575446e-34
3.5766008e-34
3.5867693e-34
3.5788419e-34
3.5760207e-34
3.5751456e-34
3.5749134e-34
3.5748638e-34
3.5748798e-34
3.5749931e-34
3.5753972e-34
3.5765524e-34
3.5867799e-34
3.5788549e-34
3.5760355e-34
3.5751613e-34
3.5749293e-34
3.5748798e-34
3.5748959e-34
3.5750093e-34
3.5754135e-34
3.5765689e-34
3.5868728e-34
3.5789579e-34
3.5761452e-34
3.5752736e-34
3.5750424e-34
3.5749931e-34
3.5750093e-34
3.5751228e-34
3.5755271e-34
3.5766827e-34
3.5872105e-34
3.5793339e-34
3.5765405e-34
3.5756754e-34
3.575446e-34
3.5753972e-34
3.5754135e-34
3.5755271e-34
3.5759317e-34
3.5770883e-34
3.5881824e-34
3.5804391e-34
3.5776832e-34
3.5768279e-34
3.5766008e-34
3.5765524e-34
3.5765689e-34
3.5766827e-34
3.5770883e-34
3.5782484e-34
1.3226131e-33
1.319787e-33
1.3187574e-33
1.3184374e-33
1.3183523e-33
1.3183337e-33
1.3183375e-33
1.318371e-33
1.3184931e-33
1.3188603e-33
1.319787e-33
1.3169767e-33
1.3159517e-33
1.315633e-33
1.3155483e-33
1.3155299e-33
1.3155346e-33
1.3155718e-33
1.315708e-33
1.3161243e-33
1.3187574e-33
1.3159517e-33
1.3149288e-33
1.3146107e-33
1.3145262e-33
1.314508e-33
1.3145133e-33
1.314553e-33
1.3146963e-33
1.3151263e-33
1.3184374e-33
1.315633e-33
1.3146107e-33
1.3142929e-33
1.3142084e-33
1.3141903e-33
1.314196e-33
1.3142366e-33
1.3143823e-33
1.3148159e-33
1.3183523e-33
1.3155483e-33
1.3145262e-33
1.3142084e-33
1.314124e-33
1.314106e-33
1.3141117e-33
1.3141527e-33
1.314299e-33
1.3147335e-33
1.3183337e-33
1.3155299e-33
1.314508e-33
1.3141903e-33
1.314106e-33
1.314088e-33
1.3140937e-33
1.3141347e-33
1.3142812e-33
1.3147159e-33
1.3183375e-33
1.3155346e-33
1.3145133e-33
1.314196e-33
1.3141117e-33
1.3140937e-33
1.3140996e-33
1.3141406e-33
1.3142871e-33
1.3147218e-33
1.318371e-33
1.3155718e-33
1.314553e-33
1.3142366e-33
1.3141527e-33
1.3141347e-33
1.3141406e-33
1.3141816e-33
1.3143282e-33
1.314763e-33
1.3184931e-33
1.315708e-33
1.3146963e-33
1.3143823e-33
1.314299e-33
1.3142812e-33
1.3142871e-33
1.3143282e-33
1.3144749e-33
1.31491e-33
1.3188603e-33
1.3161243e-33
1.3151263e-33
1.3148159e-33
1.3147335e-33
1.3147159e-33
1.3147218e-33
1.314763e-33
1.31491e-33
1.3153466e-33
3.2093339e-33
3.2026974e-33
3.2002569e-33
3.1994967e-33
3.1992944e-33
3.19925e-33
3.1992587e-33
3.1993375e-33
3.1996249e-33
3.2005158e-33
3.2026974e-33
3.1960972e-33
3.1936675e-33
3.1929104e-33
3.192709e-33
3.1926652e-33
3.1926761e-33
3.1927638e-33
3.1930852e-33
3.1940949e-33
3.2002569e-33
3.1936675e-33
3.1912425e-33
3.1904869e-33
3.190286e-33
3.1902426e-33
3.1902552e-33
3.1903488e-33
3.1906872e-33
3.1917302e-33
3.1994967e-33
3.1929104e-33
3.1904869e-33
3.1897319e-33
3.1895312e-33
3.1894881e-33
3.1895013e-33
3.1895972e-33
3.1899415e-33
3.1909931e-33
3.1992944e-33
3.192709e-33
3.190286e-33
3.1895312e-33
3.1893305e-33
3.1892875e-33
3.189301e-33
3.1893976e-33
3.1897434e-33
3.1907971e-33
3.19925e-33
3.1926652e-33
3.1902426e-33
3.1894881e-33
3.1892875e-33
3.1892445e-33
3.1892582e-33
3.189355e-33
3.1897012e-33
3.1907552e-33
3.1992587e-33
3.1926761e-33
3.1902552e-33
3.1895013e-33
3.189301e-33
3.1892582e-33
3.1892718e-33
3.1893687e-33
3.189715e-33
3.1907692e-33
3.1993375e-33
3.1927638e-33
3.1903488e-33
3.1895972e-33
3.1893976e-33
3.189355e-33
3.1893687e-33
3.1894656e-33
3.189812e-33
3.1908664e-33
3.1996249e-33
3.1930852e-33
3.1906872e-33
3.1899415e-33
3.1897434e-33
3.1897012e-33
3.189715e-33
3.189812e-33
3.1901588e-33
3.1912139e-33
3.2005158e-33
3.1940949e-33
3.1917302e-33
3.1909931e-33
3.1907971e-33
3.1907552e-33
3.1907692e-33
3.1908664e-33
3.1912139e-33
3.1922726e-33
7.4118904e-33
7.3970497e-33
7.3915665e-33
7.3898555e-33
7.3893996e-33
7.3892992e-33
7.3893184e-33
7.3894934e-33
7.3901308e-33
7.3921155e-33
7.3970497e-33
7.3822893e-33
7.3768302e-33
7.375126e-33
7.3746719e-33
7.374573e-33
7.3745971e-33
7.3747926e-33
7.375508e-33
7.3777663e-33
7.3915665e-33
7.3768302e-33
7.3713814e-33
7.3696805e-33
7.3692275e-33
7.3691297e-33
7.3691576e-33
7.3693665e-33
7.370121e-33
7.3724557e-33
7.3898555e-33
7.375126e-33
7.3696805e-33
7.3679809e-33
7.3675284e-33
7.3674311e-33
7.3674606e-33
7.3676749e-33
7.3684427e-33
7.3707972e-33
7.3893996e-33
7.3746719e-33
7.3692275e-33
7.3675284e-33
7.3670761e-33
7.366979e-33
7.3670091e-33
7.3672251e-33
7.3679965e-33
7.3703556e-33
7.3892992e-33
7.374573e-33
7.3691297e-33
7.3674311e-33
7.366979e-33
7.3668821e-33
7.3669124e-33
7.3671288e-33
7.367901e-33
7.3702612e-33
7.3893184e-33
7.3745971e-33
7.3691576e-33
7.3674606e-33
7.3670091e-33
7.3669124e-33
7.3669428e-33
7.3671594e-33
7.3679319e-33
7.3702923e-33
7.3894934e-33
7.3747926e-33
7.3693665e-33
7.3676749e-33
7.3672251e-33
7.3671288e-33
7.3671594e-33
7.367376e-33
7.3681488e-33
7.3705096e-33
7.3901308e-33
7.375508e-33
7.370121e-33
7.3684427e-33
7.3679965e-33
7.367901e-33
7.3679319e-33
7.3681488e-33
7.3689223e-33
7.3712849e-33
7.3921155e-33
7.3777663e-33
7.3724557e-33
7.3707972e-33
7.3703556e-33
7.3702612e-33
7.3702923e-33
7.3705096e-33
7.3712849e-33
7.3736552e-33
1.7150772e-32
1.7117528e-32
1.7105206e-32
1.7101354e-32
1.7100327e-32
1.71001e-32
1.7100142e-32
1.710053e-32
1.710194e-32
1.7106313e-32
1.7117528e-32
1.7084463e-32
1.7072193e-32
1.7068356e-32
1.7067333e-32
1.706711e-32
1.7067163e-32
1.7067598e-32
1.7069188e-32
1.7074191e-32
1.7105206e-32
1.7072193e-32
1.7059947e-32
1.7056118e-32
1.7055097e-32
1.7054876e-32
1.7054938e-32
1.7055404e-32
1.7057083e-32
1.7062262e-32
1.7101354e-32
1.7068356e-32
1.7056118e-32
1.7052291e-32
1.7051271e-32
1.7051051e-32
1.7051117e-32
1.7051596e-32
1.7053306e-32
1.705853e-32
1.7100327e-32
1.7067333e-32
1.7055097e-32
1.7051271e-32
1.7050252e-32
1.7050032e-32
1.7050099e-32
1.7050582e-32
1.70523e-32
1.7057535e-32
1.71001e-32
1.706711e-32
1.7054876e-32
1.7051051e-32
1.7050032e-32
1.7049814e-32
1.7049881e-32
1.7050364e-32
1.7052085e-32
1.7057322e-32
1.7100142e-32
1.7067163e-32
1.7054938e-32
1.7051117e-32
1.7050099e-32
1.7049881e-32
1.7049949e-32
1.7050433e-32
1.7052153e-32
1.7057391e-32
1.710053e-32
1.7067598e-32
1.7055404e-32
1.7051596e-32
1.7050582e-32
1.7050364e-32
1.7050433e-32
1.7050917e-32
1.7052638e-32
1.7057877e-32
1.710194e-32
1.7069188e-32
1.7057083e-32
1.7053306e-32
1.70523e-32
1.7052085e-32
1.7052153e-32
1.7052638e-32
1.7054361e-32
1.7059603e-32
1.7106313e-32
1.7074191e-32
1.7062262e-32
1.705853e-32
1.7057535e-32
1.7057322e-32
1.7057391e-32
1.7057877e-32
1.7059603e-32
1.7064863e-32
4.0149894e-32
4.0074584e-32
4.004659e-32
4.0037825e-32
4.0035484e-32
4.0034966e-32
4.0035059e-32
4.003593e-32
4.003908e-32
4.0048787e-32
4.0074584e-32
3.9999673e-32
3.9971797e-32
3.9963066e-32
3.9960734e-32
3.9960225e-32
3.9960343e-32
3.9961324e-32
3.9964891e-32
3.9976066e-32
4.004659e-32
3.9971797e-32
3.9943974e-32
3.9935259e-32
3.9932933e-32
3.9932429e-32
3.9932568e-32
3.993362e-32
3.9937396e-32
3.994898e-32
4.0037825e-32
3.9963066e-32
3.9935259e-32
3.9926551e-32
3.9924227e-32
3.9923726e-32
3.9923874e-32
3.9924954e-32
3.9928802e-32
3.9940491e-32
4.0035484e-32
3.9960734e-32
3.9932933e-32
3.9924227e-32
3.9921905e-32
3.9921404e-32
3.9921555e-32
3.9922645e-32
3.9926511e-32
3.9938226e-32
4.0034966e-32
3.9960225e-32
3.9932429e-32
3.9923726e-32
3.9921404e-32
3.9920905e-32
3.9921057e-32
3.9922149e-32
3.992602e-32
3.9937739e-32
4.0035059e-32
3.9960343e-32
3.9932568e-32
3.9923874e-32
3.9921555e-32
3.9921057e-32
3.9921209e-32
3.9922302e-32
3.9926174e-32
3.9937895e-32
4.003593e-32
3.9961324e-32
3.993362e-32
3.9924954e-32
3.9922645e-32
3.9922149e-32
3.9922302e-32
3.9923395e-32
3.9927269e-32
3.9938992e-32
4.003908e-32
3.9964891e-32
3.9937396e-32
3.9928802e-32
3.9926511e-32
3.992602e-32
3.9926174e-32
3.9927269e-32
3.9931146e-32
3.9942878e-32
4.0048787e-32
3.9976066e-32
3.994898e-32
3.9940491e-32
3.9938226e-32
3.9937739e-32
3.9937895e-32
3.9938992e-32
3.9942878e-32
3.9954647e-32
9.5271272e-32
9.5098413e-32
9.5033984e-32
9.501378e-32
9.5008376e-32
9.500718e-32
9.5007387e-32
9.5009366e-32
9.5016494e-32
9.5038307e-32
9.5098413e-32
9.492646e-32
9.4862301e-32
9.4842173e-32
9.4836791e-32
9.4835612e-32
9.4835881e-32
9.4838118e-32
9.484623e-32
9.4871505e-32
9.5033984e-32
9.4862301e-32
9.4798259e-32
9.477817e-32
9.4772801e-32
9.4771635e-32
9.4771951e-32
9.4774357e-32
9.4782961e-32
9.48092e-32
9.501378e-32
9.4842173e-32
9.477817e-32
9.4758094e-32
9.4752731e-32
9.4751572e-32
9.4751908e-32
9.4754381e-32
9.4763152e-32
9.4789642e-32
9.5008376e-32
9.4836791e-32
9.4772801e-32
9.4752731e-32
9.474737e-32
9.4746213e-32
9.4746558e-32
9.4749051e-32
9.4757867e-32
9.4784415e-32
9.500718e-32
9.4835612e-32
9.4771635e-32
9.4751572e-32
9.4746213e-32
9.4745059e-32
9.4745406e-32
9.4747905e-32
9.4756732e-32
9.4783292e-32
9.5007387e-32
9.4835881e-32
9.4771951e-32
9.4751908e-32
9.4746558e-32
9.4745406e-32
9.4745754e-32
9.4748254e-32
9.4757084e-32
9.4783648e-32
9.5009366e-32
9.4838118e-32
9.4774357e-32
9.4754381e-32
9.4749051e-32
9.4747905e-32
9.4748254e-32
9.4750757e-32
9.475959e-32
9.4786158e-32
9.5016494e-32
9.484623e-32
9.4782961e-32
9.4763152e-32
9.4757867e-32
9.4756732e-32
9.4757084e-32
9.475959e-32
9.476843e-32
9.4795017e-32
9.5038307e-32
9.4871505e-32
9.48092e-32
9.4789642e-32
9.4784415e-32
9.4783292e-32
9.4783648e-32
9.4786158e-32
9.4795017e-32
9.4821689e-32
2.2924465e-31
2.2884248e-31
2.2869219e-31
2.2864499e-31
2.2863235e-31
2.2862954e-31
2.2863001e-31
2.2863457e-31
2.2865092e-31
2.287006e-31
2.2884248e-31
2.2844241e-31
2.2829274e-31
2.2824571e-31
2.2823312e-31
2.2823035e-31
2.2823097e-31
2.2823615e-31
2.2825485e-31
2.283128e-31
2.2869219e-31
2.2829274e-31
2.2814333e-31
2.2809639e-31
2.2808383e-31
2.280811e-31
2.2808183e-31
2.2808741e-31
2.2810728e-31
2.2816754e-31
2.2864499e-31
2.2824571e-31
2.2809639e-31
2.2804949e-31
2.2803694e-31
2.2803422e-31
2.28035e-31
2.2804074e-31
2.2806101e-31
2.2812187e-31
2.2863235e-31
2.2823312e-31
2.2808383e-31
2.2803694e-31
2.280244e-31
2.2802169e-31
2.2802249e-31
2.2802827e-31
2.2804865e-31
2.2810965e-31
2.2862954e-31
2.2823035e-31
2.280811e-31
2.2803422e-31
2.2802169e-31
2.2801899e-31
2.2801979e-31
2.2802559e-31
2.2804599e-31
2.2810702e-31
2.2863001e-31
2.2823097e-31
2.2808183e-31
2.28035e-31
2.2802249e-31
2.2801979e-31
2.2802059e-31
2.280264e-31
2.2804681e-31
2.2810784e-31
2.2863457e-31
2.2823615e-31
2.2808741e-31
2.2804074e-31
2.2802827e-31
2.2802559e-31
2.280264e-31
2.280322e-31
2.2805262e-31
2.2811367e-31
2.2865092e-31
2.2825485e-31
2.2810728e-31
2.2806101e-31
2.2804865e-31
2.2804599e-31
2.2804681e-31
2.2805262e-31
2.2807306e-31
2.2813415e-31
2.287006e-31
2.283128e-31
2.2816754e-31
2.2812187e-31
2.2810965e-31
2.2810702e-31
2.2810784e-31
2.2811367e-31
2.2813415e-31
2.2819543e-31
5.5944246e-31
5.5849395e-31
5.5813857e-31
5.5802677e-31
5.5799681e-31
5.5799015e-31
5.5799123e-31
5.5800187e-31
5.580399e-31
5.5815459e-31
5.5849395e-31
5.5755032e-31
5.5719638e-31
5.57085e-31
5.5705515e-31
5.5704859e-31
5.5705002e-31
5.5706216e-31
5.5710588e-31
5.5724063e-31
5.5813857e-31
5.5719638e-31
5.5684307e-31
5.567319e-31
5.5670212e-31
5.5669563e-31
5.5669734e-31
5.5671045e-31
5.5675701e-31
5.5689734e-31
5.5802677e-31
5.57085e-31
5.567319e-31
5.566208e-31
5.5659105e-31
5.565846e-31
5.5658643e-31
5.5659992e-31
5.5664745e-31
5.5678923e-31
5.5799681e-31
5.5705515e-31
5.5670212e-31
5.5659105e-31
5.5656132e-31
5.5655489e-31
5.5655675e-31
5.5657037e-31
5.5661815e-31
5.5676027e-31
5.5799015e-31
5.5704859e-31
5.5669563e-31
5.565846e-31
5.5655489e-31
5.5654846e-31
5.5655035e-31
5.5656399e-31
5.5661184e-31
5.5675403e-31
5.5799123e-31
5.5705002e-31
5.5669734e-31
5.5658643e-31
5.5655675e-31
5.5655035e-31
5.5655224e-31
5.5656589e-31
5.5661376e-31
5.5675597e-31
5.5800187e-31
5.5706216e-31
5.5671045e-31
5.5659992e-31
5.5657037e-31
5.5656399e-31
5.5656589e-31
5.5657956e-31
5.5662744e-31
5.5676967e-31
5.580399e-31
5.5710588e-31
5.5675701e-31
5.5664745e-31
5.5661815e-31
5.5661184e-31
5.5661376e-31
5.5662744e-31
5.5667536e-31
5.5681769e-31
5.5815459e-31
5.5724063e-31
5.5689734e-31
5.5678923e-31
5.5676027e-31
5.5675403e-31
5.5675597e-31
5.5676967e-31
5.5681769e-31
5.5696047e-31
1.3847288e-30
1.3824609e-30
1.381609e-30
1.3813406e-30
1.3812685e-30
1.3812525e-30
1.381255e-30
1.3812802e-30
1.3813699e-30
1.3816384e-30
1.3824609e-30
1.3802045e-30
1.379356e-30
1.3790885e-30
1.3790168e-30
1.379001e-30
1.3790044e-30
1.3790333e-30
1.3791369e-30
1.3794547e-30
1.381609e-30
1.379356e-30
1.378509e-30
1.378242e-30
1.3781705e-30
1.3781549e-30
1.3781589e-30
1.3781902e-30
1.3783008e-30
1.3786323e-30
1.3813406e-30
1.3790885e-30
1.378242e-30
1.3779753e-30
1.3779038e-30
1.3778883e-30
1.3778926e-30
1.3779248e-30
1.3780378e-30
1.3783728e-30
1.3812685e-30
1.3790168e-30
1.3781705e-30
1.3779038e-30
1.3778323e-30
1.3778168e-30
1.3778213e-30
1.3778538e-30
1.3779674e-30
1.3783033e-30
1.3812525e-30
1.379001e-30
1.3781549e-30
1.3778883e-30
1.3778168e-30
1.3778014e-30
1.3778059e-30
1.3778384e-30
1.3779522e-30
1.3782883e-30
1.381255e-30
1.3790044e-30
1.3781589e-30
1.3778926e-30
1.3778213e-30
1.3778059e-30
1.3778104e-30
1.377843e-30
1.3779568e-30
1.3782929e-30
1.3812802e-30
1.3790333e-30
1.3781902e-30
1.3779248e-30
1.3778538e-30
1.3778384e-30
1.377843e-30
1.3778756e-30
1.3779894e-30
1.3783256e-30
1.3813699e-30
1.3791369e-30
1.3783008e-30
1.3780378e-30
1.3779674e-30
1.3779522e-30
1.3779568e-30
1.3779894e-30
1.3781034e-30
1.3784398e-30
1.3816384e-30
1.3794547e-30
1.3786323e-30
1.3783728e-30
1.3783033e-30
1.3782883e-30
1.3782929e-30
1.3783256e-30
1.3784398e-30
1.3787771e-30
3.4765917e-30
3.4710939e-30
3.4690234e-30
3.4683702e-30
3.4681947e-30
3.4681556e-30
3.4681615e-30
3.4682221e-30
3.4684366e-30
3.4690739e-30
3.4710939e-30
3.4656236e-30
3.4635614e-30
3.4629105e-30
3.4627357e-30
3.4626971e-30
3.4627052e-30
3.4627749e-30
3.4630241e-30
3.4637842e-30
3.4690234e-30
3.4635614e-30
3.4615028e-30
3.4608531e-30
3.4606787e-30
3.4606406e-30
3.4606503e-30
3.4607259e-30
3.4609925e-30
3.4617867e-30
3.4683702e-30
3.4629105e-30
3.4608531e-30
3.4602038e-30
3.4600296e-30
3.4599917e-30
3.4600022e-30
3.4600801e-30
3.4603526e-30
3.4611556e-30
3.4681947e-30
3.4627357e-30
3.4606787e-30
3.4600296e-30
3.4598555e-30
3.4598177e-30
3.4598284e-30
3.4599071e-30
3.4601811e-30
3.4609862e-30
3.4681556e-30
3.4626971e-30
3.4606406e-30
3.4599917e-30
3.4598177e-30
3.45978e-30
3.4597908e-30
3.4598696e-30
3.4601441e-30
3.4609496e-30
3.4681615e-30
3.4627052e-30
3.4606503e-30
3.4600022e-30
3.4598284e-30
3.4597908e-30
3.4598017e-30
3.4598806e-30
3.4601551e-30
3.4609607e-30
3.4682221e-30
3.4627749e-30
3.4607259e-30
3.4600801e-30
3.4599071e-30
3.4598696e-30
3.4598806e-30
3.4599595e-30
3.4602342e-30
3.4610399e-30
3.4684366e-30
3.4630241e-30
3.4609925e-30
3.4603526e-30
3.4601811e-30
3.4601441e-30
3.4601551e-30
3.4602342e-30
3.460509e-30
3.4613153e-30
3.4690739e-30
3.4637842e-30
3.4617867e-30
3.4611556e-30
3.4609862e-30
3.4609496e-30
3.4609607e-30
3.4610399e-30
3.4613153e-30
3.462124e-30
8.8540963e-30
8.8405833e-30
8.835482e-30
8.8338701e-30
8.8334367e-30
8.8333398e-30
8.833354e-30
8.8335015e-30
8.8340217e-30
8.8355557e-30
8.8405833e-30
8.8271376e-30
8.8220562e-30
8.8204499e-30
8.8200181e-30
8.8199227e-30
8.8199424e-30
8.8201128e-30
8.8207207e-30
8.8225646e-30
8.835482e-30
8.8220562e-30
8.8169836e-30
8.8153802e-30
8.8149494e-30
8.8148552e-30
8.814879e-30
8.8150643e-30
8.815716e-30
8.8176461e-30
8.8338701e-30
8.8204499e-30
8.8153802e-30
8.813778e-30
8.8133476e-30
8.813254e-30
8.8132796e-30
8.8134709e-30
8.8141374e-30
8.8160898e-30
8.8334367e-30
8.8200181e-30
8.8149494e-30
8.8133476e-30
8.8129174e-30
8.812824e-30
8.8128503e-30
8.8130434e-30
8.8137139e-30
8.8156715e-30
8.8333398e-30
8.8199227e-30
8.8148552e-30
8.813254e-30
8.812824e-30
8.8127307e-30
8.8127573e-30
8.8129509e-30
8.8136223e-30
8.815581e-30
8.833354e-30
8.8199424e-30
8.814879e-30
8.8132796e-30
8.8128503e-30
8.8127573e-30
8.8127839e-30
8.8129777e-30
8.8136494e-30
8.8156084e-30
8.8335015e-30
8.8201128e-30
8.8150643e-30
8.8134709e-30
8.8130434e-30
8.8129509e-30
8.8129777e-30
8.8131716e-30
8.8138435e-30
8.8158028e-30
8.8340217e-30
8.8207207e-30
8.815716e-30
8.8141374e-30
8.8137139e-30
8.8136223e-30
8.8136494e-30
8.8138435e-30
8.8145159e-30
8.8164765e-30
8.8355557e-30
8.8225646e-30
8.8176461e-30
8.8160898e-30
8.8156715e-30
8.815581e-30
8.8156084e-30
8.8158028e-30
8.8164765e-30
8.8184429e-30
2.2874623e-29
2.2840948e-29
2.2828204e-29
2.2824172e-29
2.2823086e-29
2.2822843e-29
2.2822878e-29
2.2823242e-29
2.2824522e-29
2.2828266e-29
2.2840948e-29
2.2807439e-29
2.2794744e-29
2.2790725e-29
2.2789644e-29
2.2789405e-29
2.2789453e-29
2.2789876e-29
2.279138e-29
2.2795918e-29
2.2828204e-29
2.2794744e-29
2.2782071e-29
2.277806e-29
2.2776981e-29
2.2776745e-29
2.2776804e-29
2.2777265e-29
2.2778881e-29
2.2783639e-29
2.2824172e-29
2.2790725e-29
2.277806e-29
2.2774051e-29
2.2772973e-29
2.2772739e-29
2.2772802e-29
2.2773279e-29
2.2774932e-29
2.2779748e-29
2.2823086e-29
2.2789644e-29
2.2776981e-29
2.2772973e-29
2.2771896e-29
2.2771662e-29
2.2771727e-29
2.2772208e-29
2.2773872e-29
2.2778701e-29
2.2822843e-29
2.2789405e-29
2.2776745e-29
2.2772739e-29
2.2771662e-29
2.2771428e-29
2.2771494e-29
2.2771976e-29
2.2773643e-29
2.2778474e-29
2.2822878e-29
2.2789453e-29
2.2776804e-29
2.2772802e-29
2.2771727e-29
2.2771494e-29
2.277156e-29
2.2772043e-29
2.277371e-29
2.2778542e-29
2.2823242e-29
2.2789876e-29
2.2777265e-29
2.2773279e-29
2.2772208e-29
2.2771976e-29
2.2772043e-29
2.2772526e-29
2.2774193e-29
2.2779027e-29
2.2824522e-29
2.279138e-29
2.2778881e-29
2.2774932e-29
2.2773872e-29
2.2773643e-29
2.277371e-29
2.2774193e-29
2.2775862e-29
2.2780699e-29
2.2828266e-29
2.2795918e-29
2.2783639e-29
2.2779748e-29
2.2778701e-29
2.2778474e-29
2.2778542e-29
2.2779027e-29
2.2780699e-29
2.2785549e-29
5.9950925e-29
5.9865834e-29
5.9833557e-29
5.982333e-29
5.9820574e-29
5.9819956e-29
5.9820041e-29
5.9820954e-29
5.9824147e-29
5.9833416e-29
5.9865834e-29
5.9781159e-29
5.9749005e-29
5.9738812e-29
5.9736066e-29
5.9735457e-29
5.9735579e-29
5.9736643e-29
5.9740418e-29
5.9751748e-29
5.9833557e-29
5.9749005e-29
5.9716905e-29
5.970673e-29
5.970399e-29
5.970339e-29
5.9703538e-29
5.9704702e-29
5.9708767e-29
5.9720668e-29
5.982333e-29
5.9738812e-29
5.970673e-29
5.9696562e-29
5.9693825e-29
5.9693228e-29
5.9693389e-29
5.9694592e-29
5.9698755e-29
5.9710805e-29
5.9820574e-29
5.9736066e-29
5.970399e-29
5.9693825e-29
5.969109e-29
5.9690494e-29
5.9690659e-29
5.9691875e-29
5.9696064e-29
5.9708148e-29
5.9819956e-29
5.9735457e-29
5.970339e-29
5.9693228e-29
5.9690494e-29
5.96899e-29
5.9690067e-29
5.9691285e-29
5.9695481e-29
5.9707572e-29
5.9820041e-29
5.9735579e-29
5.9703538e-29
5.9693389e-29
5.9690659e-29
5.9690067e-29
5.9690234e-29
5.9691453e-29
5.9695651e-29
5.9707744e-29
5.9820954e-29
5.9736643e-29
5.9704702e-29
5.9694592e-29
5.9691875e-29
5.9691285e-29
5.9691453e-29
5.9692674e-29
5.9696872e-29
5.9708968e-29
5.9824147e-29
5.9740418e-29
5.9708767e-29
5.9698755e-29
5.9696064e-29
5.9695481e-29
5.9695651e-29
5.9696872e-29
5.9701074e-29
5.9713177e-29
5.9833416e-29
5.9751748e-29
5.9720668e-29
5.9710805e-29
5.9708148e-29
5.9707572e-29
5.9707744e-29
5.9708968e-29
5.9713177e-29
5.9725315e-29
1.5939635e-28
1.5917835e-28
1.5909547e-28
1.5906917e-28
1.5906207e-28
1.5906048e-28
1.5906069e-28
1.5906301e-28
1.5907109e-28
1.5909436e-28
1.5917835e-28
1.589614e-28
1.5887883e-28
1.5885262e-28
1.5884555e-28
1.5884398e-28
1.5884429e-28
1.5884701e-28
1.5885662e-28
1.5888531e-28
1.5909547e-28
1.5887883e-28
1.5879639e-28
1.5877023e-28
1.5876317e-28
1.5876162e-28
1.58762e-28
1.5876498e-28
1.5877536e-28
1.5880556e-28
1.5906917e-28
1.5885262e-28
1.5877023e-28
1.5874408e-28
1.5873703e-28
1.5873549e-28
1.587359e-28
1.5873899e-28
1.5874962e-28
1.5878021e-28
1.5906207e-28
1.5884555e-28
1.5876317e-28
1.5873703e-28
1.5872999e-28
1.5872846e-28
1.5872888e-28
1.5873199e-28
1.5874269e-28
1.5877337e-28
1.5906048e-28
1.5884398e-28
1.5876162e-28
1.5873549e-28
1.5872846e-28
1.5872692e-28
1.5872735e-28
1.5873047e-28
1.5874119e-28
1.5877189e-28
1.5906069e-28
1.5884429e-28
1.58762e-28
1.587359e-28
1.5872888e-28
1.5872735e-28
1.5872778e-28
1.587309e-28
1.5874163e-28
1.5877233e-28
1.5906301e-28
1.5884701e-28
1.5876498e-28
1.5873899e-28
1.5873199e-28
1.5873047e-28
1.587309e-28
1.5873403e-28
1.5874476e-28
1.5877547e-28
1.5907109e-28
1.5885662e-28
1.5877536e-28
1.5874962e-28
1.5874269e-28
1.5874119e-28
1.5874163e-28
1.5874476e-28
1.5875549e-28
1.5878622e-28
1.5909436e-28
1.5888531e-28
1.5880556e-28
1.5878021e-28
1.5877337e-28
1.5877189e-28
1.5877233e-28
1.5877547e-28
1.5878622e-28
1.5881703e-28
4.2993694e-28
4.2937065e-28
4.2915485e-28
4.2908628e-28
4.2906777e-28
4.290636e-28
4.2906414e-28
4.2907012e-28
4.2909086e-28
4.2915013e-28
4.2937065e-28
4.2880706e-28
4.2859206e-28
4.2852372e-28
4.2850527e-28
4.2850117e-28
4.2850197e-28
4.2850901e-28
4.2853383e-28
4.2860756e-28
4.2915485e-28
4.2859206e-28
4.2837741e-28
4.2830919e-28
4.2829078e-28
4.2828674e-28
4.2828772e-28
4.2829546e-28
4.2832231e-28
4.2840006e-28
4.2908628e-28
4.2852372e-28
4.2830919e-28
4.2824101e-28
4.2822263e-28
4.2821861e-28
4.2821968e-28
4.2822769e-28
4.2825523e-28
4.2833401e-28
4.2906777e-28
4.2850527e-28
4.2829078e-28
4.2822263e-28
4.2820425e-28
4.2820024e-28
4.2820134e-28
4.2820944e-28
4.2823716e-28
4.2831619e-28
4.290636e-28
4.2850117e-28
4.2828674e-28
4.2821861e-28
4.2820024e-28
4.2819624e-28
4.2819735e-28
4.2820547e-28
4.2823324e-28
4.2831232e-28
4.2906414e-28
4.2850197e-28
4.2828772e-28
4.2821968e-28
4.2820134e-28
4.2819735e-28
4.2819846e-28
4.2820659e-28
4.2823437e-28
4.2831346e-28
4.2907012e-28
4.2850901e-28
4.2829546e-28
4.2822769e-28
4.2820944e-28
4.2820547e-28
4.2820659e-28
4.2821473e-28
4.2824251e-28
4.2832162e-28
4.2909086e-28
4.2853383e-28
4.2832231e-28
4.2825523e-28
4.2823716e-28
4.2823324e-28
4.2823437e-28
4.2824251e-28
4.2827032e-28
4.2834948e-28
4.2915013e-28
4.2860756e-28
4.2840006e-28
4.2833401e-28
4.2831619e-28
4.2831232e-28
4.2831346e-28
4.2832162e-28
4.2834948e-28
4.2842885e-28
1.176449e-27
1.1749575e-27
1.1743879e-27
1.1742066e-27
1.1741576e-27
1.1741466e-27
1.174148e-27
1.1741636e-27
1.1742176e-27
1.1743707e-27
1.1749575e-27
1.1734731e-27
1.1729055e-27
1.1727249e-27
1.1726761e-27
1.1726652e-27
1.1726673e-27
1.1726858e-27
1.1727508e-27
1.172943e-27
1.1743879e-27
1.1729055e-27
1.1723389e-27
1.1721585e-27
1.1721098e-27
1.1720991e-27
1.1721017e-27
1.1721221e-27
1.1721926e-27
1.1723957e-27
1.1742066e-27
1.1727249e-27
1.1721585e-27
1.1719783e-27
1.1719297e-27
1.171919e-27
1.1719219e-27
1.171943e-27
1.1720154e-27
1.1722212e-27
1.1741576e-27
1.1726761e-27
1.1721098e-27
1.1719297e-27
1.1718811e-27
1.1718704e-27
1.1718733e-27
1.1718947e-27
1.1719676e-27
1.1721741e-27
1.1741466e-27
1.1726652e-27
1.1720991e-27
1.171919e-27
1.1718704e-27
1.1718598e-27
1.1718628e-27
1.1718842e-27
1.1719572e-27
1.1721639e-27
1.174148e-27
1.1726673e-27
1.1721017e-27
1.1719219e-27
1.1718733e-27
1.1718628e-27
1.1718657e-27
1.1718872e-27
1.1719602e-27
1.1721669e-27
1.1741636e-27
1.1726858e-27
1.1721221e-27
1.171943e-27
1.1718947e-27
1.1718842e-27
1.1718872e-27
1.1719086e-27
1.1719817e-27
1.1721884e-27
1.1742176e-27
1.1727508e-27
1.1721926e-27
1.1720154e-27
1.1719676e-27
1.1719572e-27
1.1719602e-27
1.1719817e-27
1.1720548e-27
1.1722616e-27
1.1743707e-27
1.172943e-27
1.1723957e-27
1.1722212e-27
1.1721741e-27
1.1721639e-27
1.1721669e-27
1.1721884e-27
1.1722616e-27
1.172469e-27
3.265697e-27
3.2617143e-27
3.2601899e-27
3.2597043e-27
3.2595729e-27
3.2595433e-27
3.2595469e-27
3.2595883e-27
3.2597309e-27
3.2601318e-27
3.2617143e-27
3.2577503e-27
3.2562314e-27
3.2557473e-27
3.2556164e-27
3.2555872e-27
3.2555927e-27
3.2556421e-27
3.2558149e-27
3.2563232e-27
3.2601899e-27
3.2562314e-27
3.2547149e-27
3.2542316e-27
3.254101e-27
3.2540723e-27
3.2540792e-27
3.2541337e-27
3.2543215e-27
3.2548596e-27
3.2597043e-27
3.2557473e-27
3.2542316e-27
3.2537487e-27
3.2536182e-27
3.2535896e-27
3.2535972e-27
3.2536537e-27
3.2538467e-27
3.2543924e-27
3.2595729e-27
3.2556164e-27
3.254101e-27
3.2536182e-27
3.2534878e-27
3.2534593e-27
3.2534671e-27
3.2535242e-27
3.2537185e-27
3.2542661e-27
3.2595433e-27
3.2555872e-27
3.2540723e-27
3.2535896e-27
3.2534593e-27
3.2534309e-27
3.2534387e-27
3.253496e-27
3.2536907e-27
3.2542386e-27
3.2595469e-27
3.2555927e-27
3.2540792e-27
3.2535972e-27
3.2534671e-27
3.2534387e-27
3.2534466e-27
3.253504e-27
3.2536987e-27
3.2542468e-27
3.2595883e-27
3.2556421e-27
3.2541337e-27
3.2536537e-27
3.2535242e-27
3.253496e-27
3.253504e-27
3.2535614e-27
3.2537562e-27
3.2543043e-27
3.2597309e-27
3.2558149e-27
3.2543215e-27
3.2538467e-27
3.2537185e-27
3.2536907e-27
3.2536987e-27
3.2537562e-27
3.2539511e-27
3.2544996e-27
3.2601318e-27
3.2563232e-27
3.2548596e-27
3.2543924e-27
3.2542661e-27
3.2542386e-27
3.2542468e-27
3.2543043e-27
3.2544996e-27
3.2550495e-27
9.1960168e-27
9.1852351e-27
9.1810994e-27
9.1797802e-27
9.179423e-27
9.1793424e-27
9.179352e-27
9.1794636e-27
9.1798454e-27
9.1809105e-27
9.1852351e-27
9.1745036e-27
9.1703825e-27
9.1690675e-27
9.1687115e-27
9.1686322e-27
9.168647e-27
9.1687805e-27
9.1692464e-27
9.1706102e-27
9.1810994e-27
9.1703825e-27
9.1662681e-27
9.1649553e-27
9.1646002e-27
9.1645219e-27
9.1645406e-27
9.1646884e-27
9.1651961e-27
9.1666426e-27
9.1797802e-27
9.1690675e-27
9.1649553e-27
9.1636434e-27
9.1632886e-27
9.1632108e-27
9.1632313e-27
9.1633847e-27
9.1639066e-27
9.1653745e-27
9.179423e-27
9.1687115e-27
9.1646002e-27
9.1632886e-27
9.162934e-27
9.1628564e-27
9.1628776e-27
9.1630327e-27
9.1635583e-27
9.1650313e-27
9.1793424e-27
9.1686322e-27
9.1645219e-27
9.1632108e-27
9.1628564e-27
9.1627791e-27
9.1628004e-27
9.162956e-27
9.1634826e-27
9.1649566e-27
9.179352e-27
9.168647e-27
9.1645406e-27
9.1632313e-27
9.1628776e-27
9.1628004e-27
9.1628218e-27
9.1629776e-27
9.1635044e-27
9.1649786e-27
9.1794636e-27
9.1687805e-27
9.1646884e-27
9.1633847e-27
9.1630327e-27
9.162956e-27
9.1629776e-27
9.1631334e-27
9.1636604e-27
9.1651349e-27
9.1798454e-27
9.1692464e-27
9.1651961e-27
9.1639066e-27
9.1635583e-27
9.1634826e-27
9.1635044e-27
9.1636604e-27
9.1641877e-27
9.1656631e-27
9.1809105e-27
9.1706102e-27
9.1666426e-27
9.1653745e-27
9.1650313e-27
9.1649566e-27
9.1649786e-27
9.1651349e-27
9.1656631e-27
9.1671422e-27
2.6267888e-26
2.6238299e-26
2.6226925e-26
2.6223293e-26
2.6222309e-26
2.6222086e-26
2.6222112e-26
2.6222416e-26
2.6223454e-26
2.6226323e-26
2.6238299e-26
2.6208847e-26
2.6197513e-26
2.6193892e-26
2.6192911e-26
2.6192692e-26
2.6192733e-26
2.6193099e-26
2.6194373e-26
2.6198085e-26
2.6226925e-26
2.6197513e-26
2.6186197e-26
2.6182582e-26
2.6181604e-26
2.6181388e-26
2.6181439e-26
2.6181846e-26
2.6183237e-26
2.6187182e-26
2.6223293e-26
2.6193892e-26
2.6182582e-26
2.617897e-26
2.6177992e-26
2.6177777e-26
2.6177834e-26
2.6178256e-26
2.6179688e-26
2.6183693e-26
2.6222309e-26
2.6192911e-26
2.6181604e-26
2.6177992e-26
2.6177015e-26
2.6176801e-26
2.6176859e-26
2.6177286e-26
2.6178729e-26
2.6182748e-26
2.6222086e-26
2.6192692e-26
2.6181388e-26
2.6177777e-26
2.6176801e-26
2.6176587e-26
2.6176646e-26
2.6177075e-26
2.617852e-26
2.6182542e-26
2.6222112e-26
2.6192733e-26
2.6181439e-26
2.6177834e-26
2.6176859e-26
2.6176646e-26
2.6176705e-26
2.6177134e-26
2.617858e-26
2.6182603e-26
2.6222416e-26
2.6193099e-26
2.6181846e-26
2.6178256e-26
2.6177286e-26
2.6177075e-26
2.6177134e-26
2.6177563e-26
2.6179009e-26
2.6183033e-26
2.6223454e-26
2.6194373e-26
2.6183237e-26
2.6179688e-26
2.6178729e-26
2.617852e-26
2.617858e-26
2.6179009e-26
2.6180457e-26
2.6184483e-26
2.6226323e-26
2.6198085e-26
2.6187182e-26
2.6183693e-26
2.6182748e-26
2.6182542e-26
2.6182603e-26
2.6183033e-26
2.6184483e-26
2.6188519e-26
7.6107241e-26
7.6024932e-26
7.5993228e-26
7.5983091e-26
7.5980341e-26
7.5979718e-26
7.5979789e-26
7.5980631e-26
7.5983489e-26
7.599133e-26
7.6024932e-26
7.5942998e-26
7.5911404e-26
7.5901298e-26
7.5898557e-26
7.5897945e-26
7.5898057e-26
7.5899076e-26
7.5902611e-26
7.5912858e-26
7.5993228e-26
7.5911404e-26
7.587986e-26
7.586977e-26
7.5867036e-26
7.5866432e-26
7.5866576e-26
7.586771e-26
7.587158e-26
7.5882494e-26
7.5983091e-26
7.5901298e-26
7.586977e-26
7.5859687e-26
7.5856955e-26
7.5856356e-26
7.5856514e-26
7.5857693e-26
7.5861677e-26
7.5872764e-26
7.5980341e-26
7.5898557e-26
7.5867036e-26
7.5856955e-26
7.5854225e-26
7.5853628e-26
7.5853791e-26
7.5854983e-26
7.5858998e-26
7.5870125e-26
7.5979718e-26
7.5897945e-26
7.5866432e-26
7.5856356e-26
7.5853628e-26
7.5853031e-26
7.5853196e-26
7.5854392e-26
7.5858415e-26
7.586955e-26
7.5979789e-26
7.5898057e-26
7.5866576e-26
7.5856514e-26
7.5853791e-26
7.5853196e-26
7.5853361e-26
7.5854559e-26
7.5858583e-26
7.5869721e-26
7.5980631e-26
7.5899076e-26
7.586771e-26
7.5857693e-26
7.5854983e-26
7.5854392e-26
7.5854559e-26
7.5855757e-26
7.5859783e-26
7.5870922e-26
7.5983489e-26
7.5902611e-26
7.587158e-26
7.5861677e-26
7.5858998e-26
7.5858415e-26
7.5858583e-26
7.5859783e-26
7.5863811e-26
7.5874957e-26
7.599133e-26
7.5912858e-26
7.5882494e-26
7.5872764e-26
7.5870125e-26
7.586955e-26
7.5869721e-26
7.5870922e-26