/*--------------------------------*- C++ -*----------------------------------*\
| =========                 |                                                 |
| \\      /  F ield         | OpenFOAM: The Open Source CFD Toolbox           |
|  \\    /   O peration     | Version:  dev                                   |
|   \\  /    A nd           | Web:      www.OpenFOAM.org                      |
|    \\/     M anipulation  |                                                 |
\*---------------------------------------------------------------------------*/
FoamFile
{
    version     2.0;
    format      ascii;
    class       volScalarField;
    location    "46.995";
    object      A_0;
}
// * * * * * * * * * * * * * * * * * * * * * * * * * * * * * * * * * * * * * //

dimensions      [0 0 0 0 1 0 0];

internalField   nonuniform List<scalar> 
10000
(
3.4244416e-34
3.416832e-34
3.4141307e-34
3.4132949e-34
3.4130734e-34
3.413025e-34
3.413035e-34
3.4131231e-34
3.4134438e-34
3.4143684e-34
3.416832e-34
3.4092655e-34
3.4065767e-34
3.4057444e-34
3.4055239e-34
3.4054762e-34
3.4054885e-34
3.4055861e-34
3.4059432e-34
3.4069948e-34
3.4141307e-34
3.4065767e-34
3.403893e-34
3.4030624e-34
3.4028424e-34
3.4027952e-34
3.4028093e-34
3.4029132e-34
3.4032886e-34
3.4043759e-34
3.4132949e-34
3.4057444e-34
3.4030624e-34
3.4022324e-34
3.4020127e-34
3.4019657e-34
3.4019805e-34
3.4020869e-34
3.4024686e-34
3.4035651e-34
3.4130734e-34
3.4055239e-34
3.4028424e-34
3.4020127e-34
3.401793e-34
3.4017462e-34
3.4017613e-34
3.4018684e-34
3.4022518e-34
3.4033504e-34
3.413025e-34
3.4054762e-34
3.4027952e-34
3.4019657e-34
3.4017462e-34
3.4016994e-34
3.4017146e-34
3.4018219e-34
3.4022057e-34
3.4033048e-34
3.413035e-34
3.4054885e-34
3.4028093e-34
3.4019805e-34
3.4017613e-34
3.4017146e-34
3.4017298e-34
3.4018373e-34
3.4022211e-34
3.4033204e-34
3.4131231e-34
3.4055861e-34
3.4029132e-34
3.4020869e-34
3.4018684e-34
3.4018219e-34
3.4018373e-34
3.4019448e-34
3.4023287e-34
3.4034282e-34
3.4134438e-34
3.4059432e-34
3.4032886e-34
3.4024686e-34
3.4022518e-34
3.4022057e-34
3.4022211e-34
3.4023287e-34
3.4027131e-34
3.4038134e-34
3.4143684e-34
3.4069948e-34
3.4043759e-34
3.4035651e-34
3.4033504e-34
3.4033048e-34
3.4033204e-34
3.4034282e-34
3.4038134e-34
3.4049172e-34
1.2588583e-33
1.2561666e-33
1.2551879e-33
1.2548845e-33
1.2548041e-33
1.2547865e-33
1.25479e-33
1.2548218e-33
1.2549379e-33
1.2552872e-33
1.2561666e-33
1.2534899e-33
1.2525156e-33
1.2522135e-33
1.2521333e-33
1.252116e-33
1.2521204e-33
1.2521557e-33
1.2522851e-33
1.2526813e-33
1.2551879e-33
1.2525156e-33
1.2515433e-33
1.2512417e-33
1.2511618e-33
1.2511446e-33
1.2511497e-33
1.2511873e-33
1.2513234e-33
1.2517327e-33
1.2548845e-33
1.2522135e-33
1.2512417e-33
1.2509404e-33
1.2508605e-33
1.2508435e-33
1.2508488e-33
1.2508873e-33
1.2510257e-33
1.2514384e-33
1.2548041e-33
1.2521333e-33
1.2511618e-33
1.2508605e-33
1.2507807e-33
1.2507637e-33
1.2507691e-33
1.2508079e-33
1.2509469e-33
1.2513604e-33
1.2547865e-33
1.252116e-33
1.2511446e-33
1.2508435e-33
1.2507637e-33
1.2507467e-33
1.2507522e-33
1.250791e-33
1.2509302e-33
1.2513438e-33
1.25479e-33
1.2521204e-33
1.2511497e-33
1.2508488e-33
1.2507691e-33
1.2507522e-33
1.2507577e-33
1.2507965e-33
1.2509357e-33
1.2513494e-33
1.2548218e-33
1.2521557e-33
1.2511873e-33
1.2508873e-33
1.2508079e-33
1.250791e-33
1.2507965e-33
1.2508354e-33
1.2509747e-33
1.2513885e-33
1.2549379e-33
1.2522851e-33
1.2513234e-33
1.2510257e-33
1.2509469e-33
1.2509302e-33
1.2509357e-33
1.2509747e-33
1.2511141e-33
1.2515282e-33
1.2552872e-33
1.2526813e-33
1.2517327e-33
1.2514384e-33
1.2513604e-33
1.2513438e-33
1.2513494e-33
1.2513885e-33
1.2515282e-33
1.2519436e-33
3.0559251e-33
3.0496014e-33
3.0472807e-33
3.0465597e-33
3.0463683e-33
3.0463264e-33
3.0463347e-33
3.0464094e-33
3.0466825e-33
3.0475305e-33
3.0496014e-33
3.0433124e-33
3.041002e-33
3.0402839e-33
3.0400933e-33
3.040052e-33
3.0400623e-33
3.0401455e-33
3.040451e-33
3.0414123e-33
3.0472807e-33
3.041002e-33
3.038696e-33
3.0379794e-33
3.0377892e-33
3.0377483e-33
3.0377602e-33
3.037849e-33
3.0381706e-33
3.0391637e-33
3.0465597e-33
3.0402839e-33
3.0379794e-33
3.0372632e-33
3.0370733e-33
3.0370326e-33
3.0370452e-33
3.0371361e-33
3.0374633e-33
3.0384645e-33
3.0463683e-33
3.0400933e-33
3.0377892e-33
3.0370733e-33
3.0368835e-33
3.0368429e-33
3.0368557e-33
3.0369473e-33
3.0372759e-33
3.0382791e-33
3.0463264e-33
3.040052e-33
3.0377483e-33
3.0370326e-33
3.0368429e-33
3.0368023e-33
3.0368152e-33
3.036907e-33
3.037236e-33
3.0382396e-33
3.0463347e-33
3.0400623e-33
3.0377602e-33
3.0370452e-33
3.0368557e-33
3.0368152e-33
3.0368282e-33
3.0369201e-33
3.0372492e-33
3.0382528e-33
3.0464094e-33
3.0401455e-33
3.037849e-33
3.0371361e-33
3.0369473e-33
3.036907e-33
3.0369201e-33
3.037012e-33
3.0373412e-33
3.038345e-33
3.0466825e-33
3.040451e-33
3.0381706e-33
3.0374633e-33
3.0372759e-33
3.037236e-33
3.0372492e-33
3.0373412e-33
3.0376707e-33
3.0386753e-33
3.0475305e-33
3.0414123e-33
3.0391637e-33
3.0384645e-33
3.0382791e-33
3.0382396e-33
3.0382528e-33
3.038345e-33
3.0386753e-33
3.0396832e-33
7.0611721e-33
7.0470238e-33
7.0418072e-33
7.0401835e-33
7.039752e-33
7.0396572e-33
7.0396754e-33
7.0398414e-33
7.0404474e-33
7.0423377e-33
7.0470238e-33
7.0329522e-33
7.0277585e-33
7.0261413e-33
7.0257115e-33
7.0256181e-33
7.025641e-33
7.0258265e-33
7.0265067e-33
7.0286579e-33
7.0418072e-33
7.0277585e-33
7.0225746e-33
7.0209605e-33
7.0205318e-33
7.0204394e-33
7.0204658e-33
7.0206641e-33
7.0213815e-33
7.0236055e-33
7.0401835e-33
7.0261413e-33
7.0209605e-33
7.0193476e-33
7.0189194e-33
7.0188275e-33
7.0188555e-33
7.0190588e-33
7.0197888e-33
7.0220316e-33
7.039752e-33
7.0257115e-33
7.0205318e-33
7.0189194e-33
7.0184913e-33
7.0183996e-33
7.0184282e-33
7.018633e-33
7.0193665e-33
7.0216136e-33
7.0396572e-33
7.0256181e-33
7.0204394e-33
7.0188275e-33
7.0183996e-33
7.018308e-33
7.0183368e-33
7.018542e-33
7.0192763e-33
7.0215244e-33
7.0396754e-33
7.025641e-33
7.0204658e-33
7.0188555e-33
7.0184282e-33
7.0183368e-33
7.0183656e-33
7.018571e-33
7.0193056e-33
7.0215539e-33
7.0398414e-33
7.0258265e-33
7.0206641e-33
7.0190588e-33
7.018633e-33
7.018542e-33
7.018571e-33
7.0187766e-33
7.0195113e-33
7.0217601e-33
7.0404474e-33
7.0265067e-33
7.0213815e-33
7.0197888e-33
7.0193665e-33
7.0192763e-33
7.0193056e-33
7.0195113e-33
7.0202468e-33
7.0224972e-33
7.0423377e-33
7.0286579e-33
7.0236055e-33
7.0220316e-33
7.0216136e-33
7.0215244e-33
7.0215539e-33
7.0217601e-33
7.0224972e-33
7.024755e-33
1.6348058e-32
1.6316348e-32
1.6304618e-32
1.6300961e-32
1.6299988e-32
1.6299773e-32
1.6299813e-32
1.6300182e-32
1.6301523e-32
1.630569e-32
1.6316348e-32
1.6284808e-32
1.6273129e-32
1.6269486e-32
1.6268517e-32
1.6268306e-32
1.6268356e-32
1.626877e-32
1.6270282e-32
1.627505e-32
1.6304618e-32
1.6273129e-32
1.6261472e-32
1.6257836e-32
1.6256869e-32
1.625666e-32
1.6256719e-32
1.6257162e-32
1.6258759e-32
1.6263695e-32
1.6300961e-32
1.6269486e-32
1.6257836e-32
1.6254203e-32
1.6253237e-32
1.6253029e-32
1.6253091e-32
1.6253546e-32
1.6255172e-32
1.6260151e-32
1.6299988e-32
1.6268517e-32
1.6256869e-32
1.6253237e-32
1.6252271e-32
1.6252064e-32
1.6252128e-32
1.6252586e-32
1.625422e-32
1.6259209e-32
1.6299773e-32
1.6268306e-32
1.625666e-32
1.6253029e-32
1.6252064e-32
1.6251857e-32
1.6251921e-32
1.625238e-32
1.6254017e-32
1.6259008e-32
1.6299813e-32
1.6268356e-32
1.6256719e-32
1.6253091e-32
1.6252128e-32
1.6251921e-32
1.6251986e-32
1.6252445e-32
1.6254082e-32
1.6259073e-32
1.6300182e-32
1.626877e-32
1.6257162e-32
1.6253546e-32
1.6252586e-32
1.625238e-32
1.6252445e-32
1.6252904e-32
1.6254542e-32
1.6259534e-32
1.6301523e-32
1.6270282e-32
1.6258759e-32
1.6255172e-32
1.625422e-32
1.6254017e-32
1.6254082e-32
1.6254542e-32
1.625618e-32
1.6261177e-32
1.630569e-32
1.627505e-32
1.6263695e-32
1.6260151e-32
1.6259209e-32
1.6259008e-32
1.6259073e-32
1.6259534e-32
1.6261177e-32
1.6266189e-32
3.8292005e-32
3.822013e-32
3.8193468e-32
3.8185142e-32
3.8182923e-32
3.8182434e-32
3.8182522e-32
3.8183349e-32
3.8186347e-32
3.8195602e-32
3.822013e-32
3.8148637e-32
3.8122088e-32
3.8113794e-32
3.8111584e-32
3.8111102e-32
3.8111215e-32
3.8112146e-32
3.8115542e-32
3.8126198e-32
3.8193468e-32
3.8122088e-32
3.8095588e-32
3.808731e-32
3.8085106e-32
3.8084629e-32
3.8084761e-32
3.808576e-32
3.8089355e-32
3.8100401e-32
3.8185142e-32
3.8113794e-32
3.808731e-32
3.8079037e-32
3.8076836e-32
3.8076362e-32
3.8076502e-32
3.8077528e-32
3.808119e-32
3.8092337e-32
3.8182923e-32
3.8111584e-32
3.8085106e-32
3.8076836e-32
3.8074635e-32
3.8074162e-32
3.8074305e-32
3.807534e-32
3.807902e-32
3.809019e-32
3.8182434e-32
3.8111102e-32
3.8084629e-32
3.8076362e-32
3.8074162e-32
3.807369e-32
3.8073834e-32
3.8074871e-32
3.8078555e-32
3.808973e-32
3.8182522e-32
3.8111215e-32
3.8084761e-32
3.8076502e-32
3.8074305e-32
3.8073834e-32
3.8073979e-32
3.8075016e-32
3.8078702e-32
3.8089878e-32
3.8183349e-32
3.8112146e-32
3.808576e-32
3.8077528e-32
3.807534e-32
3.8074871e-32
3.8075016e-32
3.8076054e-32
3.8079741e-32
3.809092e-32
3.8186347e-32
3.8115542e-32
3.8089355e-32
3.808119e-32
3.807902e-32
3.8078555e-32
3.8078702e-32
3.8079741e-32
3.8083432e-32
3.8094618e-32
3.8195602e-32
3.8126198e-32
3.8100401e-32
3.8092337e-32
3.809019e-32
3.808973e-32
3.8089878e-32
3.809092e-32
3.8094618e-32
3.810584e-32
9.0914063e-32
9.0748996e-32
9.0687598e-32
9.0668394e-32
9.0663271e-32
9.066214e-32
9.0662337e-32
9.0664216e-32
9.0671004e-32
9.0691813e-32
9.0748996e-32
9.0584796e-32
9.0523656e-32
9.0504523e-32
9.0499422e-32
9.0498306e-32
9.0498562e-32
9.0500688e-32
9.0508414e-32
9.0532528e-32
9.0687598e-32
9.0523656e-32
9.0462628e-32
9.0443532e-32
9.0438442e-32
9.0437339e-32
9.043764e-32
9.0439926e-32
9.044812e-32
9.0473155e-32
9.0668394e-32
9.0504523e-32
9.0443532e-32
9.042445e-32
9.0419365e-32
9.0418269e-32
9.0418589e-32
9.0420938e-32
9.0429291e-32
9.0454564e-32
9.0663271e-32
9.0499422e-32
9.0438442e-32
9.0419365e-32
9.0414283e-32
9.0413189e-32
9.0413516e-32
9.0415885e-32
9.0424281e-32
9.0449609e-32
9.066214e-32
9.0498306e-32
9.0437339e-32
9.0418269e-32
9.0413189e-32
9.0412097e-32
9.0412426e-32
9.04148e-32
9.0423207e-32
9.0448547e-32
9.0662337e-32
9.0498562e-32
9.043764e-32
9.0418589e-32
9.0413516e-32
9.0412426e-32
9.0412757e-32
9.0415133e-32
9.0423542e-32
9.0448885e-32
9.0664216e-32
9.0500688e-32
9.0439926e-32
9.0420938e-32
9.0415885e-32
9.04148e-32
9.0415133e-32
9.041751e-32
9.0425922e-32
9.045127e-32
9.0671004e-32
9.0508414e-32
9.044812e-32
9.0429291e-32
9.0424281e-32
9.0423207e-32
9.0423542e-32
9.0425922e-32
9.0434341e-32
9.0459707e-32
9.0691813e-32
9.0532528e-32
9.0473155e-32
9.0454564e-32
9.0449609e-32
9.0448547e-32
9.0448885e-32
9.045127e-32
9.0459707e-32
9.0485153e-32
2.1888563e-31
2.1850138e-31
2.1835808e-31
2.1831318e-31
2.1830119e-31
2.1829854e-31
2.1829899e-31
2.1830332e-31
2.183189e-31
2.1836631e-31
2.1850138e-31
2.1811912e-31
2.1797641e-31
2.1793168e-31
2.1791974e-31
2.1791713e-31
2.1791772e-31
2.1792263e-31
2.1794046e-31
2.1799578e-31
2.1835808e-31
2.1797641e-31
2.1783396e-31
2.1778932e-31
2.177774e-31
2.1777482e-31
2.1777551e-31
2.1778081e-31
2.1779975e-31
2.1785728e-31
2.1831318e-31
2.1793168e-31
2.1778932e-31
2.1774471e-31
2.1773281e-31
2.1773024e-31
2.1773098e-31
2.1773643e-31
2.1775575e-31
2.1781384e-31
2.1830119e-31
2.1791974e-31
2.177774e-31
2.1773281e-31
2.1772091e-31
2.1771835e-31
2.177191e-31
2.177246e-31
2.1774402e-31
2.1780225e-31
2.1829854e-31
2.1791713e-31
2.1777482e-31
2.1773024e-31
2.1771835e-31
2.1771579e-31
2.1771655e-31
2.1772206e-31
2.1774151e-31
2.1779976e-31
2.1829899e-31
2.1791772e-31
2.1777551e-31
2.1773098e-31
2.177191e-31
2.1771655e-31
2.1771731e-31
2.1772283e-31
2.1774228e-31
2.1780054e-31
2.1830332e-31
2.1792263e-31
2.1778081e-31
2.1773643e-31
2.177246e-31
2.1772206e-31
2.1772283e-31
2.1772835e-31
2.1774781e-31
2.1780608e-31
2.183189e-31
2.1794046e-31
2.1779975e-31
2.1775575e-31
2.1774402e-31
2.1774151e-31
2.1774228e-31
2.1774781e-31
2.1776728e-31
2.178256e-31
2.1836631e-31
2.1799578e-31
2.1785728e-31
2.1781384e-31
2.1780225e-31
2.1779976e-31
2.1780054e-31
2.1780608e-31
2.178256e-31
2.1788409e-31
5.3447308e-31
5.335663e-31
5.3322725e-31
5.3312086e-31
5.3309242e-31
5.3308612e-31
5.3308714e-31
5.3309727e-31
5.3313352e-31
5.3324305e-31
5.335663e-31
5.3266417e-31
5.323265e-31
5.3222051e-31
5.3219218e-31
5.3218597e-31
5.3218733e-31
5.3219888e-31
5.3224056e-31
5.3236928e-31
5.3322725e-31
5.323265e-31
5.3198944e-31
5.3188364e-31
5.3185538e-31
5.3184924e-31
5.3185086e-31
5.3186333e-31
5.3190772e-31
5.3204177e-31
5.3312086e-31
5.3222051e-31
5.3188364e-31
5.3177792e-31
5.3174969e-31
5.3174358e-31
5.3174532e-31
5.3175816e-31
5.3180347e-31
5.3193889e-31
5.3309242e-31
5.3219218e-31
5.3185538e-31
5.3174969e-31
5.3172147e-31
5.3171538e-31
5.3171715e-31
5.317301e-31
5.3177566e-31
5.3191141e-31
5.3308612e-31
5.3218597e-31
5.3184924e-31
5.3174358e-31
5.3171538e-31
5.3170929e-31
5.3171108e-31
5.3172406e-31
5.3176968e-31
5.319055e-31
5.3308714e-31
5.3218733e-31
5.3185086e-31
5.3174532e-31
5.3171715e-31
5.3171108e-31
5.3171288e-31
5.3172587e-31
5.317715e-31
5.3190734e-31
5.3309727e-31
5.3219888e-31
5.3186333e-31
5.3175816e-31
5.317301e-31
5.3172406e-31
5.3172587e-31
5.3173887e-31
5.3178452e-31
5.3192037e-31
5.3313352e-31
5.3224056e-31
5.3190772e-31
5.3180347e-31
5.3177566e-31
5.3176968e-31
5.317715e-31
5.3178452e-31
5.318302e-31
5.3196615e-31
5.3324305e-31
5.3236928e-31
5.3204177e-31
5.3193889e-31
5.3191141e-31
5.319055e-31
5.3190734e-31
5.3192037e-31
5.3196615e-31
5.3210252e-31
1.323704e-30
1.3215346e-30
1.3207213e-30
1.3204658e-30
1.3203974e-30
1.3203822e-30
1.3203846e-30
1.3204086e-30
1.3204941e-30
1.3207507e-30
1.3215346e-30
1.3193762e-30
1.3185662e-30
1.3183116e-30
1.3182434e-30
1.3182285e-30
1.3182317e-30
1.3182592e-30
1.3183581e-30
1.3186618e-30
1.3207213e-30
1.3185662e-30
1.3177577e-30
1.3175035e-30
1.3174355e-30
1.3174207e-30
1.3174246e-30
1.3174543e-30
1.3175599e-30
1.3178767e-30
1.3204658e-30
1.3183116e-30
1.3175035e-30
1.3172495e-30
1.3171816e-30
1.3171669e-30
1.317171e-30
1.3172017e-30
1.3173095e-30
1.3176297e-30
1.3203974e-30
1.3182434e-30
1.3174355e-30
1.3171816e-30
1.3171138e-30
1.3170991e-30
1.3171033e-30
1.3171342e-30
1.3172426e-30
1.3175636e-30
1.3203822e-30
1.3182285e-30
1.3174207e-30
1.3171669e-30
1.3170991e-30
1.3170844e-30
1.3170887e-30
1.3171197e-30
1.3172282e-30
1.3175494e-30
1.3203846e-30
1.3182317e-30
1.3174246e-30
1.317171e-30
1.3171033e-30
1.3170887e-30
1.317093e-30
1.317124e-30
1.3172326e-30
1.3175538e-30
1.3204086e-30
1.3182592e-30
1.3174543e-30
1.3172017e-30
1.3171342e-30
1.3171197e-30
1.317124e-30
1.317155e-30
1.3172636e-30
1.3175849e-30
1.3204941e-30
1.3183581e-30
1.3175599e-30
1.3173095e-30
1.3172426e-30
1.3172282e-30
1.3172326e-30
1.3172636e-30
1.3173724e-30
1.3176938e-30
1.3207507e-30
1.3186618e-30
1.3178767e-30
1.3176297e-30
1.3175636e-30
1.3175494e-30
1.3175538e-30
1.3175849e-30
1.3176938e-30
1.3180163e-30
3.3253623e-30
3.3201e-30
3.3181225e-30
3.3175001e-30
3.3173334e-30
3.3172963e-30
3.3173019e-30
3.3173596e-30
3.3175643e-30
3.3181736e-30
3.3201e-30
3.3148642e-30
3.3128945e-30
3.3122744e-30
3.3121083e-30
3.3120717e-30
3.3120795e-30
3.3121458e-30
3.3123837e-30
3.3131105e-30
3.3181225e-30
3.3128945e-30
3.3109283e-30
3.3103093e-30
3.3101436e-30
3.3101074e-30
3.3101167e-30
3.3101887e-30
3.3104432e-30
3.3112026e-30
3.3175001e-30
3.3122744e-30
3.3103093e-30
3.3096907e-30
3.3095252e-30
3.3094893e-30
3.3094992e-30
3.3095734e-30
3.3098335e-30
3.3106014e-30
3.3173334e-30
3.3121083e-30
3.3101436e-30
3.3095252e-30
3.3093597e-30
3.3093239e-30
3.3093341e-30
3.309409e-30
3.3096706e-30
3.3104404e-30
3.3172963e-30
3.3120717e-30
3.3101074e-30
3.3094893e-30
3.3093239e-30
3.3092881e-30
3.3092984e-30
3.3093735e-30
3.3096354e-30
3.3104057e-30
3.3173019e-30
3.3120795e-30
3.3101167e-30
3.3094992e-30
3.3093341e-30
3.3092984e-30
3.3093087e-30
3.3093839e-30
3.3096459e-30
3.3104163e-30
3.3173596e-30
3.3121458e-30
3.3101887e-30
3.3095734e-30
3.309409e-30
3.3093735e-30
3.3093839e-30
3.3094591e-30
3.3097212e-30
3.3104917e-30
3.3175643e-30
3.3123837e-30
3.3104432e-30
3.3098335e-30
3.3096706e-30
3.3096354e-30
3.3096459e-30
3.3097212e-30
3.3099835e-30
3.3107546e-30
3.3181736e-30
3.3131105e-30
3.3112026e-30
3.3106014e-30
3.3104404e-30
3.3104057e-30
3.3104163e-30
3.3104917e-30
3.3107546e-30
3.3115279e-30
8.474069e-30
8.4611273e-30
8.4562518e-30
8.4547153e-30
8.4543032e-30
8.4542113e-30
8.4542248e-30
8.4543653e-30
8.4548621e-30
8.4563296e-30
8.4611273e-30
8.44825e-30
8.4433936e-30
8.4418624e-30
8.4414519e-30
8.4413614e-30
8.4413801e-30
8.4415425e-30
8.4421232e-30
8.4438876e-30
8.4562518e-30
8.4433936e-30
8.4385456e-30
8.4370172e-30
8.4366076e-30
8.4365182e-30
8.4365409e-30
8.4367175e-30
8.4373399e-30
8.4391868e-30
8.4547153e-30
8.4418624e-30
8.4370172e-30
8.4354899e-30
8.4350807e-30
8.4349918e-30
8.4350162e-30
8.4351985e-30
8.435835e-30
8.4377032e-30
8.4543032e-30
8.4414519e-30
8.4366076e-30
8.4350807e-30
8.4346717e-30
8.434583e-30
8.4346081e-30
8.4347921e-30
8.4354324e-30
8.4373055e-30
8.4542113e-30
8.4413614e-30
8.4365182e-30
8.4349918e-30
8.434583e-30
8.4344945e-30
8.4345198e-30
8.4347043e-30
8.4353455e-30
8.4372197e-30
8.4542248e-30
8.4413801e-30
8.4365409e-30
8.4350162e-30
8.4346081e-30
8.4345198e-30
8.4345452e-30
8.4347298e-30
8.4353713e-30
8.4372457e-30
8.4543653e-30
8.4415425e-30
8.4367175e-30
8.4351985e-30
8.4347921e-30
8.4347043e-30
8.4347298e-30
8.4349145e-30
8.4355562e-30
8.4374309e-30
8.4548621e-30
8.4421232e-30
8.4373399e-30
8.435835e-30
8.4354324e-30
8.4353455e-30
8.4353713e-30
8.4355562e-30
8.4361984e-30
8.4380744e-30
8.4563296e-30
8.4438876e-30
8.4391868e-30
8.4377032e-30
8.4373055e-30
8.4372197e-30
8.4372457e-30
8.4374309e-30
8.4380744e-30
8.4399559e-30
2.1906224e-29
2.1873953e-29
2.1861766e-29
2.185792e-29
2.1856887e-29
2.1856657e-29
2.1856689e-29
2.1857037e-29
2.1858259e-29
2.1861844e-29
2.1873953e-29
2.1841841e-29
2.1829701e-29
2.1825868e-29
2.1824839e-29
2.1824612e-29
2.1824658e-29
2.1825061e-29
2.1826499e-29
2.1830844e-29
2.1861766e-29
2.1829701e-29
2.1817582e-29
2.1813756e-29
2.1812729e-29
2.1812505e-29
2.1812561e-29
2.1813001e-29
2.1814545e-29
2.1819101e-29
2.185792e-29
2.1825868e-29
2.1813756e-29
2.1809932e-29
2.1808907e-29
2.1808684e-29
2.1808745e-29
2.1809199e-29
2.1810779e-29
2.181539e-29
2.1856887e-29
2.1824839e-29
2.1812729e-29
2.1808907e-29
2.1807882e-29
2.1807659e-29
2.1807722e-29
2.180818e-29
2.180977e-29
2.1814394e-29
2.1856657e-29
2.1824612e-29
2.1812505e-29
2.1808684e-29
2.1807659e-29
2.1807437e-29
2.18075e-29
2.180796e-29
2.1809552e-29
2.1814178e-29
2.1856689e-29
2.1824658e-29
2.1812561e-29
2.1808745e-29
2.1807722e-29
2.18075e-29
2.1807563e-29
2.1808024e-29
2.1809617e-29
2.1814243e-29
2.1857037e-29
2.1825061e-29
2.1813001e-29
2.1809199e-29
2.180818e-29
2.180796e-29
2.1808024e-29
2.1808484e-29
2.1810078e-29
2.1814705e-29
2.1858259e-29
2.1826499e-29
2.1814545e-29
2.1810779e-29
2.180977e-29
2.1809552e-29
2.1809617e-29
2.1810078e-29
2.1811672e-29
2.1816303e-29
2.1861844e-29
2.1830844e-29
2.1819101e-29
2.181539e-29
2.1814394e-29
2.1814178e-29
2.1814243e-29
2.1814705e-29
2.1816303e-29
2.1820946e-29
5.7448491e-29
5.7366898e-29
5.7336012e-29
5.7326251e-29
5.7323628e-29
5.7323041e-29
5.7323122e-29
5.7323992e-29
5.7327045e-29
5.7335923e-29
5.7366898e-29
5.7285703e-29
5.7254935e-29
5.7245206e-29
5.7242593e-29
5.7242015e-29
5.724213e-29
5.7243146e-29
5.7246756e-29
5.725761e-29
5.7336012e-29
5.7254935e-29
5.7224219e-29
5.7214508e-29
5.72119e-29
5.721133e-29
5.7211471e-29
5.7212582e-29
5.7216468e-29
5.7227871e-29
5.7326251e-29
5.7245206e-29
5.7214508e-29
5.7204804e-29
5.7202199e-29
5.7201631e-29
5.7201785e-29
5.7202933e-29
5.7206913e-29
5.7218457e-29
5.7323628e-29
5.7242593e-29
5.72119e-29
5.7202199e-29
5.7199595e-29
5.7199029e-29
5.7199186e-29
5.7200346e-29
5.7204351e-29
5.7215928e-29
5.7323041e-29
5.7242015e-29
5.721133e-29
5.7201631e-29
5.7199029e-29
5.7198464e-29
5.7198623e-29
5.7199785e-29
5.7203797e-29
5.7215381e-29
5.7323122e-29
5.724213e-29
5.7211471e-29
5.7201785e-29
5.7199186e-29
5.7198623e-29
5.7198782e-29
5.7199946e-29
5.7203959e-29
5.7215545e-29
5.7323992e-29
5.7243146e-29
5.7212582e-29
5.7202933e-29
5.7200346e-29
5.7199785e-29
5.7199946e-29
5.720111e-29
5.7205124e-29
5.7216712e-29
5.7327045e-29
5.7246756e-29
5.7216468e-29
5.7206913e-29
5.7204351e-29
5.7203797e-29
5.7203959e-29
5.7205124e-29
5.7209142e-29
5.7220737e-29
5.7335923e-29
5.725761e-29
5.7227871e-29
5.7218457e-29
5.7215928e-29
5.7215381e-29
5.7215545e-29
5.7216712e-29
5.7220737e-29
5.7232364e-29
1.528388e-28
1.5262962e-28
1.5255026e-28
1.5252514e-28
1.5251839e-28
1.5251687e-28
1.5251708e-28
1.5251929e-28
1.5252702e-28
1.5254932e-28
1.5262962e-28
1.5242146e-28
1.523424e-28
1.5231736e-28
1.5231063e-28
1.5230914e-28
1.5230943e-28
1.5231203e-28
1.5232123e-28
1.5234873e-28
1.5255026e-28
1.523424e-28
1.5226347e-28
1.5223848e-28
1.5223176e-28
1.5223029e-28
1.5223065e-28
1.5223349e-28
1.5224342e-28
1.5227237e-28
1.5252514e-28
1.5231736e-28
1.5223848e-28
1.5221351e-28
1.5220679e-28
1.5220533e-28
1.5220572e-28
1.5220867e-28
1.5221884e-28
1.5224816e-28
1.5251839e-28
1.5231063e-28
1.5223176e-28
1.5220679e-28
1.5220009e-28
1.5219863e-28
1.5219903e-28
1.52202e-28
1.5221224e-28
1.5224165e-28
1.5251687e-28
1.5230914e-28
1.5223029e-28
1.5220533e-28
1.5219863e-28
1.5219717e-28
1.5219758e-28
1.5220056e-28
1.5221081e-28
1.5224024e-28
1.5251708e-28
1.5230943e-28
1.5223065e-28
1.5220572e-28
1.5219903e-28
1.5219758e-28
1.5219799e-28
1.5220097e-28
1.5221123e-28
1.5224066e-28
1.5251929e-28
1.5231203e-28
1.5223349e-28
1.5220867e-28
1.52202e-28
1.5220056e-28
1.5220097e-28
1.5220396e-28
1.5221422e-28
1.5224366e-28
1.5252702e-28
1.5232123e-28
1.5224342e-28
1.5221884e-28
1.5221224e-28
1.5221081e-28
1.5221123e-28
1.5221422e-28
1.5222449e-28
1.5225394e-28
1.5254932e-28
1.5234873e-28
1.5227237e-28
1.5224816e-28
1.5224165e-28
1.5224024e-28
1.5224066e-28
1.5224366e-28
1.5225394e-28
1.5228348e-28
4.1251124e-28
4.1196753e-28
4.1176078e-28
4.1169525e-28
4.1167761e-28
4.1167365e-28
4.1167416e-28
4.1167987e-28
4.1169972e-28
4.1175656e-28
4.1196753e-28
4.1142643e-28
4.1122044e-28
4.1115513e-28
4.1113755e-28
4.1113365e-28
4.1113441e-28
4.1114114e-28
4.111649e-28
4.1123563e-28
4.1176078e-28
4.1122044e-28
4.1101479e-28
4.109496e-28
4.1093206e-28
4.1092821e-28
4.1092915e-28
4.1093654e-28
4.1096225e-28
4.1103682e-28
4.1169525e-28
4.1115513e-28
4.109496e-28
4.1088445e-28
4.1086692e-28
4.108631e-28
4.1086412e-28
4.1087177e-28
4.1089814e-28
4.1097371e-28
4.1167761e-28
4.1113755e-28
4.1093206e-28
4.1086692e-28
4.1084941e-28
4.1084559e-28
4.1084664e-28
4.1085438e-28
4.1088092e-28
4.1095672e-28
4.1167365e-28
4.1113365e-28
4.1092821e-28
4.108631e-28
4.1084559e-28
4.1084179e-28
4.1084285e-28
4.108506e-28
4.1087719e-28
4.1095304e-28
4.1167416e-28
4.1113441e-28
4.1092915e-28
4.1086412e-28
4.1084664e-28
4.1084285e-28
4.1084391e-28
4.1085167e-28
4.1087827e-28
4.1095413e-28
4.1167987e-28
4.1114114e-28
4.1093654e-28
4.1087177e-28
4.1085438e-28
4.108506e-28
4.1085167e-28
4.1085944e-28
4.1088604e-28
4.1096192e-28
4.1169972e-28
4.111649e-28
4.1096225e-28
4.1089814e-28
4.1088092e-28
4.1087719e-28
4.1087827e-28
4.1088604e-28
4.1091267e-28
4.1098859e-28
4.1175656e-28
4.1123563e-28
4.1103682e-28
4.1097371e-28
4.1095672e-28
4.1095304e-28
4.1095413e-28
4.1096192e-28
4.1098859e-28
4.1106472e-28
1.1294921e-27
1.1280592e-27
1.1275131e-27
1.1273398e-27
1.1272931e-27
1.1272826e-27
1.1272839e-27
1.1272988e-27
1.1273505e-27
1.1274974e-27
1.1280592e-27
1.1266331e-27
1.126089e-27
1.1259162e-27
1.1258697e-27
1.1258593e-27
1.1258613e-27
1.125879e-27
1.1259413e-27
1.1261258e-27
1.1275131e-27
1.126089e-27
1.1255457e-27
1.1253733e-27
1.1253269e-27
1.1253167e-27
1.1253191e-27
1.1253386e-27
1.1254062e-27
1.1256011e-27
1.1273398e-27
1.1259162e-27
1.1253733e-27
1.125201e-27
1.1251546e-27
1.1251444e-27
1.1251471e-27
1.1251673e-27
1.1252367e-27
1.1254343e-27
1.1272931e-27
1.1258697e-27
1.1253269e-27
1.1251546e-27
1.1251082e-27
1.1250981e-27
1.1251009e-27
1.1251213e-27
1.1251911e-27
1.1253893e-27
1.1272826e-27
1.1258593e-27
1.1253167e-27
1.1251444e-27
1.1250981e-27
1.125088e-27
1.1250908e-27
1.1251113e-27
1.1251812e-27
1.1253796e-27
1.1272839e-27
1.1258613e-27
1.1253191e-27
1.1251471e-27
1.1251009e-27
1.1250908e-27
1.1250936e-27
1.1251141e-27
1.1251841e-27
1.1253825e-27
1.1272988e-27
1.125879e-27
1.1253386e-27
1.1251673e-27
1.1251213e-27
1.1251113e-27
1.1251141e-27
1.1251346e-27
1.1252046e-27
1.125403e-27
1.1273505e-27
1.1259413e-27
1.1254062e-27
1.1252367e-27
1.1251911e-27
1.1251812e-27
1.1251841e-27
1.1252046e-27
1.1252746e-27
1.1254732e-27
1.1274974e-27
1.1261258e-27
1.1256011e-27
1.1254343e-27
1.1253893e-27
1.1253796e-27
1.1253825e-27
1.125403e-27
1.1254732e-27
1.1256722e-27
3.1373888e-27
3.13356e-27
3.1320976e-27
3.1316329e-27
3.1315076e-27
3.1314794e-27
3.1314828e-27
3.1315225e-27
3.1316591e-27
3.1320441e-27
3.13356e-27
3.1297492e-27
3.1282921e-27
3.1278289e-27
3.127704e-27
3.1276762e-27
3.1276815e-27
3.1277287e-27
3.1278944e-27
3.1283826e-27
3.1320976e-27
3.1282921e-27
3.1268373e-27
3.126375e-27
3.1262503e-27
3.1262229e-27
3.1262295e-27
3.1262816e-27
3.1264617e-27
3.1269785e-27
3.1316329e-27
3.1278289e-27
3.126375e-27
3.1259129e-27
3.1257883e-27
3.1257611e-27
3.1257683e-27
3.1258224e-27
3.1260073e-27
3.1265315e-27
3.1315076e-27
3.127704e-27
3.1262503e-27
3.1257883e-27
3.1256639e-27
3.1256367e-27
3.1256442e-27
3.1256988e-27
3.1258851e-27
3.126411e-27
3.1314794e-27
3.1276762e-27
3.1262229e-27
3.1257611e-27
3.1256367e-27
3.1256097e-27
3.1256171e-27
3.125672e-27
3.1258585e-27
3.1263848e-27
3.1314828e-27
3.1276815e-27
3.1262295e-27
3.1257683e-27
3.1256442e-27
3.1256171e-27
3.1256247e-27
3.1256795e-27
3.1258662e-27
3.1263926e-27
3.1315225e-27
3.1277287e-27
3.1262816e-27
3.1258224e-27
3.1256988e-27
3.125672e-27
3.1256795e-27
3.1257344e-27
3.1259212e-27
3.1264476e-27
3.1316591e-27
3.1278944e-27
3.1264617e-27
3.1260073e-27
3.1258851e-27
3.1258585e-27
3.1258662e-27
3.1259212e-27
3.126108e-27
3.1266348e-27
3.1320441e-27
3.1283826e-27
3.1269785e-27
3.1265315e-27
3.126411e-27
3.1263848e-27
3.1263926e-27
3.1264476e-27
3.1266348e-27
3.1271629e-27
8.8405198e-27
8.830148e-27
8.826178e-27
8.824915e-27
8.8245739e-27
8.824497e-27
8.8245062e-27
8.8246129e-27
8.8249791e-27
8.8260024e-27
8.830148e-27
8.8198245e-27
8.8158686e-27
8.8146095e-27
8.8142696e-27
8.814194e-27
8.8142082e-27
8.8143359e-27
8.8147829e-27
8.8160936e-27
8.826178e-27
8.8158686e-27
8.8119191e-27
8.8106622e-27
8.810323e-27
8.8102484e-27
8.8102663e-27
8.8104077e-27
8.8108947e-27
8.812285e-27
8.824915e-27
8.8146095e-27
8.8106622e-27
8.809406e-27
8.8090672e-27
8.8089931e-27
8.8090127e-27
8.8091595e-27
8.8096601e-27
8.8110709e-27
8.8245739e-27
8.8142696e-27
8.810323e-27
8.8090672e-27
8.8087286e-27
8.8086547e-27
8.8086749e-27
8.8088233e-27
8.8093275e-27
8.8107431e-27
8.824497e-27
8.814194e-27
8.8102484e-27
8.8089931e-27
8.8086547e-27
8.808581e-27
8.8086013e-27
8.8087502e-27
8.8092553e-27
8.8106719e-27
8.8245062e-27
8.8142082e-27
8.8102663e-27
8.8090127e-27
8.8086749e-27
8.8086013e-27
8.8086218e-27
8.8087709e-27
8.8092761e-27
8.810693e-27
8.8246129e-27
8.8143359e-27
8.8104077e-27
8.8091595e-27
8.8088233e-27
8.8087502e-27
8.8087709e-27
8.80892e-27
8.8094254e-27
8.8108425e-27
8.8249791e-27
8.8147829e-27
8.8108947e-27
8.8096601e-27
8.8093275e-27
8.8092553e-27
8.8092761e-27
8.8094254e-27
8.8099312e-27
8.8113491e-27
8.8260024e-27
8.8160936e-27
8.812285e-27
8.8110709e-27
8.8107431e-27
8.8106719e-27
8.810693e-27
8.8108425e-27
8.8113491e-27
8.8127706e-27
2.526923e-26
2.5240748e-26
2.5229823e-26
2.5226343e-26
2.5225402e-26
2.522519e-26
2.5225214e-26
2.5225506e-26
2.5226501e-26
2.522926e-26
2.5240748e-26
2.5212397e-26
2.520151e-26
2.519804e-26
2.5197103e-26
2.5196894e-26
2.5196933e-26
2.5197284e-26
2.5198507e-26
2.5202077e-26
2.5229823e-26
2.520151e-26
2.519064e-26
2.5187177e-26
2.5186242e-26
2.5186036e-26
2.5186085e-26
2.5186474e-26
2.518781e-26
2.5191604e-26
2.5226343e-26
2.519804e-26
2.5187177e-26
2.5183716e-26
2.5182781e-26
2.5182577e-26
2.5182631e-26
2.5183035e-26
2.5184409e-26
2.5188261e-26
2.5225402e-26
2.5197103e-26
2.5186242e-26
2.5182781e-26
2.5181847e-26
2.5181644e-26
2.5181699e-26
2.5182108e-26
2.5183493e-26
2.5187358e-26
2.522519e-26
2.5196894e-26
2.5186036e-26
2.5182577e-26
2.5181644e-26
2.518144e-26
2.5181496e-26
2.5181906e-26
2.5183293e-26
2.5187162e-26
2.5225214e-26
2.5196933e-26
2.5186085e-26
2.5182631e-26
2.5181699e-26
2.5181496e-26
2.5181553e-26
2.5181963e-26
2.5183351e-26
2.518722e-26
2.5225506e-26
2.5197284e-26
2.5186474e-26
2.5183035e-26
2.5182108e-26
2.5181906e-26
2.5181963e-26
2.5182374e-26
2.5183762e-26
2.5187632e-26
2.5226501e-26
2.5198507e-26
2.518781e-26
2.5184409e-26
2.5183493e-26
2.5183293e-26
2.5183351e-26
2.5183762e-26
2.5185151e-26
2.5189023e-26
2.522926e-26
2.5202077e-26
2.5191604e-26
2.5188261e-26
2.5187358e-26
2.5187162e-26
2.518722e-26
2.5187632e-26
2.5189023e-26
2.5192905e-26
7.3263026e-26
7.3183741e-26
7.3153267e-26
7.3143548e-26
7.3140918e-26
7.3140324e-26
7.3140392e-26
7.3141199e-26
7.3143943e-26
7.3151486e-26
7.3183741e-26
7.3104817e-26
7.3074449e-26
7.306476e-26
7.3062139e-26
7.3061555e-26
7.3061663e-26
7.3062639e-26
7.3066034e-26
7.3075896e-26
7.3153267e-26
7.3074449e-26
7.3044129e-26
7.3034456e-26
7.3031841e-26
7.3031265e-26
7.3031403e-26
7.3032489e-26
7.3036207e-26
7.304671e-26
7.3143548e-26
7.306476e-26
7.3034456e-26
7.3024789e-26
7.3022177e-26
7.3021605e-26
7.3021756e-26
7.3022886e-26
7.3026712e-26
7.3037381e-26
7.3140918e-26
7.3062139e-26
7.3031841e-26
7.3022177e-26
7.3019566e-26
7.3018996e-26
7.3019152e-26
7.3020295e-26
7.3024151e-26
7.3034858e-26
7.3140324e-26
7.3061555e-26
7.3031265e-26
7.3021605e-26
7.3018996e-26
7.3018427e-26
7.3018584e-26
7.3019731e-26
7.3023594e-26
7.303431e-26
7.3140392e-26
7.3061663e-26
7.3031403e-26
7.3021756e-26
7.3019152e-26
7.3018584e-26
7.3018743e-26
7.301989e-26
7.3023755e-26
7.3034473e-26
7.3141199e-26
7.3062639e-26
7.3032489e-26
7.3022886e-26
7.3020295e-26
7.3019731e-26
7.301989e-26
7.3021038e-26
7.3024904e-26
7.3035624e-26
7.3143943e-26
7.3066034e-26
7.3036207e-26
7.3026712e-26
7.3024151e-26
7.3023594e-26
7.3023755e-26
7.3024904e-26
7.3028773e-26
7.3039499e-26
7.3151486e-26
7.3075896e-26
7.304671e-26
7.3037381e-26
7.3034858e-26
7.303431e-26
7.3034473e-26
7.3035624e-26