/*--------------------------------*- C++ -*----------------------------------*\
| =========                 |                                                 |
| \\      /  F ield         | OpenFOAM: The Open Source CFD Toolbox           |
|  \\    /   O peration     | Version:  dev                                   |
|   \\  /    A nd           | Web:      www.OpenFOAM.org                      |
|    \\/     M anipulation  |                                                 |
\*---------------------------------------------------------------------------*/
FoamFile
{
    version     2.0;
    format      ascii;
    class       volScalarField;
    location    "99.995";
    object      A;
}
// * * * * * * * * * * * * * * * * * * * * * * * * * * * * * * * * * * * * * //

dimensions      [0 0 0 0 1 0 0];

internalField   nonuniform List<scalar> 
10000
(
6.8042032e-21
6.7989753e-21
6.7960201e-21
6.7942598e-21
6.7932503e-21
6.7927431e-21
6.7926081e-21
6.7928164e-21
6.7934536e-21
6.794685e-21
6.7989753e-21
6.7937666e-21
6.7908181e-21
6.7890613e-21
6.7880545e-21
6.7875508e-21
6.787422e-21
6.7876437e-21
6.7883146e-21
6.7896414e-21
6.7960201e-21
6.7908181e-21
6.7878743e-21
6.7861209e-21
6.7851177e-21
6.7846186e-21
6.7844977e-21
6.7847333e-21
6.7854281e-21
6.7867882e-21
6.7942598e-21
6.7890613e-21
6.7861209e-21
6.7843709e-21
6.7833713e-21
6.782877e-21
6.7827629e-21
6.7830088e-21
6.7837173e-21
6.7850905e-21
6.7932503e-21
6.7880545e-21
6.7851177e-21
6.7833713e-21
6.7823755e-21
6.7818854e-21
6.7817767e-21
6.7820293e-21
6.7827454e-21
6.7841244e-21
6.7927431e-21
6.7875508e-21
6.7846186e-21
6.782877e-21
6.7818854e-21
6.7813994e-21
6.7812948e-21
6.7815518e-21
6.782272e-21
6.7836539e-21
6.7926081e-21
6.787422e-21
6.7844977e-21
6.7827629e-21
6.7817767e-21
6.7812948e-21
6.7811935e-21
6.7814535e-21
6.7821764e-21
6.7835598e-21
6.7928164e-21
6.7876437e-21
6.7847333e-21
6.7830088e-21
6.7820293e-21
6.7815518e-21
6.7814535e-21
6.7817158e-21
6.7824404e-21
6.783825e-21
6.7934536e-21
6.7883146e-21
6.7854281e-21
6.7837173e-21
6.7827454e-21
6.782272e-21
6.7821764e-21
6.7824404e-21
6.7831666e-21
6.7845528e-21
6.794685e-21
6.7896414e-21
6.7867882e-21
6.7850905e-21
6.7841244e-21
6.7836539e-21
6.7835598e-21
6.783825e-21
6.7845528e-21
6.7859429e-21
2.2091835e-20
2.2075534e-20
2.2066034e-20
2.2060362e-20
2.2057106e-20
2.2055469e-20
2.2055032e-20
2.20557e-20
2.2057753e-20
2.2061857e-20
2.2075534e-20
2.2059291e-20
2.2049813e-20
2.2044151e-20
2.2040905e-20
2.2039279e-20
2.2038862e-20
2.2039574e-20
2.2041736e-20
2.2046151e-20
2.2066034e-20
2.2049813e-20
2.204035e-20
2.2034699e-20
2.2031464e-20
2.2029853e-20
2.2029462e-20
2.2030219e-20
2.2032458e-20
2.2036981e-20
2.2060362e-20
2.2044151e-20
2.2034699e-20
2.202906e-20
2.2025836e-20
2.2024241e-20
2.2023871e-20
2.2024661e-20
2.2026945e-20
2.2031511e-20
2.2057106e-20
2.2040905e-20
2.2031464e-20
2.2025836e-20
2.2022624e-20
2.2021043e-20
2.2020691e-20
2.2021503e-20
2.2023811e-20
2.2028396e-20
2.2055469e-20
2.2039279e-20
2.2029853e-20
2.2024241e-20
2.2021043e-20
2.2019475e-20
2.2019136e-20
2.2019962e-20
2.2022284e-20
2.2026877e-20
2.2055032e-20
2.2038862e-20
2.2029462e-20
2.2023871e-20
2.2020691e-20
2.2019136e-20
2.2018808e-20
2.2019644e-20
2.2021974e-20
2.2026573e-20
2.20557e-20
2.2039574e-20
2.2030219e-20
2.2024661e-20
2.2021503e-20
2.2019962e-20
2.2019644e-20
2.2020487e-20
2.2022823e-20
2.2027425e-20
2.2057753e-20
2.2041736e-20
2.2032458e-20
2.2026945e-20
2.2023811e-20
2.2022284e-20
2.2021974e-20
2.2022823e-20
2.2025164e-20
2.2029772e-20
2.2061857e-20
2.2046151e-20
2.2036981e-20
2.2031511e-20
2.2028396e-20
2.2026877e-20
2.2026573e-20
2.2027425e-20
2.2029772e-20
2.2034393e-20
4.2907539e-20
4.2876953e-20
4.2858825e-20
4.2847964e-20
4.2841722e-20
4.283858e-20
4.2837736e-20
4.2839004e-20
4.2842921e-20
4.2851013e-20
4.2876953e-20
4.2846474e-20
4.2828386e-20
4.2817546e-20
4.2811321e-20
4.28082e-20
4.2807395e-20
4.2808748e-20
4.2812876e-20
4.2821572e-20
4.2858825e-20
4.2828386e-20
4.2810327e-20
4.2799508e-20
4.2793305e-20
4.2790214e-20
4.2789457e-20
4.2790897e-20
4.2795175e-20
4.280408e-20
4.2847964e-20
4.2817546e-20
4.2799508e-20
4.2788711e-20
4.278253e-20
4.2779468e-20
4.2778755e-20
4.2780259e-20
4.2784623e-20
4.279361e-20
4.2841722e-20
4.2811321e-20
4.2793305e-20
4.278253e-20
4.2776373e-20
4.2773338e-20
4.2772658e-20
4.2774204e-20
4.2778615e-20
4.2787639e-20
4.283858e-20
4.28082e-20
4.2790214e-20
4.2779468e-20
4.2773338e-20
4.2770328e-20
4.2769673e-20
4.2771247e-20
4.2775685e-20
4.2784726e-20
4.2837736e-20
4.2807395e-20
4.2789457e-20
4.2778755e-20
4.2772658e-20
4.2769673e-20
4.2769041e-20
4.2770633e-20
4.2775086e-20
4.2784137e-20
4.2839004e-20
4.2808748e-20
4.2790897e-20
4.2780259e-20
4.2774204e-20
4.2771247e-20
4.2770633e-20
4.2772239e-20
4.2776704e-20
4.2785762e-20
4.2842921e-20
4.2812876e-20
4.2795175e-20
4.2784623e-20
4.2778615e-20
4.2775685e-20
4.2775086e-20
4.2776704e-20
4.2781178e-20
4.2790247e-20
4.2851013e-20
4.2821572e-20
4.280408e-20
4.279361e-20
4.2787639e-20
4.2784726e-20
4.2784137e-20
4.2785762e-20
4.2790247e-20
4.2799342e-20
7.4666187e-20
7.4614744e-20
7.458392e-20
7.4565387e-20
7.4554716e-20
7.4549336e-20
7.4547878e-20
7.4550016e-20
7.4556647e-20
7.4570537e-20
7.4614744e-20
7.4563481e-20
7.4532724e-20
7.4514226e-20
7.4503584e-20
7.449824e-20
7.449685e-20
7.4499133e-20
7.4506132e-20
7.4521069e-20
7.458392e-20
7.4532724e-20
7.4502015e-20
7.4483554e-20
7.4472949e-20
7.4467656e-20
7.446635e-20
7.4468784e-20
7.4476042e-20
7.4491341e-20
7.4565387e-20
7.4514226e-20
7.4483554e-20
7.4465128e-20
7.4454562e-20
7.4449321e-20
7.4448089e-20
7.4450634e-20
7.445804e-20
7.4473482e-20
7.4554716e-20
7.4503584e-20
7.4472949e-20
7.4454562e-20
7.4444037e-20
7.4438841e-20
7.4437668e-20
7.4440285e-20
7.4447773e-20
7.4463278e-20
7.4549336e-20
7.449824e-20
7.4467656e-20
7.4449321e-20
7.4438841e-20
7.4433689e-20
7.4432559e-20
7.4435225e-20
7.4442758e-20
7.4458293e-20
7.4547878e-20
7.449685e-20
7.446635e-20
7.4448089e-20
7.4437668e-20
7.4432559e-20
7.4431467e-20
7.4434164e-20
7.4441725e-20
7.4457277e-20
7.4550016e-20
7.4499133e-20
7.4468784e-20
7.4450634e-20
7.4440285e-20
7.4435225e-20
7.4434164e-20
7.4436886e-20
7.4444466e-20
7.446003e-20
7.4556647e-20
7.4506132e-20
7.4476042e-20
7.445804e-20
7.4447773e-20
7.4442758e-20
7.4441725e-20
7.4444466e-20
7.4452063e-20
7.4467645e-20
7.4570537e-20
7.4521069e-20
7.4491341e-20
7.4473482e-20
7.4463278e-20
7.4458293e-20
7.4457277e-20
7.446003e-20
7.4467645e-20
7.4483274e-20
1.2606862e-19
1.259847e-19
1.2593402e-19
1.2590345e-19
1.258858e-19
1.2587689e-19
1.2587446e-19
1.2587793e-19
1.2588874e-19
1.2591146e-19
1.259847e-19
1.2590106e-19
1.258505e-19
1.2581998e-19
1.2580238e-19
1.2579353e-19
1.2579121e-19
1.2579493e-19
1.2580636e-19
1.2583083e-19
1.2593402e-19
1.258505e-19
1.2580001e-19
1.2576955e-19
1.2575202e-19
1.2574325e-19
1.2574107e-19
1.2574504e-19
1.257569e-19
1.2578199e-19
1.2590345e-19
1.2581998e-19
1.2576955e-19
1.2573915e-19
1.2572168e-19
1.25713e-19
1.2571095e-19
1.257151e-19
1.2572721e-19
1.2575254e-19
1.258858e-19
1.2580238e-19
1.2575202e-19
1.2572168e-19
1.2570428e-19
1.2569568e-19
1.2569372e-19
1.25698e-19
1.2571025e-19
1.2573568e-19
1.2587689e-19
1.2579353e-19
1.2574325e-19
1.25713e-19
1.2569568e-19
1.2568715e-19
1.2568526e-19
1.2568962e-19
1.2570195e-19
1.2572743e-19
1.2587446e-19
1.2579121e-19
1.2574107e-19
1.2571095e-19
1.2569372e-19
1.2568526e-19
1.2568344e-19
1.2568785e-19
1.2570022e-19
1.2572573e-19
1.2587793e-19
1.2579493e-19
1.2574504e-19
1.257151e-19
1.25698e-19
1.2568962e-19
1.2568785e-19
1.256923e-19
1.257047e-19
1.2573023e-19
1.2588874e-19
1.2580636e-19
1.257569e-19
1.2572721e-19
1.2571025e-19
1.2570195e-19
1.2570022e-19
1.257047e-19
1.2571713e-19
1.2574269e-19
1.2591146e-19
1.2583083e-19
1.2578199e-19
1.2575254e-19
1.2573568e-19
1.2572743e-19
1.2572573e-19
1.2573023e-19
1.2574269e-19
1.2576833e-19
2.1177359e-19
2.1163743e-19
2.1155472e-19
2.1150464e-19
2.1147569e-19
2.1146103e-19
2.1145698e-19
2.1146257e-19
2.1148003e-19
2.1151661e-19
2.1163743e-19
2.1150174e-19
2.114192e-19
2.1136922e-19
2.1134034e-19
2.1132579e-19
2.1132192e-19
2.1132792e-19
2.1134641e-19
2.1138594e-19
2.1155472e-19
2.114192e-19
2.1133679e-19
2.1128691e-19
2.1125813e-19
2.1124372e-19
2.1124009e-19
2.1124651e-19
2.1126572e-19
2.1130627e-19
2.1150464e-19
2.1136922e-19
2.1128691e-19
2.1123712e-19
2.1120845e-19
2.1119418e-19
2.1119076e-19
2.1119749e-19
2.1121712e-19
2.1125806e-19
2.1147569e-19
2.1134034e-19
2.1125813e-19
2.1120845e-19
2.111799e-19
2.1116575e-19
2.111625e-19
2.1116942e-19
2.1118928e-19
2.112304e-19
2.1146103e-19
2.1132579e-19
2.1124372e-19
2.1119418e-19
2.1116575e-19
2.1115173e-19
2.1114859e-19
2.1115566e-19
2.1117564e-19
2.1121684e-19
2.1145698e-19
2.1132192e-19
2.1124009e-19
2.1119076e-19
2.111625e-19
2.1114859e-19
2.1114556e-19
2.1115271e-19
2.1117277e-19
2.1121402e-19
2.1146257e-19
2.1132792e-19
2.1124651e-19
2.1119749e-19
2.1116942e-19
2.1115566e-19
2.1115271e-19
2.1115993e-19
2.1118004e-19
2.1122133e-19
2.1148003e-19
2.1134641e-19
2.1126572e-19
2.1121712e-19
2.1118928e-19
2.1117564e-19
2.1117277e-19
2.1118004e-19
2.112002e-19
2.1124153e-19
2.1151661e-19
2.1138594e-19
2.1130627e-19
2.1125806e-19
2.112304e-19
2.1121684e-19
2.1121402e-19
2.1122133e-19
2.1124153e-19
2.1128299e-19
3.5709686e-19
3.5687521e-19
3.5673986e-19
3.5665765e-19
3.5661e-19
3.5658584e-19
3.5657909e-19
3.565881e-19
3.5661632e-19
3.5667516e-19
3.5687521e-19
3.5665432e-19
3.5651926e-19
3.5643719e-19
3.5638968e-19
3.5636568e-19
3.5635925e-19
3.5636894e-19
3.5639888e-19
3.5646265e-19
3.5673986e-19
3.5651926e-19
3.563844e-19
3.563025e-19
3.5625515e-19
3.5623139e-19
3.5622535e-19
3.5623574e-19
3.5626689e-19
3.5633237e-19
3.5665765e-19
3.5643719e-19
3.563025e-19
3.5622076e-19
3.5617359e-19
3.5615007e-19
3.5614437e-19
3.5615528e-19
3.5618713e-19
3.5625327e-19
3.5661e-19
3.5638968e-19
3.5625515e-19
3.5617359e-19
3.5612661e-19
3.561033e-19
3.5609788e-19
3.5610912e-19
3.5614135e-19
3.5620779e-19
3.5658584e-19
3.5636568e-19
3.5623139e-19
3.5615007e-19
3.561033e-19
3.5608019e-19
3.5607497e-19
3.5608644e-19
3.5611887e-19
3.5618545e-19
3.5657909e-19
3.5635925e-19
3.5622535e-19
3.5614437e-19
3.5609788e-19
3.5607497e-19
3.5606992e-19
3.5608154e-19
3.561141e-19
3.5618076e-19
3.565881e-19
3.5636894e-19
3.5623574e-19
3.5615528e-19
3.5610912e-19
3.5608644e-19
3.5608154e-19
3.5609327e-19
3.5612592e-19
3.5619263e-19
3.5661632e-19
3.5639888e-19
3.5626689e-19
3.5618713e-19
3.5614135e-19
3.5611887e-19
3.561141e-19
3.5612592e-19
3.5615864e-19
3.5622544e-19
3.5667516e-19
3.5646265e-19
3.5633237e-19
3.5625327e-19
3.5620779e-19
3.5618545e-19
3.5618076e-19
3.5619263e-19
3.5622544e-19
3.5629243e-19
6.0641485e-19
6.0605164e-19
6.0582877e-19
6.0569296e-19
6.0561408e-19
6.05574e-19
6.055627e-19
6.0557729e-19
6.0562314e-19
6.0571819e-19
6.0605164e-19
6.0568966e-19
6.0546726e-19
6.0533169e-19
6.0525303e-19
6.0521322e-19
6.0520245e-19
6.0521819e-19
6.0526694e-19
6.0537032e-19
6.0582877e-19
6.0546726e-19
6.052452e-19
6.051099e-19
6.0503152e-19
6.0499211e-19
6.0498199e-19
6.0499892e-19
6.0504971e-19
6.0515596e-19
6.0569296e-19
6.0533169e-19
6.051099e-19
6.0497487e-19
6.0489679e-19
6.0485777e-19
6.0484824e-19
6.0486603e-19
6.0491799e-19
6.0502537e-19
6.0561408e-19
6.0525303e-19
6.0503152e-19
6.0489679e-19
6.0481902e-19
6.0478036e-19
6.0477128e-19
6.0478964e-19
6.0484225e-19
6.0495011e-19
6.05574e-19
6.0521322e-19
6.0499211e-19
6.0485777e-19
6.0478036e-19
6.0474204e-19
6.047333e-19
6.0475204e-19
6.04805e-19
6.049131e-19
6.055627e-19
6.0520245e-19
6.0498199e-19
6.0484824e-19
6.0477128e-19
6.047333e-19
6.0472485e-19
6.0474384e-19
6.0479701e-19
6.0490524e-19
6.0557729e-19
6.0521819e-19
6.0499892e-19
6.0486603e-19
6.0478964e-19
6.0475204e-19
6.0474384e-19
6.0476301e-19
6.0481633e-19
6.0492466e-19
6.0562314e-19
6.0526694e-19
6.0504971e-19
6.0491799e-19
6.0484225e-19
6.04805e-19
6.0479701e-19
6.0481633e-19
6.0486977e-19
6.0497822e-19
6.0571819e-19
6.0537032e-19
6.0515596e-19
6.0502537e-19
6.0495011e-19
6.049131e-19
6.0490524e-19
6.0492466e-19
6.0497822e-19
6.05087e-19
1.0383676e-18
1.0377677e-18
1.0373979e-18
1.0371719e-18
1.0370403e-18
1.0369733e-18
1.0369542e-18
1.036978e-18
1.0370531e-18
1.0372077e-18
1.0377677e-18
1.0371699e-18
1.0368008e-18
1.0365752e-18
1.036444e-18
1.0363774e-18
1.0363592e-18
1.036385e-18
1.036465e-18
1.0366338e-18
1.0373979e-18
1.0368008e-18
1.0364324e-18
1.0362072e-18
1.0360764e-18
1.0360105e-18
1.0359935e-18
1.0360213e-18
1.0361047e-18
1.0362783e-18
1.0371719e-18
1.0365752e-18
1.0362072e-18
1.0359824e-18
1.0358522e-18
1.035787e-18
1.0357709e-18
1.0358001e-18
1.0358856e-18
1.0360611e-18
1.0370403e-18
1.036444e-18
1.0360764e-18
1.0358522e-18
1.0357224e-18
1.0356578e-18
1.0356425e-18
1.0356727e-18
1.0357593e-18
1.0359357e-18
1.0369733e-18
1.0363774e-18
1.0360105e-18
1.035787e-18
1.0356578e-18
1.0355938e-18
1.0355791e-18
1.0356099e-18
1.0356971e-18
1.0358738e-18
1.0369542e-18
1.0363592e-18
1.0359935e-18
1.0357709e-18
1.0356425e-18
1.0355791e-18
1.0355648e-18
1.0355961e-18
1.0356836e-18
1.0358606e-18
1.036978e-18
1.036385e-18
1.0360213e-18
1.0358001e-18
1.0356727e-18
1.0356099e-18
1.0355961e-18
1.0356277e-18
1.0357154e-18
1.0358926e-18
1.0370531e-18
1.036465e-18
1.0361047e-18
1.0358856e-18
1.0357593e-18
1.0356971e-18
1.0356836e-18
1.0357154e-18
1.0358034e-18
1.0359807e-18
1.0372077e-18
1.0366338e-18
1.0362783e-18
1.0360611e-18
1.0359357e-18
1.0358738e-18
1.0358606e-18
1.0358926e-18
1.0359807e-18
1.0361586e-18
1.7936246e-18
1.7926256e-18
1.7920069e-18
1.7916275e-18
1.7914063e-18
1.7912933e-18
1.7912609e-18
1.7913001e-18
1.791424e-18
1.7916775e-18
1.7926256e-18
1.7916299e-18
1.7910125e-18
1.7906338e-18
1.7904131e-18
1.790301e-18
1.7902701e-18
1.7903126e-18
1.790445e-18
1.7907227e-18
1.7920069e-18
1.7910125e-18
1.790396e-18
1.7900181e-18
1.7897982e-18
1.7896872e-18
1.7896582e-18
1.7897042e-18
1.7898424e-18
1.7901285e-18
1.7916275e-18
1.7906338e-18
1.7900181e-18
1.7896409e-18
1.7894219e-18
1.789312e-18
1.7892847e-18
1.7893332e-18
1.7894748e-18
1.7897642e-18
1.7914063e-18
1.7904131e-18
1.7897982e-18
1.7894219e-18
1.7892037e-18
1.7890949e-18
1.7890689e-18
1.7891191e-18
1.7892625e-18
1.7895534e-18
1.7912933e-18
1.790301e-18
1.7896872e-18
1.789312e-18
1.7890949e-18
1.7889871e-18
1.7889621e-18
1.7890133e-18
1.7891578e-18
1.7894493e-18
1.7912609e-18
1.7902701e-18
1.7896582e-18
1.7892847e-18
1.7890689e-18
1.7889621e-18
1.7889379e-18
1.7889898e-18
1.7891349e-18
1.7894268e-18
1.7913001e-18
1.7903126e-18
1.7897042e-18
1.7893332e-18
1.7891191e-18
1.7890133e-18
1.7889898e-18
1.7890423e-18
1.7891879e-18
1.78948e-18
1.791424e-18
1.790445e-18
1.7898424e-18
1.7894748e-18
1.7892625e-18
1.7891578e-18
1.7891349e-18
1.7891879e-18
1.7893337e-18
1.7896262e-18
1.7916775e-18
1.7907227e-18
1.7901285e-18
1.7897642e-18
1.7895534e-18
1.7894493e-18
1.7894268e-18
1.78948e-18
1.7896262e-18
1.7899196e-18
3.1260372e-18
3.1243592e-18
3.1233154e-18
3.1226733e-18
3.122298e-18
3.1221062e-18
3.1220506e-18
3.1221157e-18
3.1223219e-18
3.122741e-18
3.1243592e-18
3.1226867e-18
3.121645e-18
3.1210041e-18
3.1206299e-18
3.1204394e-18
3.1203864e-18
3.1204573e-18
3.1206781e-18
3.1211392e-18
3.1233154e-18
3.121645e-18
3.1206049e-18
3.1199653e-18
3.1195924e-18
3.1194039e-18
3.1193542e-18
3.119431e-18
3.119662e-18
3.1201375e-18
3.1226733e-18
3.1210041e-18
3.1199653e-18
3.119327e-18
3.1189556e-18
3.118769e-18
3.1187222e-18
3.1188033e-18
3.1190402e-18
3.1195213e-18
3.122298e-18
3.1206299e-18
3.1195924e-18
3.1189556e-18
3.1185857e-18
3.1184009e-18
3.1183563e-18
3.1184403e-18
3.1186803e-18
3.119164e-18
3.1221062e-18
3.1204394e-18
3.1194039e-18
3.118769e-18
3.1184009e-18
3.1182178e-18
3.118175e-18
3.1182608e-18
3.1185026e-18
3.1189874e-18
3.1220506e-18
3.1203864e-18
3.1193542e-18
3.1187222e-18
3.1183563e-18
3.118175e-18
3.1181335e-18
3.1182206e-18
3.1184634e-18
3.1189489e-18
3.1221157e-18
3.1204573e-18
3.119431e-18
3.1188033e-18
3.1184403e-18
3.1182608e-18
3.1182206e-18
3.1183086e-18
3.1185522e-18
3.1190381e-18
3.1223219e-18
3.1206781e-18
3.119662e-18
3.1190402e-18
3.1186803e-18
3.1185026e-18
3.1184634e-18
3.1185522e-18
3.1187963e-18
3.1192828e-18
3.122741e-18
3.1211392e-18
3.1201375e-18
3.1195213e-18
3.119164e-18
3.1189874e-18
3.1189489e-18
3.1190381e-18
3.1192828e-18
3.1197707e-18
5.4976685e-18
5.4948258e-18
5.4930496e-18
5.4919538e-18
5.4913119e-18
5.4909832e-18
5.4908871e-18
5.4909963e-18
5.4913425e-18
5.4920414e-18
5.4948258e-18
5.4919924e-18
5.4902198e-18
5.4891259e-18
5.4884858e-18
5.4881595e-18
5.488068e-18
5.4881871e-18
5.4885587e-18
5.4893308e-18
5.4930496e-18
5.4902198e-18
5.48845e-18
5.4873583e-18
5.4867205e-18
5.4863976e-18
5.4863117e-18
5.4864412e-18
5.4868306e-18
5.4876278e-18
5.4919538e-18
5.4891259e-18
5.4873583e-18
5.4862688e-18
5.4856336e-18
5.4853141e-18
5.4852332e-18
5.4853702e-18
5.4857697e-18
5.4865768e-18
5.4913119e-18
5.4884858e-18
5.4867205e-18
5.4856336e-18
5.4850011e-18
5.4846846e-18
5.4846077e-18
5.4847496e-18
5.4851547e-18
5.4859661e-18
5.4909832e-18
5.4881595e-18
5.4863976e-18
5.4853141e-18
5.4846846e-18
5.4843711e-18
5.4842971e-18
5.4844422e-18
5.4848504e-18
5.4856639e-18
5.4908871e-18
5.488068e-18
5.4863117e-18
5.4852332e-18
5.4846077e-18
5.4842971e-18
5.4842256e-18
5.4843729e-18
5.4847829e-18
5.4855975e-18
5.4909963e-18
5.4881871e-18
5.4864412e-18
5.4853702e-18
5.4847496e-18
5.4844422e-18
5.4843729e-18
5.4845218e-18
5.484933e-18
5.4857484e-18
5.4913425e-18
5.4885587e-18
5.4868306e-18
5.4857697e-18
5.4851547e-18
5.4848504e-18
5.4847829e-18
5.484933e-18
5.4853453e-18
5.4861616e-18
5.4920414e-18
5.4893308e-18
5.4876278e-18
5.4865768e-18
5.4859661e-18
5.4856639e-18
5.4855975e-18
5.4857484e-18
5.4861616e-18
5.4869803e-18
9.7568062e-18
9.7519486e-18
9.7489003e-18
9.7470139e-18
9.7459068e-18
9.7453388e-18
9.7451714e-18
9.7453559e-18
9.7459423e-18
9.7471181e-18
9.7519486e-18
9.7471069e-18
9.7440647e-18
9.7421816e-18
9.7410775e-18
9.7405137e-18
9.7403543e-18
9.7405564e-18
9.7411874e-18
9.7424918e-18
9.7489003e-18
9.7440647e-18
9.7410271e-18
9.7391479e-18
9.7380478e-18
9.7374899e-18
9.7373405e-18
9.7375606e-18
9.7382229e-18
9.7395714e-18
9.7470139e-18
9.7421816e-18
9.7391479e-18
9.7372725e-18
9.7361769e-18
9.7356249e-18
9.7354843e-18
9.7357176e-18
9.7363977e-18
9.7377635e-18
9.7459068e-18
9.7410775e-18
9.7380478e-18
9.7361769e-18
9.735086e-18
9.7345395e-18
9.7344057e-18
9.7346476e-18
9.7353374e-18
9.7367108e-18
9.7453388e-18
9.7405137e-18
9.7374899e-18
9.7356249e-18
9.7345395e-18
9.7339979e-18
9.7338694e-18
9.7341169e-18
9.7348121e-18
9.7361892e-18
9.7451714e-18
9.7403543e-18
9.7373405e-18
9.7354843e-18
9.7344057e-18
9.7338694e-18
9.7337451e-18
9.7339964e-18
9.7346949e-18
9.7360739e-18
9.7453559e-18
9.7405564e-18
9.7375606e-18
9.7357176e-18
9.7346476e-18
9.7341169e-18
9.7339964e-18
9.7342506e-18
9.7349512e-18
9.7363316e-18
9.7459423e-18
9.7411874e-18
9.7382229e-18
9.7363977e-18
9.7353374e-18
9.7348121e-18
9.7346949e-18
9.7349512e-18
9.7356535e-18
9.7370355e-18
9.7471181e-18
9.7424918e-18
9.7395714e-18
9.7377635e-18
9.7367108e-18
9.7361892e-18
9.7360739e-18
9.7363316e-18
9.7370355e-18
9.7384214e-18
1.7474175e-17
1.7465803e-17
1.7460526e-17
1.7457251e-17
1.7455325e-17
1.7454335e-17
1.7454041e-17
1.7454356e-17
1.7455358e-17
1.7457353e-17
1.7465803e-17
1.7457457e-17
1.7452191e-17
1.7448922e-17
1.7447001e-17
1.7446018e-17
1.7445739e-17
1.7446084e-17
1.7447166e-17
1.7449389e-17
1.7460526e-17
1.7452191e-17
1.7446933e-17
1.744367e-17
1.7441756e-17
1.7440784e-17
1.7440522e-17
1.74409e-17
1.7442036e-17
1.7444338e-17
1.7457251e-17
1.7448922e-17
1.744367e-17
1.7440414e-17
1.7438508e-17
1.7437547e-17
1.74373e-17
1.7437701e-17
1.7438869e-17
1.7441201e-17
1.7455325e-17
1.7447001e-17
1.7441756e-17
1.7438508e-17
1.7436611e-17
1.7435659e-17
1.7435424e-17
1.743584e-17
1.7437026e-17
1.7439371e-17
1.7454335e-17
1.7446018e-17
1.7440784e-17
1.7437547e-17
1.7435659e-17
1.7434716e-17
1.743449e-17
1.7434917e-17
1.7436111e-17
1.7438463e-17
1.7454041e-17
1.7445739e-17
1.7440522e-17
1.74373e-17
1.7435424e-17
1.743449e-17
1.7434273e-17
1.7434706e-17
1.7435906e-17
1.7438262e-17
1.7454356e-17
1.7446084e-17
1.74409e-17
1.7437701e-17
1.743584e-17
1.7434917e-17
1.7434706e-17
1.7435143e-17
1.7436348e-17
1.7438706e-17
1.7455358e-17
1.7447166e-17
1.7442036e-17
1.7438869e-17
1.7437026e-17
1.7436111e-17
1.7435906e-17
1.7436348e-17
1.7437555e-17
1.7439916e-17
1.7457353e-17
1.7449389e-17
1.7444338e-17
1.7441201e-17
1.7439371e-17
1.7438463e-17
1.7438262e-17
1.7438706e-17
1.7439916e-17
1.7442283e-17
3.1583185e-17
3.1568628e-17
3.1559415e-17
3.155368e-17
3.1550301e-17
3.1548561e-17
3.1548041e-17
3.1548583e-17
3.155031e-17
3.1553726e-17
3.1568628e-17
3.1554119e-17
3.1544924e-17
3.1539199e-17
3.1535829e-17
3.1534102e-17
3.1533607e-17
3.1534204e-17
3.1536073e-17
3.1539897e-17
3.1559415e-17
3.1544924e-17
3.1535743e-17
3.1530029e-17
3.1526672e-17
3.1524964e-17
3.15245e-17
3.1525154e-17
3.1527122e-17
3.1531086e-17
3.155368e-17
3.1539199e-17
3.1530029e-17
3.1524328e-17
3.1520984e-17
3.1519295e-17
3.1518859e-17
3.1519555e-17
3.1521579e-17
3.1525597e-17
3.1550301e-17
3.1535829e-17
3.1526672e-17
3.1520984e-17
3.1517656e-17
3.1515983e-17
3.1515569e-17
3.1516292e-17
3.1518347e-17
3.1522389e-17
3.1548561e-17
3.1534102e-17
3.1524964e-17
3.1519295e-17
3.1515983e-17
3.1514327e-17
3.1513929e-17
3.1514669e-17
3.1516741e-17
3.1520795e-17
3.1548041e-17
3.1533607e-17
3.15245e-17
3.1518859e-17
3.1515569e-17
3.1513929e-17
3.1513545e-17
3.1514297e-17
3.1516379e-17
3.1520439e-17
3.1548583e-17
3.1534204e-17
3.1525154e-17
3.1519555e-17
3.1516292e-17
3.1514669e-17
3.1514297e-17
3.1515058e-17
3.1517147e-17
3.1521211e-17
3.155031e-17
3.1536073e-17
3.1527122e-17
3.1521579e-17
3.1518347e-17
3.1516741e-17
3.1516379e-17
3.1517147e-17
3.1519241e-17
3.1523311e-17
3.1553726e-17
3.1539897e-17
3.1531086e-17
3.1525597e-17
3.1522389e-17
3.1520795e-17
3.1520439e-17
3.1521211e-17
3.1523311e-17
3.1527391e-17
5.7609181e-17
5.7583654e-17
5.7567429e-17
5.75573e-17
5.755132e-17
5.7548237e-17
5.7547309e-17
5.754825e-17
5.7551255e-17
5.7557155e-17
5.7583654e-17
5.7558209e-17
5.7542015e-17
5.7531903e-17
5.752594e-17
5.752288e-17
5.7521998e-17
5.7523038e-17
5.7526299e-17
5.7532934e-17
5.7567429e-17
5.7542015e-17
5.7525846e-17
5.7515755e-17
5.7509814e-17
5.7506788e-17
5.7505962e-17
5.7507105e-17
5.7510543e-17
5.7517431e-17
5.75573e-17
5.7531903e-17
5.7515755e-17
5.7505686e-17
5.749977e-17
5.7496777e-17
5.7496001e-17
5.7497219e-17
5.7500758e-17
5.7507744e-17
5.755132e-17
5.752594e-17
5.7509814e-17
5.749977e-17
5.749388e-17
5.7490918e-17
5.7490181e-17
5.7491447e-17
5.7495042e-17
5.7502072e-17
5.7548237e-17
5.752288e-17
5.7506788e-17
5.7496777e-17
5.7490918e-17
5.7487984e-17
5.7487276e-17
5.7488575e-17
5.7492201e-17
5.7499251e-17
5.7547309e-17
5.7521998e-17
5.7505962e-17
5.7496001e-17
5.7490181e-17
5.7487276e-17
5.7486593e-17
5.7487913e-17
5.7491557e-17
5.7498618e-17
5.754825e-17
5.7523038e-17
5.7507105e-17
5.7497219e-17
5.7491447e-17
5.7488575e-17
5.7487913e-17
5.7489249e-17
5.7492905e-17
5.7499973e-17
5.7551255e-17
5.7526299e-17
5.7510543e-17
5.7500758e-17
5.7495042e-17
5.7492201e-17
5.7491557e-17
5.7492905e-17
5.749657e-17
5.7503647e-17
5.7557155e-17
5.7532934e-17
5.7517431e-17
5.7507744e-17
5.7502072e-17
5.7499251e-17
5.7498618e-17
5.7499973e-17
5.7503647e-17
5.7510743e-17
1.0604897e-16
1.0600381e-16
1.0597499e-16
1.0595695e-16
1.0594628e-16
1.0594077e-16
1.059391e-16
1.0594075e-16
1.0594602e-16
1.059563e-16
1.0600381e-16
1.059588e-16
1.0593004e-16
1.0591202e-16
1.0590138e-16
1.0589591e-16
1.0589433e-16
1.0589616e-16
1.059019e-16
1.0591351e-16
1.0597499e-16
1.0593004e-16
1.0590132e-16
1.0588334e-16
1.0587274e-16
1.0586733e-16
1.0586585e-16
1.0586786e-16
1.0587392e-16
1.05886e-16
1.0595695e-16
1.0591202e-16
1.0588334e-16
1.058654e-16
1.0585485e-16
1.058495e-16
1.0584811e-16
1.0585026e-16
1.058565e-16
1.0586876e-16
1.0594628e-16
1.0590138e-16
1.0587274e-16
1.0585485e-16
1.0584434e-16
1.0583905e-16
1.0583772e-16
1.0583996e-16
1.0584631e-16
1.0585864e-16
1.0594077e-16
1.0589591e-16
1.0586733e-16
1.058495e-16
1.0583905e-16
1.0583381e-16
1.0583254e-16
1.0583483e-16
1.0584124e-16
1.0585361e-16
1.059391e-16
1.0589433e-16
1.0586585e-16
1.0584811e-16
1.0583772e-16
1.0583254e-16
1.0583131e-16
1.0583365e-16
1.0584008e-16
1.0585248e-16
1.0594075e-16
1.0589616e-16
1.0586786e-16
1.0585026e-16
1.0583996e-16
1.0583483e-16
1.0583365e-16
1.0583601e-16
1.0584247e-16
1.0585488e-16
1.0594602e-16
1.059019e-16
1.0587392e-16
1.058565e-16
1.0584631e-16
1.0584124e-16
1.0584008e-16
1.0584247e-16
1.0584895e-16
1.0586137e-16
1.059563e-16
1.0591351e-16
1.05886e-16
1.0586876e-16
1.0585864e-16
1.0585361e-16
1.0585248e-16
1.0585488e-16
1.0586137e-16
1.0587382e-16
1.9701462e-16
1.9693406e-16
1.9688242e-16
1.9685001e-16
1.968308e-16
1.9682087e-16
1.9681784e-16
1.9682076e-16
1.968301e-16
1.9684817e-16
1.9693406e-16
1.9685375e-16
1.9680221e-16
1.9676985e-16
1.967507e-16
1.9674084e-16
1.9673797e-16
1.9674122e-16
1.9675141e-16
1.9677194e-16
1.9688242e-16
1.9680221e-16
1.9675076e-16
1.9671846e-16
1.9669938e-16
1.9668964e-16
1.9668695e-16
1.9669054e-16
1.9670133e-16
1.9672269e-16
1.9685001e-16
1.9676985e-16
1.9671846e-16
1.9668624e-16
1.9666724e-16
1.9665761e-16
1.9665509e-16
1.9665893e-16
1.9667005e-16
1.9669174e-16
1.968308e-16
1.967507e-16
1.9669938e-16
1.9666724e-16
1.9664833e-16
1.966388e-16
1.9663641e-16
1.9664041e-16
1.9665171e-16
1.9667355e-16
1.9682087e-16
1.9674084e-16
1.9668964e-16
1.9665761e-16
1.966388e-16
1.9662936e-16
1.9662707e-16
1.9663117e-16
1.9664258e-16
1.9666449e-16
1.9681784e-16
1.9673797e-16
1.9668695e-16
1.9665509e-16
1.9663641e-16
1.9662707e-16
1.9662485e-16
1.9662903e-16
1.966405e-16
1.9666244e-16
1.9682076e-16
1.9674122e-16
1.9669054e-16
1.9665893e-16
1.9664041e-16
1.9663117e-16
1.9662903e-16
1.9663326e-16
1.9664477e-16
1.9666674e-16
1.968301e-16
1.9675141e-16
1.9670133e-16
1.9667005e-16
1.9665171e-16
1.9664258e-16
1.966405e-16
1.9664477e-16
1.9665631e-16
1.966783e-16
1.9684817e-16
1.9677194e-16
1.9672269e-16
1.9669174e-16
1.9667355e-16
1.9666449e-16
1.9666244e-16
1.9666674e-16
1.966783e-16
1.9670036e-16
3.6937013e-16
3.6922514e-16
3.6913185e-16
3.6907312e-16
3.6903826e-16
3.690202e-16
3.6901468e-16
3.6901988e-16
3.6903658e-16
3.6906862e-16
3.6922514e-16
3.6908062e-16
3.689875e-16
3.6892887e-16
3.6889411e-16
3.6887619e-16
3.6887095e-16
3.6887677e-16
3.6889503e-16
3.6893162e-16
3.6913185e-16
3.689875e-16
3.6889453e-16
3.6883602e-16
3.6880139e-16
3.6878368e-16
3.6877878e-16
3.6878523e-16
3.6880459e-16
3.6884274e-16
3.6907312e-16
3.6892887e-16
3.6883602e-16
3.6877764e-16
3.6874316e-16
3.6872566e-16
3.6872106e-16
3.6872797e-16
3.6874795e-16
3.6878671e-16
3.6903826e-16
3.6889411e-16
3.6880139e-16
3.6874316e-16
3.6870884e-16
3.6869153e-16
3.6868717e-16
3.6869438e-16
3.687147e-16
3.6875372e-16
3.690202e-16
3.6887619e-16
3.6878368e-16
3.6872566e-16
3.6869153e-16
3.6867438e-16
3.686702e-16
3.6867761e-16
3.6869812e-16
3.6873726e-16
3.6901468e-16
3.6887095e-16
3.6877878e-16
3.6872106e-16
3.6868717e-16
3.686702e-16
3.6866617e-16
3.6867371e-16
3.6869433e-16
3.6873355e-16
3.6901988e-16
3.6887677e-16
3.6878523e-16
3.6872797e-16
3.6869438e-16
3.6867761e-16
3.6867371e-16
3.6868134e-16
3.6870204e-16
3.6874129e-16
3.6903658e-16
3.6889503e-16
3.6880459e-16
3.6874795e-16
3.687147e-16
3.6869812e-16
3.6869433e-16
3.6870204e-16
3.6872279e-16
3.6876209e-16
3.6906862e-16
3.6893162e-16
3.6884274e-16
3.6878671e-16
3.6875372e-16
3.6873726e-16
3.6873355e-16
3.6874129e-16
3.6876209e-16
3.688015e-16
6.9885295e-16
6.9858981e-16
6.9841981e-16
6.983125e-16
6.9824869e-16
6.982156e-16
6.9820543e-16
6.9821481e-16
6.982449e-16
6.9830222e-16
6.9858981e-16
6.9832749e-16
6.9815781e-16
6.9805069e-16
6.9798705e-16
6.9795423e-16
6.9794457e-16
6.979551e-16
6.9798812e-16
6.9805393e-16
6.9841981e-16
6.9815781e-16
6.979884e-16
6.9788149e-16
6.9781811e-16
6.9778566e-16
6.9777665e-16
6.9778835e-16
6.9782341e-16
6.9789213e-16
6.983125e-16
6.9805069e-16
6.9788149e-16
6.9777483e-16
6.9771172e-16
6.9767966e-16
6.9767122e-16
6.9768377e-16
6.9771999e-16
6.9778984e-16
6.9824869e-16
6.9798705e-16
6.9781811e-16
6.9771172e-16
6.9764892e-16
6.976172e-16
6.9760919e-16
6.976223e-16
6.9765916e-16
6.9772951e-16
6.982156e-16
6.9795423e-16
6.9778566e-16
6.9767966e-16
6.976172e-16
6.975858e-16
6.9757813e-16
6.9759161e-16
6.9762882e-16
6.976994e-16
6.9820543e-16
6.9794457e-16
6.9777665e-16
6.9767122e-16
6.9760919e-16
6.9757813e-16
6.9757075e-16
6.9758446e-16
6.9762188e-16
6.9769259e-16
6.9821481e-16
6.979551e-16
6.9778835e-16
6.9768377e-16
6.976223e-16
6.9759161e-16
6.9758446e-16
6.9759836e-16
6.9763591e-16
6.977067e-16
6.982449e-16
6.9798812e-16
6.9782341e-16
6.9771999e-16
6.9765916e-16
6.9762882e-16
6.9762188e-16
6.9763591e-16
6.9767357e-16
6.9774444e-16
6.9830222e-16
6.9805393e-16
6.9789213e-16
6.9778984e-16
6.9772951e-16
6.976994e-16
6.9769259e-16
6.977067e-16
6.9774444e-16
6.978155e-16
1.334305e-15
1.3338234e-15
1.333511e-15
1.3333132e-15
1.3331955e-15
1.3331343e-15
1.3331154e-15
1.3331325e-15
1.3331872e-15
1.3332907e-15
1.3338234e-15
1.3333432e-15
1.3330314e-15
1.332834e-15
1.3327166e-15
1.3326559e-15
1.332638e-15
1.3326572e-15
1.3327175e-15
1.3328369e-15
1.333511e-15
1.3330314e-15
1.3327201e-15
1.3325231e-15
1.3324061e-15
1.3323462e-15
1.3323295e-15
1.3323509e-15
1.332415e-15
1.3325399e-15
1.3333132e-15
1.332834e-15
1.3325231e-15
1.3323266e-15
1.3322101e-15
1.3321509e-15
1.3321352e-15
1.3321583e-15
1.3322245e-15
1.3323516e-15
1.3331955e-15
1.3327166e-15
1.3324061e-15
1.3322101e-15
1.3320942e-15
1.3320356e-15
1.3320208e-15
1.3320449e-15
1.3321123e-15
1.3322403e-15
1.3331343e-15
1.3326559e-15
1.3323462e-15
1.3321509e-15
1.3320356e-15
1.3319777e-15
1.3319635e-15
1.3319882e-15
1.3320563e-15
1.3321847e-15
1.3331154e-15
1.332638e-15
1.3323295e-15
1.3321352e-15
1.3320208e-15
1.3319635e-15
1.3319498e-15
1.331975e-15
1.3320435e-15
1.3321722e-15
1.3331325e-15
1.3326572e-15
1.3323509e-15
1.3321583e-15
1.3320449e-15
1.3319882e-15
1.331975e-15
1.3320006e-15
1.3320693e-15
1.3321981e-15
1.3331872e-15
1.3327175e-15
1.332415e-15
1.3322245e-15
1.3321123e-15
1.3320563e-15
1.3320435e-15
1.3320693e-15
1.3321383e-15
1.3322672e-15
1.3332907e-15
1.3328369e-15
1.3325399e-15
1.3323516e-15
1.3322403e-15
1.3321847e-15
1.3321722e-15
1.3321981e-15
1.3322672e-15