/*--------------------------------*- C++ -*----------------------------------*\
| =========                 |                                                 |
| \\      /  F ield         | OpenFOAM: The Open Source CFD Toolbox           |
|  \\    /   O peration     | Version:  dev                                   |
|   \\  /    A nd           | Web:      www.OpenFOAM.org                      |
|    \\/     M anipulation  |                                                 |
\*---------------------------------------------------------------------------*/
FoamFile
{
    version     2.0;
    format      ascii;
    class       volScalarField;
    location    "42.995";
    object      A;
}
// * * * * * * * * * * * * * * * * * * * * * * * * * * * * * * * * * * * * * //

dimensions      [0 0 0 0 1 0 0];

internalField   nonuniform List<scalar> 
10000
(
5.3541994e-36
5.341969e-36
5.338469e-36
5.3376294e-36
5.3374539e-36
5.3374197e-36
5.3374273e-36
5.3375138e-36
5.3379127e-36
5.3392902e-36
5.341969e-36
5.329813e-36
5.3263313e-36
5.3254958e-36
5.3253212e-36
5.3252875e-36
5.3252971e-36
5.3253946e-36
5.325845e-36
5.3274305e-36
5.338469e-36
5.3263313e-36
5.3228559e-36
5.3220221e-36
5.3218478e-36
5.3218144e-36
5.3218253e-36
5.3219284e-36
5.3224e-36
5.3240359e-36
5.3376294e-36
5.3254958e-36
5.3220221e-36
5.3211887e-36
5.3210145e-36
5.3209813e-36
5.3209927e-36
5.3210976e-36
5.3215748e-36
5.3232212e-36
5.3374539e-36
5.3253212e-36
5.3218478e-36
5.3210145e-36
5.3208405e-36
5.3208073e-36
5.3208189e-36
5.3209243e-36
5.3214026e-36
5.323051e-36
5.3374197e-36
5.3252875e-36
5.3218144e-36
5.3209813e-36
5.3208073e-36
5.3207742e-36
5.3207858e-36
5.3208913e-36
5.3213699e-36
5.3230186e-36
5.3374273e-36
5.3252971e-36
5.3218253e-36
5.3209927e-36
5.3208189e-36
5.3207858e-36
5.3207974e-36
5.320903e-36
5.3213817e-36
5.3230305e-36
5.3375138e-36
5.3253946e-36
5.3219284e-36
5.3210976e-36
5.3209243e-36
5.3208913e-36
5.320903e-36
5.3210087e-36
5.3214875e-36
5.3231365e-36
5.3379127e-36
5.325845e-36
5.3224e-36
5.3215748e-36
5.3214026e-36
5.3213699e-36
5.3213817e-36
5.3214875e-36
5.3219668e-36
5.323617e-36
5.3392902e-36
5.3274305e-36
5.3240359e-36
5.3232212e-36
5.323051e-36
5.3230186e-36
5.3230305e-36
5.3231365e-36
5.323617e-36
5.3252727e-36
2.0109575e-35
2.0065462e-35
2.0052524e-35
2.0049414e-35
2.0048763e-35
2.0048636e-35
2.0048664e-35
2.0048982e-35
2.0050454e-35
2.0055789e-35
2.0065462e-35
2.0021614e-35
2.0008742e-35
2.0005646e-35
2.0004998e-35
2.0004873e-35
2.0004908e-35
2.0005267e-35
2.0006933e-35
2.0013053e-35
2.0052524e-35
2.0008742e-35
1.9995893e-35
1.9992803e-35
1.9992157e-35
1.9992033e-35
1.9992073e-35
1.9992453e-35
1.9994199e-35
2.0000507e-35
2.0049414e-35
2.0005646e-35
1.9992803e-35
1.9989715e-35
1.9989069e-35
1.9988946e-35
1.9988988e-35
1.9989375e-35
1.9991141e-35
1.9997488e-35
2.0048763e-35
2.0004998e-35
1.9992157e-35
1.9989069e-35
1.9988424e-35
1.9988301e-35
1.9988343e-35
1.9988732e-35
1.9990503e-35
1.9996857e-35
2.0048636e-35
2.0004873e-35
1.9992033e-35
1.9988946e-35
1.9988301e-35
1.9988178e-35
1.998822e-35
1.998861e-35
1.9990381e-35
1.9996737e-35
2.0048664e-35
2.0004908e-35
1.9992073e-35
1.9988988e-35
1.9988343e-35
1.998822e-35
1.9988263e-35
1.9988653e-35
1.9990425e-35
1.9996781e-35
2.0048982e-35
2.0005267e-35
1.9992453e-35
1.9989375e-35
1.9988732e-35
1.998861e-35
1.9988653e-35
1.9989043e-35
1.9990815e-35
1.9997172e-35
2.0050454e-35
2.0006933e-35
1.9994199e-35
1.9991141e-35
1.9990503e-35
1.9990381e-35
1.9990425e-35
1.9990815e-35
1.9992589e-35
1.9998951e-35
2.0055789e-35
2.0013053e-35
2.0000507e-35
1.9997488e-35
1.9996857e-35
1.9996737e-35
1.9996781e-35
1.9997172e-35
1.9998951e-35
2.0005334e-35
5.0608634e-35
5.0501278e-35
5.0469516e-35
5.0461863e-35
5.046026e-35
5.0459947e-35
5.0460012e-35
5.0460785e-35
5.046437e-35
5.0477788e-35
5.0501278e-35
5.0394556e-35
5.0362954e-35
5.0355338e-35
5.0353742e-35
5.0353433e-35
5.0353518e-35
5.0354393e-35
5.0358462e-35
5.0373848e-35
5.0469516e-35
5.0362954e-35
5.0331409e-35
5.0323807e-35
5.0322214e-35
5.0321908e-35
5.0322005e-35
5.0322933e-35
5.0327201e-35
5.034306e-35
5.0461863e-35
5.0355338e-35
5.0323807e-35
5.0316209e-35
5.0314618e-35
5.0314313e-35
5.0314414e-35
5.031536e-35
5.031968e-35
5.0335638e-35
5.046026e-35
5.0353742e-35
5.0322214e-35
5.0314618e-35
5.0313028e-35
5.0312724e-35
5.0312826e-35
5.0313776e-35
5.0318108e-35
5.0334083e-35
5.0459947e-35
5.0353433e-35
5.0321908e-35
5.0314313e-35
5.0312724e-35
5.031242e-35
5.0312523e-35
5.0313474e-35
5.0317808e-35
5.0333787e-35
5.0460012e-35
5.0353518e-35
5.0322005e-35
5.0314414e-35
5.0312826e-35
5.0312523e-35
5.0312627e-35
5.0313579e-35
5.0317913e-35
5.0333893e-35
5.0460785e-35
5.0354393e-35
5.0322933e-35
5.031536e-35
5.0313776e-35
5.0313474e-35
5.0313579e-35
5.031453e-35
5.0318866e-35
5.0334848e-35
5.046437e-35
5.0358462e-35
5.0327201e-35
5.031968e-35
5.0318108e-35
5.0317808e-35
5.0317913e-35
5.0318866e-35
5.0323206e-35
5.0339199e-35
5.0477788e-35
5.0373848e-35
5.034306e-35
5.0335638e-35
5.0334083e-35
5.0333787e-35
5.0333893e-35
5.0334848e-35
5.0339199e-35
5.0355248e-35
1.2205526e-34
1.2180466e-34
1.2173022e-34
1.2171225e-34
1.2170849e-34
1.2170775e-34
1.2170789e-34
1.2170968e-34
1.2171795e-34
1.2174909e-34
1.2180466e-34
1.2155552e-34
1.2148145e-34
1.2146357e-34
1.2145982e-34
1.2145909e-34
1.2145929e-34
1.2146132e-34
1.2147075e-34
1.2150662e-34
1.2173022e-34
1.2148145e-34
1.2140752e-34
1.2138967e-34
1.2138593e-34
1.213852e-34
1.2138543e-34
1.2138758e-34
1.213975e-34
1.214345e-34
1.2171225e-34
1.2146357e-34
1.2138967e-34
1.2137183e-34
1.2136809e-34
1.2136737e-34
1.213676e-34
1.213698e-34
1.2137984e-34
1.2141708e-34
1.2170849e-34
1.2145982e-34
1.2138593e-34
1.2136809e-34
1.2136435e-34
1.2136363e-34
1.2136387e-34
1.2136608e-34
1.2137615e-34
1.2141342e-34
1.2170775e-34
1.2145909e-34
1.213852e-34
1.2136737e-34
1.2136363e-34
1.2136292e-34
1.2136316e-34
1.2136537e-34
1.2137544e-34
1.2141272e-34
1.2170789e-34
1.2145929e-34
1.2138543e-34
1.213676e-34
1.2136387e-34
1.2136316e-34
1.213634e-34
1.2136561e-34
1.2137568e-34
1.2141297e-34
1.2170968e-34
1.2146132e-34
1.2138758e-34
1.213698e-34
1.2136608e-34
1.2136537e-34
1.2136561e-34
1.2136782e-34
1.213779e-34
1.2141519e-34
1.2171795e-34
1.2147075e-34
1.213975e-34
1.2137984e-34
1.2137615e-34
1.2137544e-34
1.2137568e-34
1.213779e-34
1.2138799e-34
1.214253e-34
1.2174909e-34
1.2150662e-34
1.214345e-34
1.2141708e-34
1.2141342e-34
1.2141272e-34
1.2141297e-34
1.2141519e-34
1.214253e-34
1.2146275e-34
2.957315e-34
2.9514388e-34
2.9496887e-34
2.9492657e-34
2.9491768e-34
2.9491593e-34
2.9491627e-34
2.949204e-34
2.949395e-34
2.9501115e-34
2.9514388e-34
2.9455966e-34
2.9438551e-34
2.943434e-34
2.9433455e-34
2.9433283e-34
2.9433328e-34
2.94338e-34
2.943599e-34
2.9444296e-34
2.9496887e-34
2.9438551e-34
2.9421166e-34
2.9416963e-34
2.9416081e-34
2.941591e-34
2.9415961e-34
2.9416464e-34
2.9418769e-34
2.9427348e-34
2.9492657e-34
2.943434e-34
2.9416963e-34
2.9412762e-34
2.941188e-34
2.941171e-34
2.9411764e-34
2.9412277e-34
2.9414612e-34
2.9423249e-34
2.9491768e-34
2.9433455e-34
2.9416081e-34
2.941188e-34
2.9410999e-34
2.9410829e-34
2.9410884e-34
2.9411399e-34
2.9413741e-34
2.9422388e-34
2.9491593e-34
2.9433283e-34
2.941591e-34
2.941171e-34
2.9410829e-34
2.941066e-34
2.9410715e-34
2.9411231e-34
2.9413574e-34
2.9422222e-34
2.9491627e-34
2.9433328e-34
2.9415961e-34
2.9411764e-34
2.9410884e-34
2.9410715e-34
2.9410771e-34
2.9411287e-34
2.941363e-34
2.9422279e-34
2.949204e-34
2.94338e-34
2.9416464e-34
2.9412277e-34
2.9411399e-34
2.9411231e-34
2.9411287e-34
2.9411803e-34
2.9414147e-34
2.9422797e-34
2.949395e-34
2.943599e-34
2.9418769e-34
2.9414612e-34
2.9413741e-34
2.9413574e-34
2.941363e-34
2.9414147e-34
2.9416494e-34
2.942515e-34
2.9501115e-34
2.9444296e-34
2.9427348e-34
2.9423249e-34
2.9422388e-34
2.9422222e-34
2.9422279e-34
2.9422797e-34
2.942515e-34
2.9433835e-34
7.2578322e-34
7.2438806e-34
7.2397157e-34
7.2387076e-34
7.2384955e-34
7.2384536e-34
7.2384613e-34
7.238558e-34
7.2390039e-34
7.240668e-34
7.2438806e-34
7.2300088e-34
7.2258642e-34
7.2248605e-34
7.2246494e-34
7.2246081e-34
7.2246185e-34
7.2247296e-34
7.2252439e-34
7.2271864e-34
7.2397157e-34
7.2258642e-34
7.2217267e-34
7.2207249e-34
7.2205142e-34
7.2204733e-34
7.2204854e-34
7.220604e-34
7.2211462e-34
7.2231555e-34
7.2387076e-34
7.2248605e-34
7.2207249e-34
7.2197237e-34
7.2195131e-34
7.2194724e-34
7.2194851e-34
7.2196061e-34
7.2201557e-34
7.2221789e-34
7.2384955e-34
7.2246494e-34
7.2205142e-34
7.2195131e-34
7.2193027e-34
7.2192621e-34
7.219275e-34
7.2193966e-34
7.2199478e-34
7.2219735e-34
7.2384536e-34
7.2246081e-34
7.2204733e-34
7.2194724e-34
7.2192621e-34
7.2192216e-34
7.2192346e-34
7.2193563e-34
7.2199079e-34
7.221934e-34
7.2384613e-34
7.2246185e-34
7.2204854e-34
7.2194851e-34
7.219275e-34
7.2192346e-34
7.2192476e-34
7.2193694e-34
7.2199211e-34
7.2219473e-34
7.238558e-34
7.2247296e-34
7.220604e-34
7.2196061e-34
7.2193966e-34
7.2193563e-34
7.2193694e-34
7.2194913e-34
7.2200431e-34
7.2220696e-34
7.2390039e-34
7.2252439e-34
7.2211462e-34
7.2201557e-34
7.2199478e-34
7.2199079e-34
7.2199211e-34
7.2200431e-34
7.2205953e-34
7.2226233e-34
7.240668e-34
7.2271864e-34
7.2231555e-34
7.2221789e-34
7.2219735e-34
7.221934e-34
7.2219473e-34
7.2220696e-34
7.2226233e-34
7.224658e-34
1.8068959e-33
1.8035371e-33
1.8025321e-33
1.8022886e-33
1.8022372e-33
1.8022271e-33
1.8022289e-33
1.8022518e-33
1.8023573e-33
1.8027489e-33
1.8035371e-33
1.8001972e-33
1.7991971e-33
1.7989546e-33
1.7989035e-33
1.7988935e-33
1.7988959e-33
1.7989224e-33
1.7990449e-33
1.7995054e-33
1.8025321e-33
1.7991971e-33
1.7981987e-33
1.7979567e-33
1.7979057e-33
1.7978957e-33
1.7978986e-33
1.797927e-33
1.7980563e-33
1.7985334e-33
1.8022886e-33
1.7989546e-33
1.7979567e-33
1.7977147e-33
1.7976638e-33
1.7976539e-33
1.7976569e-33
1.7976859e-33
1.797817e-33
1.7982975e-33
1.8022372e-33
1.7989035e-33
1.7979057e-33
1.7976638e-33
1.7976128e-33
1.797603e-33
1.797606e-33
1.7976352e-33
1.7977667e-33
1.7982478e-33
1.8022271e-33
1.7988935e-33
1.7978957e-33
1.7976539e-33
1.797603e-33
1.7975932e-33
1.7975962e-33
1.7976254e-33
1.797757e-33
1.7982382e-33
1.8022289e-33
1.7988959e-33
1.7978986e-33
1.7976569e-33
1.797606e-33
1.7975962e-33
1.7975993e-33
1.7976285e-33
1.7977602e-33
1.7982414e-33
1.8022518e-33
1.7989224e-33
1.797927e-33
1.7976859e-33
1.7976352e-33
1.7976254e-33
1.7976285e-33
1.7976577e-33
1.7977894e-33
1.7982707e-33
1.8023573e-33
1.7990449e-33
1.7980563e-33
1.797817e-33
1.7977667e-33
1.797757e-33
1.7977602e-33
1.7977894e-33
1.7979212e-33
1.7984028e-33
1.8027489e-33
1.7995054e-33
1.7985334e-33
1.7982975e-33
1.7982478e-33
1.7982382e-33
1.7982414e-33
1.7982707e-33
1.7984028e-33
1.7988861e-33
4.564727e-33
4.5565248e-33
4.5540656e-33
4.5534686e-33
4.5533427e-33
4.5533176e-33
4.5533218e-33
4.5533771e-33
4.5536305e-33
4.5545651e-33
4.5565248e-33
4.5483686e-33
4.545921e-33
4.5453266e-33
4.5452012e-33
4.5451765e-33
4.5451824e-33
4.5452466e-33
4.5455424e-33
4.5466499e-33
4.5540656e-33
4.545921e-33
4.5434775e-33
4.5428842e-33
4.5427591e-33
4.5427347e-33
4.5427416e-33
4.5428104e-33
4.5431235e-33
4.5442725e-33
4.5534686e-33
4.5453266e-33
4.5428842e-33
4.5422912e-33
4.5421662e-33
4.5421419e-33
4.5421492e-33
4.5422195e-33
4.5425371e-33
4.5436948e-33
4.5533427e-33
4.5452012e-33
4.5427591e-33
4.5421662e-33
4.5420412e-33
4.542017e-33
4.5420244e-33
4.5420951e-33
4.5424137e-33
4.543573e-33
4.5533176e-33
4.5451765e-33
4.5427347e-33
4.5421419e-33
4.542017e-33
4.5419928e-33
4.5420003e-33
4.5420711e-33
4.5423899e-33
4.5435494e-33
4.5533218e-33
4.5451824e-33
4.5427416e-33
4.5421492e-33
4.5420244e-33
4.5420003e-33
4.5420078e-33
4.5420786e-33
4.5423975e-33
4.5435571e-33
4.5533771e-33
4.5452466e-33
4.5428104e-33
4.5422195e-33
4.5420951e-33
4.5420711e-33
4.5420786e-33
4.5421495e-33
4.5424685e-33
4.5436282e-33
4.5536305e-33
4.5455424e-33
4.5431235e-33
4.5425371e-33
4.5424137e-33
4.5423899e-33
4.5423975e-33
4.5424685e-33
4.5427877e-33
4.5439482e-33
4.5545651e-33
4.5466499e-33
4.5442725e-33
4.5436948e-33
4.543573e-33
4.5435494e-33
4.5435571e-33
4.5436282e-33
4.5439482e-33
4.5451125e-33
1.170311e-32
1.1682792e-32
1.1676687e-32
1.1675203e-32
1.167489e-32
1.1674827e-32
1.1674837e-32
1.1674972e-32
1.1675589e-32
1.1677852e-32
1.1682792e-32
1.1662587e-32
1.165651e-32
1.1655033e-32
1.1654721e-32
1.1654659e-32
1.1654673e-32
1.1654831e-32
1.1655556e-32
1.1658259e-32
1.1676687e-32
1.165651e-32
1.1650444e-32
1.164897e-32
1.1648658e-32
1.1648597e-32
1.1648614e-32
1.1648784e-32
1.1649552e-32
1.1652361e-32
1.1675203e-32
1.1655033e-32
1.164897e-32
1.1647495e-32
1.1647184e-32
1.1647124e-32
1.1647141e-32
1.1647315e-32
1.1648095e-32
1.1650926e-32
1.167489e-32
1.1654721e-32
1.1648658e-32
1.1647184e-32
1.1646873e-32
1.1646813e-32
1.1646831e-32
1.1647005e-32
1.1647788e-32
1.1650623e-32
1.1674827e-32
1.1654659e-32
1.1648597e-32
1.1647124e-32
1.1646813e-32
1.1646752e-32
1.1646771e-32
1.1646945e-32
1.1647729e-32
1.1650564e-32
1.1674837e-32
1.1654673e-32
1.1648614e-32
1.1647141e-32
1.1646831e-32
1.1646771e-32
1.1646789e-32
1.1646964e-32
1.1647747e-32
1.1650583e-32
1.1674972e-32
1.1654831e-32
1.1648784e-32
1.1647315e-32
1.1647005e-32
1.1646945e-32
1.1646964e-32
1.1647138e-32
1.1647922e-32
1.1650758e-32
1.1675589e-32
1.1655556e-32
1.1649552e-32
1.1648095e-32
1.1647788e-32
1.1647729e-32
1.1647747e-32
1.1647922e-32
1.1648707e-32
1.1651544e-32
1.1677852e-32
1.1658259e-32
1.1652361e-32
1.1650926e-32
1.1650623e-32
1.1650564e-32
1.1650583e-32
1.1650758e-32
1.1651544e-32
1.1654391e-32
3.0452589e-32
3.0401531e-32
3.0386158e-32
3.0382416e-32
3.0381624e-32
3.0381466e-32
3.038149e-32
3.0381825e-32
3.038335e-32
3.0388907e-32
3.0401531e-32
3.0350753e-32
3.033545e-32
3.0331724e-32
3.0330936e-32
3.033078e-32
3.0330815e-32
3.0331209e-32
3.0333012e-32
3.0339707e-32
3.0386158e-32
3.033545e-32
3.0320174e-32
3.0316454e-32
3.0315668e-32
3.0315514e-32
3.0315555e-32
3.0315979e-32
3.0317896e-32
3.0324864e-32
3.0382416e-32
3.0331724e-32
3.0316454e-32
3.0312737e-32
3.0311951e-32
3.0311798e-32
3.0311842e-32
3.0312275e-32
3.0314222e-32
3.0321247e-32
3.0381624e-32
3.0330936e-32
3.0315668e-32
3.0311951e-32
3.0311165e-32
3.0311013e-32
3.0311058e-32
3.0311493e-32
3.0313447e-32
3.0320482e-32
3.0381466e-32
3.033078e-32
3.0315514e-32
3.0311798e-32
3.0311013e-32
3.031086e-32
3.0310905e-32
3.0311342e-32
3.0313296e-32
3.0320333e-32
3.038149e-32
3.0330815e-32
3.0315555e-32
3.0311842e-32
3.0311058e-32
3.0310905e-32
3.0310951e-32
3.0311388e-32
3.0313343e-32
3.032038e-32
3.0381825e-32
3.0331209e-32
3.0315979e-32
3.0312275e-32
3.0311493e-32
3.0311342e-32
3.0311388e-32
3.0311825e-32
3.031378e-32
3.0320818e-32
3.038335e-32
3.0333012e-32
3.0317896e-32
3.0314222e-32
3.0313447e-32
3.0313296e-32
3.0313343e-32
3.031378e-32
3.0315737e-32
3.032278e-32
3.0388907e-32
3.0339707e-32
3.0324864e-32
3.0321247e-32
3.0320482e-32
3.0320333e-32
3.032038e-32
3.0320818e-32
3.032278e-32
3.0329845e-32
8.0428346e-32
8.0298174e-32
8.0258901e-32
8.024933e-32
8.0247302e-32
8.0246896e-32
8.0246955e-32
8.0247797e-32
8.0251621e-32
8.0265471e-32
8.0298174e-32
8.0168711e-32
8.0129617e-32
8.0120085e-32
8.0118066e-32
8.0117666e-32
8.0117754e-32
8.0118749e-32
8.0123301e-32
8.0140134e-32
8.0258901e-32
8.0129617e-32
8.0090588e-32
8.0081073e-32
8.0079058e-32
8.0078663e-32
8.0078767e-32
8.0079843e-32
8.0084692e-32
8.0102238e-32
8.024933e-32
8.0120085e-32
8.0081073e-32
8.0071563e-32
8.006955e-32
8.0069156e-32
8.0069267e-32
8.0070368e-32
8.0075296e-32
8.009299e-32
8.0247302e-32
8.0118066e-32
8.0079058e-32
8.006955e-32
8.0067537e-32
8.0067145e-32
8.0067258e-32
8.0068365e-32
8.007331e-32
8.0091031e-32
8.0246896e-32
8.0117666e-32
8.0078663e-32
8.0069156e-32
8.0067145e-32
8.0066753e-32
8.0066868e-32
8.0067976e-32
8.0072924e-32
8.009065e-32
8.0246955e-32
8.0117754e-32
8.0078767e-32
8.0069267e-32
8.0067258e-32
8.0066868e-32
8.0066983e-32
8.0068092e-32
8.0073041e-32
8.0090768e-32
8.0247797e-32
8.0118749e-32
8.0079843e-32
8.0070368e-32
8.0068365e-32
8.0067976e-32
8.0068092e-32
8.0069202e-32
8.0074152e-32
8.0091882e-32
8.0251621e-32
8.0123301e-32
8.0084692e-32
8.0075296e-32
8.007331e-32
8.0072924e-32
8.0073041e-32
8.0074152e-32
8.0079107e-32
8.0096847e-32
8.0265471e-32
8.0140134e-32
8.0102238e-32
8.009299e-32
8.0091031e-32
8.009065e-32
8.0090768e-32
8.0091882e-32
8.0096847e-32
8.0114644e-32
2.1561403e-31
2.1527733e-31
2.1517555e-31
2.1515071e-31
2.1514544e-31
2.1514438e-31
2.1514453e-31
2.1514668e-31
2.1515641e-31
2.1519143e-31
2.1527733e-31
2.1494245e-31
2.1484113e-31
2.1481639e-31
2.1481114e-31
2.148101e-31
2.1481032e-31
2.1481288e-31
2.1482454e-31
2.148675e-31
2.1517555e-31
2.1484113e-31
2.1473997e-31
2.1471527e-31
2.1471004e-31
2.1470901e-31
2.1470927e-31
2.1471204e-31
2.147245e-31
2.1476934e-31
2.1515071e-31
2.1481639e-31
2.1471527e-31
2.1469059e-31
2.1468536e-31
2.1468434e-31
2.1468462e-31
2.1468746e-31
2.1470012e-31
2.1474536e-31
2.1514544e-31
2.1481114e-31
2.1471004e-31
2.1468536e-31
2.1468013e-31
2.1467911e-31
2.146794e-31
2.1468225e-31
2.1469496e-31
2.1474027e-31
2.1514438e-31
2.148101e-31
2.1470901e-31
2.1468434e-31
2.1467911e-31
2.1467809e-31
2.1467838e-31
2.1468124e-31
2.1469395e-31
2.1473928e-31
2.1514453e-31
2.1481032e-31
2.1470927e-31
2.1468462e-31
2.146794e-31
2.1467838e-31
2.1467868e-31
2.1468154e-31
2.1469425e-31
2.1473958e-31
2.1514668e-31
2.1481288e-31
2.1471204e-31
2.1468746e-31
2.1468225e-31
2.1468124e-31
2.1468154e-31
2.146844e-31
2.1469712e-31
2.1474245e-31
2.1515641e-31
2.1482454e-31
2.147245e-31
2.1470012e-31
2.1469496e-31
2.1469395e-31
2.1469425e-31
2.1469712e-31
2.1470985e-31
2.1475521e-31
2.1519143e-31
2.148675e-31
2.1476934e-31
2.1474536e-31
2.1474027e-31
2.1473928e-31
2.1473958e-31
2.1474245e-31
2.1475521e-31
2.1480072e-31
5.8673822e-31
5.8585465e-31
5.8558703e-31
5.8552163e-31
5.8550774e-31
5.8550495e-31
5.8550532e-31
5.8551088e-31
5.8553601e-31
5.8562588e-31
5.8585465e-31
5.849758e-31
5.8470936e-31
5.8464423e-31
5.846304e-31
5.8462765e-31
5.8462822e-31
5.8463489e-31
5.8466523e-31
5.8477648e-31
5.8558703e-31
5.8470936e-31
5.8444336e-31
5.8437835e-31
5.8436454e-31
5.8436182e-31
5.8436252e-31
5.8436975e-31
5.8440221e-31
5.8451858e-31
5.8552163e-31
5.8464423e-31
5.8437835e-31
5.8431336e-31
5.8429957e-31
5.8429686e-31
5.842976e-31
5.8430502e-31
5.8433804e-31
5.8445548e-31
5.8550774e-31
5.846304e-31
5.8436454e-31
5.8429957e-31
5.8428578e-31
5.8428308e-31
5.8428384e-31
5.842913e-31
5.8432445e-31
5.8444207e-31
5.8550495e-31
5.8462765e-31
5.8436182e-31
5.8429686e-31
5.8428308e-31
5.8428039e-31
5.8428115e-31
5.8428863e-31
5.843218e-31
5.8443946e-31
5.8550532e-31
5.8462822e-31
5.8436252e-31
5.842976e-31
5.8428384e-31
5.8428115e-31
5.8428192e-31
5.842894e-31
5.8432258e-31
5.8444025e-31
5.8551088e-31
5.8463489e-31
5.8436975e-31
5.8430502e-31
5.842913e-31
5.8428863e-31
5.842894e-31
5.8429689e-31
5.8433007e-31
5.8444775e-31
5.8553601e-31
5.8466523e-31
5.8440221e-31
5.8433804e-31
5.8432445e-31
5.843218e-31
5.8432258e-31
5.8433007e-31
5.8436328e-31
5.8448104e-31
5.8562588e-31
5.8477648e-31
5.8451858e-31
5.8445548e-31
5.8444207e-31
5.8443946e-31
5.8444025e-31
5.8444775e-31
5.8448104e-31
5.8459915e-31
1.6207765e-30
1.618424e-30
1.61771e-30
1.6175354e-30
1.6174982e-30
1.6174907e-30
1.6174917e-30
1.6175063e-30
1.6175721e-30
1.6178062e-30
1.618424e-30
1.6160839e-30
1.6153731e-30
1.6151991e-30
1.6151621e-30
1.6151548e-30
1.6151563e-30
1.6151739e-30
1.615254e-30
1.6155465e-30
1.61771e-30
1.6153731e-30
1.6146635e-30
1.6144898e-30
1.6144529e-30
1.6144456e-30
1.6144474e-30
1.6144666e-30
1.6145525e-30
1.614859e-30
1.6175354e-30
1.6151991e-30
1.6144898e-30
1.6143162e-30
1.6142793e-30
1.6142721e-30
1.614274e-30
1.6142937e-30
1.6143811e-30
1.6146906e-30
1.6174982e-30
1.6151621e-30
1.6144529e-30
1.6142793e-30
1.6142424e-30
1.6142352e-30
1.6142372e-30
1.614257e-30
1.6143448e-30
1.6146548e-30
1.6174907e-30
1.6151548e-30
1.6144456e-30
1.6142721e-30
1.6142352e-30
1.614228e-30
1.61423e-30
1.6142499e-30
1.6143377e-30
1.6146477e-30
1.6174917e-30
1.6151563e-30
1.6144474e-30
1.614274e-30
1.6142372e-30
1.61423e-30
1.614232e-30
1.6142519e-30
1.6143398e-30
1.6146498e-30
1.6175063e-30
1.6151739e-30
1.6144666e-30
1.6142937e-30
1.614257e-30
1.6142499e-30
1.6142519e-30
1.6142718e-30
1.6143597e-30
1.6146698e-30
1.6175721e-30
1.615254e-30
1.6145525e-30
1.6143811e-30
1.6143448e-30
1.6143377e-30
1.6143398e-30
1.6143597e-30
1.6144476e-30
1.6147579e-30
1.6178062e-30
1.6155465e-30
1.614859e-30
1.6146906e-30
1.6146548e-30
1.6146477e-30
1.6146498e-30
1.6146698e-30
1.6147579e-30
1.6150691e-30
4.5448568e-30
4.5385019e-30
4.5365697e-30
4.5360964e-30
4.5359957e-30
4.5359753e-30
4.5359777e-30
4.5360168e-30
4.5361919e-30
4.5368104e-30
4.5385019e-30
4.5321802e-30
4.5302565e-30
4.529785e-30
4.5296846e-30
4.5296646e-30
4.5296686e-30
4.529716e-30
4.5299306e-30
4.5307115e-30
4.5365697e-30
4.5302565e-30
4.5283357e-30
4.5278651e-30
4.5277649e-30
4.5277451e-30
4.52775e-30
4.5278017e-30
4.5280325e-30
4.5288522e-30
4.5360964e-30
4.529785e-30
4.5278651e-30
4.5273947e-30
4.5272946e-30
4.5272749e-30
4.5272802e-30
4.5273332e-30
4.5275683e-30
4.528396e-30
4.5359957e-30
4.5296846e-30
4.5277649e-30
4.5272946e-30
4.5271946e-30
4.5271749e-30
4.5271803e-30
4.5272337e-30
4.5274697e-30
4.5282989e-30
4.5359753e-30
4.5296646e-30
4.5277451e-30
4.5272749e-30
4.5271749e-30
4.5271553e-30
4.5271607e-30
4.5272142e-30
4.5274504e-30
4.5282798e-30
4.5359777e-30
4.5296686e-30
4.52775e-30
4.5272802e-30
4.5271803e-30
4.5271607e-30
4.5271662e-30
4.5272197e-30
4.5274559e-30
4.5282855e-30
4.5360168e-30
4.529716e-30
4.5278017e-30
4.5273332e-30
4.5272337e-30
4.5272142e-30
4.5272197e-30
4.5272733e-30
4.5275096e-30
4.5283392e-30
4.5361919e-30
4.5299306e-30
4.5280325e-30
4.5275683e-30
4.5274697e-30
4.5274504e-30
4.5274559e-30
4.5275096e-30
4.527746e-30
4.5285761e-30
4.5368104e-30
4.5307115e-30
4.5288522e-30
4.528396e-30
4.5282989e-30
4.5282798e-30
4.5282855e-30
4.5283392e-30
4.5285761e-30
4.5294087e-30
1.2937115e-29
1.2919698e-29
1.2914393e-29
1.2913092e-29
1.2912815e-29
1.2912758e-29
1.2912765e-29
1.2912871e-29
1.2913343e-29
1.2915002e-29
1.2919698e-29
1.2902372e-29
1.2897089e-29
1.2895793e-29
1.2895517e-29
1.2895462e-29
1.2895472e-29
1.2895601e-29
1.2896186e-29
1.2898302e-29
1.2914393e-29
1.2897089e-29
1.2891815e-29
1.2890521e-29
1.2890245e-29
1.2890191e-29
1.2890204e-29
1.2890346e-29
1.2890975e-29
1.28932e-29
1.2913092e-29
1.2895793e-29
1.2890521e-29
1.2889228e-29
1.2888952e-29
1.2888898e-29
1.2888912e-29
1.2889058e-29
1.2889699e-29
1.2891947e-29
1.2912815e-29
1.2895517e-29
1.2890245e-29
1.2888952e-29
1.2888677e-29
1.2888623e-29
1.2888638e-29
1.2888784e-29
1.2889428e-29
1.289168e-29
1.2912758e-29
1.2895462e-29
1.2890191e-29
1.2888898e-29
1.2888623e-29
1.2888569e-29
1.2888584e-29
1.288873e-29
1.2889374e-29
1.2891627e-29
1.2912765e-29
1.2895472e-29
1.2890204e-29
1.2888912e-29
1.2888638e-29
1.2888584e-29
1.2888599e-29
1.2888745e-29
1.288939e-29
1.2891643e-29
1.2912871e-29
1.2895601e-29
1.2890346e-29
1.2889058e-29
1.2888784e-29
1.288873e-29
1.2888745e-29
1.2888892e-29
1.2889536e-29
1.289179e-29
1.2913343e-29
1.2896186e-29
1.2890975e-29
1.2889699e-29
1.2889428e-29
1.2889374e-29
1.288939e-29
1.2889536e-29
1.2890182e-29
1.2892436e-29
1.2915002e-29
1.2898302e-29
1.28932e-29
1.2891947e-29
1.289168e-29
1.2891627e-29
1.2891643e-29
1.289179e-29
1.2892436e-29
1.2894697e-29
3.7382748e-29
3.7334319e-29
3.7319541e-29
3.7315912e-29
3.7315138e-29
3.7314981e-29
3.7314998e-29
3.7315288e-29
3.7316583e-29
3.7321098e-29
3.7334319e-29
3.7286139e-29
3.7271424e-29
3.7267809e-29
3.7267037e-29
3.7266883e-29
3.7266912e-29
3.726727e-29
3.7268883e-29
3.7274704e-29
3.7319541e-29
3.7271424e-29
3.7256731e-29
3.7253123e-29
3.7252353e-29
3.72522e-29
3.7252237e-29
3.7252629e-29
3.7254371e-29
3.7260505e-29
3.7315912e-29
3.7267809e-29
3.7253123e-29
3.7249516e-29
3.7248747e-29
3.7248594e-29
3.7248634e-29
3.7249037e-29
3.7250814e-29
3.7257012e-29
3.7315138e-29
3.7267037e-29
3.7252353e-29
3.7248747e-29
3.7247978e-29
3.7247826e-29
3.7247867e-29
3.7248273e-29
3.7250057e-29
3.7256267e-29
3.7314981e-29
3.7266883e-29
3.72522e-29
3.7248594e-29
3.7247826e-29
3.7247675e-29
3.7247716e-29
3.7248123e-29
3.7249908e-29
3.725612e-29
3.7314998e-29
3.7266912e-29
3.7252237e-29
3.7248634e-29
3.7247867e-29
3.7247716e-29
3.7247757e-29
3.7248164e-29
3.724995e-29
3.7256163e-29
3.7315288e-29
3.726727e-29
3.7252629e-29
3.7249037e-29
3.7248273e-29
3.7248123e-29
3.7248164e-29
3.7248572e-29
3.7250358e-29
3.7256571e-29
3.7316583e-29
3.7268883e-29
3.7254371e-29
3.7250814e-29
3.7250057e-29
3.7249908e-29
3.724995e-29
3.7250358e-29
3.7252145e-29
3.7258362e-29
3.7321098e-29
3.7274704e-29
3.7260505e-29
3.7257012e-29
3.7256267e-29
3.725612e-29
3.7256163e-29
3.7256571e-29
3.7258362e-29
3.7264597e-29
1.0965089e-28
1.0951428e-28
1.0947252e-28
1.0946226e-28
1.0946006e-28
1.0945962e-28
1.0945966e-28
1.0946047e-28
1.0946407e-28
1.0947654e-28
1.0951428e-28
1.0937837e-28
1.0933678e-28
1.0932655e-28
1.0932437e-28
1.0932393e-28
1.0932401e-28
1.0932502e-28
1.0932954e-28
1.093458e-28
1.0947252e-28
1.0933678e-28
1.0929526e-28
1.0928505e-28
1.0928287e-28
1.0928244e-28
1.0928254e-28
1.0928365e-28
1.0928854e-28
1.093057e-28
1.0946226e-28
1.0932655e-28
1.0928505e-28
1.0927485e-28
1.0927267e-28
1.0927224e-28
1.0927235e-28
1.0927348e-28
1.0927848e-28
1.0929583e-28
1.0946006e-28
1.0932437e-28
1.0928287e-28
1.0927267e-28
1.0927049e-28
1.0927006e-28
1.0927017e-28
1.0927132e-28
1.0927634e-28
1.0929372e-28
1.0945962e-28
1.0932393e-28
1.0928244e-28
1.0927224e-28
1.0927006e-28
1.0926963e-28
1.0926975e-28
1.0927089e-28
1.0927591e-28
1.092933e-28
1.0945966e-28
1.0932401e-28
1.0928254e-28
1.0927235e-28
1.0927017e-28
1.0926975e-28
1.0926986e-28
1.0927101e-28
1.0927603e-28
1.0929342e-28
1.0946047e-28
1.0932502e-28
1.0928365e-28
1.0927348e-28
1.0927132e-28
1.0927089e-28
1.0927101e-28
1.0927216e-28
1.0927718e-28
1.0929458e-28
1.0946407e-28
1.0932954e-28
1.0928854e-28
1.0927848e-28
1.0927634e-28
1.0927591e-28
1.0927603e-28
1.0927718e-28
1.0928221e-28
1.0929961e-28
1.0947654e-28
1.093458e-28
1.093057e-28
1.0929583e-28
1.0929372e-28
1.092933e-28
1.0929342e-28
1.0929458e-28
1.0929961e-28
1.0931706e-28
3.2647125e-28
3.2608032e-28
3.2596061e-28
3.2593115e-28
3.2592485e-28
3.2592357e-28
3.2592369e-28
3.2592599e-28
3.2593615e-28
3.259711e-28
3.2608032e-28
3.2569137e-28
3.2557215e-28
3.255428e-28
3.2553653e-28
3.2553526e-28
3.2553549e-28
3.2553836e-28
3.2555123e-28
3.2559732e-28
3.2596061e-28
3.2557215e-28
3.2545313e-28
3.2542383e-28
3.2541756e-28
3.2541631e-28
3.2541661e-28
3.2541977e-28
3.2543374e-28
3.2548249e-28
3.2593115e-28
3.255428e-28
3.2542383e-28
3.2539454e-28
3.2538828e-28
3.2538704e-28
3.2538736e-28
3.2539061e-28
3.2540487e-28
3.2545418e-28
3.2592485e-28
3.2553653e-28
3.2541756e-28
3.2538828e-28
3.2538202e-28
3.2538078e-28
3.2538111e-28
3.2538439e-28
3.2539871e-28
3.2544812e-28
3.2592357e-28
3.2553526e-28
3.2541631e-28
3.2538704e-28
3.2538078e-28
3.2537955e-28
3.2537988e-28
3.2538316e-28
3.253975e-28
3.2544692e-28
3.2592369e-28
3.2553549e-28
3.2541661e-28
3.2538736e-28
3.2538111e-28
3.2537988e-28
3.2538021e-28
3.253835e-28
3.2539784e-28
3.2544726e-28
3.2592599e-28
3.2553836e-28
3.2541977e-28
3.2539061e-28
3.2538439e-28
3.2538316e-28
3.253835e-28
3.2538679e-28
3.2540113e-28
3.2545056e-28
3.2593615e-28
3.2555123e-28
3.2543374e-28
3.2540487e-28
3.2539871e-28
3.253975e-28
3.2539784e-28
3.2540113e-28
3.2541548e-28
3.2546494e-28
3.259711e-28
3.2559732e-28
3.2548249e-28
3.2545418e-28
3.2544812e-28
3.2544692e-28
3.2544726e-28
3.2545056e-28
3.2546494e-28
3.2551453e-28
9.8661515e-28
9.854804e-28
9.8513234e-28
9.850466e-28
9.8502823e-28
9.8502448e-28
9.8502483e-28
9.8503143e-28
9.8506052e-28
9.8515993e-28
9.854804e-28
9.8435133e-28
9.840047e-28
9.8391926e-28
9.8390096e-28
9.8389727e-28
9.8389794e-28
9.8390624e-28
9.8394341e-28
9.8407605e-28
9.8513234e-28
9.840047e-28
9.8365859e-28
9.835733e-28
9.8355504e-28
9.8355139e-28
9.8355225e-28
9.8356143e-28
9.8360188e-28
9.8374246e-28
9.850466e-28
9.8391926e-28
9.835733e-28
9.8348805e-28
9.834698e-28
9.8346617e-28
9.834671e-28
9.8347656e-28
9.8351788e-28
9.8366011e-28
9.8502823e-28
9.8390096e-28
9.8355504e-28
9.834698e-28
9.8345156e-28
9.8344795e-28
9.834489e-28
9.8345843e-28
9.8349994e-28
9.8364246e-28
9.8502448e-28
9.8389727e-28
9.8355139e-28
9.8346617e-28
9.8344795e-28
9.8344434e-28
9.834453e-28
9.8345485e-28
9.834964e-28
9.8363898e-28
9.8502483e-28
9.8389794e-28
9.8355225e-28
9.834671e-28
9.834489e-28
9.834453e-28
9.8344627e-28
9.8345582e-28
9.8349738e-28
9.8363997e-28
9.8503143e-28
9.8390624e-28
9.8356143e-28
9.8347656e-28
9.8345843e-28
9.8345485e-28
9.8345582e-28
9.8346538e-28
9.8350695e-28
9.8364956e-28
9.8506052e-28
9.8394341e-28
9.8360188e-28
9.8351788e-28
9.8349994e-28
9.834964e-28
9.8349738e-28
9.8350695e-28
9.8354855e-28
9.8369123e-28
9.8515993e-28
9.8407605e-28
9.8374246e-28
9.8366011e-28
9.8364246e-28
9.8363898e-28
9.8363997e-28
9.8364956e-28
9.8369123e-28
9.8383429e-28
3.0261628e-27
3.0228219e-27
3.0217955e-27
3.0215423e-27
3.0214881e-27
3.0214769e-27
3.0214779e-27
3.0214972e-27
3.0215817e-27
3.0218687e-27
3.0228219e-27
3.0194976e-27
3.0184753e-27
3.0182231e-27
3.018169e-27
3.0181581e-27
3.01816e-27
3.0181844e-27
3.0182934e-27
3.0186809e-27
3.0217955e-27
3.0184753e-27
3.0174546e-27
3.0172028e-27
3.0171488e-27
3.017138e-27
3.0171406e-27
3.0171676e-27
3.0172865e-27
3.017698e-27
3.0215423e-27
3.0182231e-27
3.0172028e-27
3.0169511e-27
3.0168972e-27
3.0168865e-27
3.0168892e-27
3.0169171e-27
3.0170386e-27
3.0174551e-27
3.0214881e-27
3.018169e-27
3.0171488e-27
3.0168972e-27
3.0168433e-27
3.0168326e-27
3.0168354e-27
3.0168635e-27
3.0169856e-27
3.017403e-27
3.0214769e-27
3.0181581e-27
3.017138e-27
3.0168865e-27
3.0168326e-27
3.0168219e-27
3.0168248e-27
3.0168529e-27
3.0169751e-27
3.0173927e-27
3.0214779e-27
3.01816e-27
3.0171406e-27
3.0168892e-27
3.0168354e-27
3.0168248e-27
3.0168276e-27
3.0168558e-27
3.016978e-27
3.0173956e-27
3.0214972e-27
3.0181844e-27
3.0171676e-27
3.0169171e-27
3.0168635e-27
3.0168529e-27
3.0168558e-27
3.016884e-27
3.0170063e-27
3.0174239e-27
3.0215817e-27
3.0182934e-27
3.0172865e-27
3.0170386e-27
3.0169856e-27
3.0169751e-27
3.016978e-27
3.0170063e-27
3.0171286e-27
3.0175465e-27
3.0218687e-27
3.0186809e-27
3.017698e-27
3.0174551e-27
3.017403e-27
3.0173927e-27
3.0173956e-27
3.0174239e-27
3.0175465e-27