/*--------------------------------*- C++ -*----------------------------------*\
| =========                 |                                                 |
| \\      /  F ield         | OpenFOAM: The Open Source CFD Toolbox           |
|  \\    /   O peration     | Version:  dev                                   |
|   \\  /    A nd           | Web:      www.OpenFOAM.org                      |
|    \\/     M anipulation  |                                                 |
\*---------------------------------------------------------------------------*/
FoamFile
{
    version     2.0;
    format      ascii;
    class       volScalarField;
    location    "42.995";
    object      A_0;
}
// * * * * * * * * * * * * * * * * * * * * * * * * * * * * * * * * * * * * * //

dimensions      [0 0 0 0 1 0 0];

internalField   nonuniform List<scalar> 
10000
(
5.063534e-36
5.0519697e-36
5.0486724e-36
5.0478847e-36
5.0477205e-36
5.0476886e-36
5.0476956e-36
5.0477768e-36
5.0481524e-36
5.0494536e-36
5.0519697e-36
5.0404759e-36
5.0371959e-36
5.036412e-36
5.0362486e-36
5.0362171e-36
5.0362261e-36
5.0363175e-36
5.0367417e-36
5.0382397e-36
5.0486724e-36
5.0371959e-36
5.0339218e-36
5.0331394e-36
5.0329764e-36
5.0329452e-36
5.0329553e-36
5.0330521e-36
5.0334962e-36
5.0350417e-36
5.0478847e-36
5.036412e-36
5.0331394e-36
5.0323574e-36
5.0321946e-36
5.0321635e-36
5.032174e-36
5.0322725e-36
5.0327219e-36
5.0342773e-36
5.0477205e-36
5.0362486e-36
5.0329764e-36
5.0321946e-36
5.0320318e-36
5.0320008e-36
5.0320115e-36
5.0321104e-36
5.0325609e-36
5.0341181e-36
5.0476886e-36
5.0362171e-36
5.0329452e-36
5.0321635e-36
5.0320008e-36
5.0319698e-36
5.0319806e-36
5.0320796e-36
5.0325303e-36
5.0340878e-36
5.0476956e-36
5.0362261e-36
5.0329553e-36
5.032174e-36
5.0320115e-36
5.0319806e-36
5.0319914e-36
5.0320905e-36
5.0325413e-36
5.0340989e-36
5.0477768e-36
5.0363175e-36
5.0330521e-36
5.0322725e-36
5.0321104e-36
5.0320796e-36
5.0320905e-36
5.0321896e-36
5.0326405e-36
5.0341983e-36
5.0481524e-36
5.0367417e-36
5.0334962e-36
5.0327219e-36
5.0325609e-36
5.0325303e-36
5.0325413e-36
5.0326405e-36
5.0330918e-36
5.0346508e-36
5.0494536e-36
5.0382397e-36
5.0350417e-36
5.0342773e-36
5.0341181e-36
5.0340878e-36
5.0340989e-36
5.0341983e-36
5.0346508e-36
5.036215e-36
1.90235e-35
1.898178e-35
1.8969587e-35
1.8966668e-35
1.8966059e-35
1.896594e-35
1.8965966e-35
1.8966264e-35
1.8967652e-35
1.8972693e-35
1.898178e-35
1.8940309e-35
1.8928179e-35
1.8925273e-35
1.8924668e-35
1.892455e-35
1.8924583e-35
1.892492e-35
1.892649e-35
1.8932273e-35
1.8969587e-35
1.8928179e-35
1.8916071e-35
1.8913171e-35
1.8912567e-35
1.8912451e-35
1.8912488e-35
1.8912845e-35
1.8914489e-35
1.8920451e-35
1.8966668e-35
1.8925273e-35
1.8913171e-35
1.8910273e-35
1.8909669e-35
1.8909553e-35
1.8909592e-35
1.8909955e-35
1.8911619e-35
1.8917618e-35
1.8966059e-35
1.8924668e-35
1.8912567e-35
1.8909669e-35
1.8909065e-35
1.890895e-35
1.8908989e-35
1.8909354e-35
1.8911022e-35
1.8917027e-35
1.896594e-35
1.892455e-35
1.8912451e-35
1.8909553e-35
1.890895e-35
1.8908835e-35
1.8908874e-35
1.890924e-35
1.8910909e-35
1.8916915e-35
1.8965966e-35
1.8924583e-35
1.8912488e-35
1.8909592e-35
1.8908989e-35
1.8908874e-35
1.8908914e-35
1.890928e-35
1.8910949e-35
1.8916956e-35
1.8966264e-35
1.892492e-35
1.8912845e-35
1.8909955e-35
1.8909354e-35
1.890924e-35
1.890928e-35
1.8909645e-35
1.8911315e-35
1.8917323e-35
1.8967652e-35
1.892649e-35
1.8914489e-35
1.8911619e-35
1.8911022e-35
1.8910909e-35
1.8910949e-35
1.8911315e-35
1.8912986e-35
1.8918998e-35
1.8972693e-35
1.8932273e-35
1.8920451e-35
1.8917618e-35
1.8917027e-35
1.8916915e-35
1.8916956e-35
1.8917323e-35
1.8918998e-35
1.8925031e-35
4.7898927e-35
4.7797345e-35
4.7767399e-35
4.7760214e-35
4.7758714e-35
4.775842e-35
4.7758481e-35
4.7759206e-35
4.7762585e-35
4.7775271e-35
4.7797345e-35
4.7696362e-35
4.7666569e-35
4.7659417e-35
4.7657923e-35
4.7657634e-35
4.7657713e-35
4.7658535e-35
4.7662371e-35
4.767692e-35
4.7767399e-35
4.7666569e-35
4.7636828e-35
4.762969e-35
4.76282e-35
4.7627913e-35
4.7628003e-35
4.7628875e-35
4.7632897e-35
4.7647893e-35
4.7760214e-35
4.7659417e-35
4.762969e-35
4.7622556e-35
4.7621067e-35
4.7620781e-35
4.7620875e-35
4.7621763e-35
4.7625835e-35
4.7640923e-35
4.7758714e-35
4.7657923e-35
4.76282e-35
4.7621067e-35
4.7619578e-35
4.7619293e-35
4.7619389e-35
4.7620281e-35
4.7624363e-35
4.7639468e-35
4.775842e-35
4.7657634e-35
4.7627913e-35
4.7620781e-35
4.7619293e-35
4.7619009e-35
4.7619105e-35
4.7619998e-35
4.7624083e-35
4.7639191e-35
4.7758481e-35
4.7657713e-35
4.7628003e-35
4.7620875e-35
4.7619389e-35
4.7619105e-35
4.7619202e-35
4.7620095e-35
4.7624181e-35
4.763929e-35
4.7759206e-35
4.7658535e-35
4.7628875e-35
4.7621763e-35
4.7620281e-35
4.7619998e-35
4.7620095e-35
4.7620989e-35
4.7625075e-35
4.7640186e-35
4.7762585e-35
4.7662371e-35
4.7632897e-35
4.7625835e-35
4.7624363e-35
4.7624083e-35
4.7624181e-35
4.7625075e-35
4.7629166e-35
4.7644287e-35
4.7775271e-35
4.767692e-35
4.7647893e-35
4.7640923e-35
4.7639468e-35
4.7639191e-35
4.763929e-35
4.7640186e-35
4.7644287e-35
4.7659461e-35
1.1558714e-34
1.1534989e-34
1.1527967e-34
1.1526279e-34
1.1525926e-34
1.1525857e-34
1.152587e-34
1.1526038e-34
1.1526818e-34
1.1529763e-34
1.1534989e-34
1.1511402e-34
1.1504415e-34
1.1502735e-34
1.1502383e-34
1.1502315e-34
1.1502333e-34
1.1502524e-34
1.1503414e-34
1.1506807e-34
1.1527967e-34
1.1504415e-34
1.149744e-34
1.1495763e-34
1.1495412e-34
1.1495345e-34
1.1495366e-34
1.1495568e-34
1.1496503e-34
1.1500003e-34
1.1526279e-34
1.1502735e-34
1.1495763e-34
1.1494087e-34
1.1493737e-34
1.1493669e-34
1.1493691e-34
1.1493898e-34
1.1494844e-34
1.1498367e-34
1.1525926e-34
1.1502383e-34
1.1495412e-34
1.1493737e-34
1.1493387e-34
1.1493319e-34
1.1493342e-34
1.1493549e-34
1.1494498e-34
1.1498025e-34
1.1525857e-34
1.1502315e-34
1.1495345e-34
1.1493669e-34
1.1493319e-34
1.1493252e-34
1.1493275e-34
1.1493482e-34
1.1494432e-34
1.1497959e-34
1.152587e-34
1.1502333e-34
1.1495366e-34
1.1493691e-34
1.1493342e-34
1.1493275e-34
1.1493297e-34
1.1493505e-34
1.1494455e-34
1.1497982e-34
1.1526038e-34
1.1502524e-34
1.1495568e-34
1.1493898e-34
1.1493549e-34
1.1493482e-34
1.1493505e-34
1.1493713e-34
1.1494663e-34
1.1498191e-34
1.1526818e-34
1.1503414e-34
1.1496503e-34
1.1494844e-34
1.1494498e-34
1.1494432e-34
1.1494455e-34
1.1494663e-34
1.1495614e-34
1.1499144e-34
1.1529763e-34
1.1506807e-34
1.1500003e-34
1.1498367e-34
1.1498025e-34
1.1497959e-34
1.1497982e-34
1.1498191e-34
1.1499144e-34
1.1502687e-34
2.8023155e-34
2.7967488e-34
2.7950969e-34
2.7946992e-34
2.7946159e-34
2.7945995e-34
2.7946027e-34
2.7946415e-34
2.7948217e-34
2.7954999e-34
2.7967488e-34
2.7912143e-34
2.7895705e-34
2.7891747e-34
2.7890918e-34
2.7890756e-34
2.7890798e-34
2.7891241e-34
2.7893308e-34
2.7901171e-34
2.7950969e-34
2.7895705e-34
2.7879296e-34
2.7875345e-34
2.7874518e-34
2.7874358e-34
2.7874406e-34
2.7874878e-34
2.7877053e-34
2.7885175e-34
2.7946992e-34
2.7891747e-34
2.7875345e-34
2.7871396e-34
2.7870569e-34
2.787041e-34
2.787046e-34
2.7870942e-34
2.7873146e-34
2.7881321e-34
2.7946159e-34
2.7890918e-34
2.7874518e-34
2.7870569e-34
2.7869743e-34
2.7869584e-34
2.7869635e-34
2.7870119e-34
2.7872329e-34
2.7880514e-34
2.7945995e-34
2.7890756e-34
2.7874358e-34
2.787041e-34
2.7869584e-34
2.7869425e-34
2.7869477e-34
2.7869962e-34
2.7872173e-34
2.7880359e-34
2.7946027e-34
2.7890798e-34
2.7874406e-34
2.787046e-34
2.7869635e-34
2.7869477e-34
2.7869529e-34
2.7870014e-34
2.7872225e-34
2.7880412e-34
2.7946415e-34
2.7891241e-34
2.7874878e-34
2.7870942e-34
2.7870119e-34
2.7869962e-34
2.7870014e-34
2.7870499e-34
2.7872711e-34
2.7880899e-34
2.7948217e-34
2.7893308e-34
2.7877053e-34
2.7873146e-34
2.7872329e-34
2.7872173e-34
2.7872225e-34
2.7872711e-34
2.7874925e-34
2.7883118e-34
2.7954999e-34
2.7901171e-34
2.7885175e-34
2.7881321e-34
2.7880514e-34
2.7880359e-34
2.7880412e-34
2.7880899e-34
2.7883118e-34
2.789134e-34
6.8817562e-34
6.8685311e-34
6.8645975e-34
6.8636491e-34
6.8634502e-34
6.863411e-34
6.8634181e-34
6.863509e-34
6.86393e-34
6.8655061e-34
6.8685311e-34
6.8553816e-34
6.8514672e-34
6.8505231e-34
6.8503251e-34
6.8502864e-34
6.8502961e-34
6.8504006e-34
6.8508862e-34
6.8527262e-34
6.8645975e-34
6.8514672e-34
6.8475595e-34
6.8466171e-34
6.8464196e-34
6.8463812e-34
6.8463925e-34
6.846504e-34
6.8470159e-34
6.8489192e-34
6.8636491e-34
6.8505231e-34
6.8466171e-34
6.8456753e-34
6.8454779e-34
6.8454397e-34
6.8454516e-34
6.8455653e-34
6.8460842e-34
6.8480005e-34
6.8634502e-34
6.8503251e-34
6.8464196e-34
6.8454779e-34
6.8452806e-34
6.8452425e-34
6.8452545e-34
6.8453689e-34
6.8458892e-34
6.8478079e-34
6.863411e-34
6.8502864e-34
6.8463812e-34
6.8454397e-34
6.8452425e-34
6.8452045e-34
6.8452166e-34
6.8453311e-34
6.8458518e-34
6.8477709e-34
6.8634181e-34
6.8502961e-34
6.8463925e-34
6.8454516e-34
6.8452545e-34
6.8452166e-34
6.8452288e-34
6.8453434e-34
6.8458641e-34
6.8477833e-34
6.863509e-34
6.8504006e-34
6.846504e-34
6.8455653e-34
6.8453689e-34
6.8453311e-34
6.8453434e-34
6.845458e-34
6.8459789e-34
6.8478983e-34
6.86393e-34
6.8508862e-34
6.8470159e-34
6.8460842e-34
6.8458892e-34
6.8458518e-34
6.8458641e-34
6.8459789e-34
6.8465002e-34
6.848421e-34
6.8655061e-34
6.8527262e-34
6.8489192e-34
6.8480005e-34
6.8478079e-34
6.8477709e-34
6.8477833e-34
6.8478983e-34
6.848421e-34
6.8503483e-34
1.7143629e-33
1.7111769e-33
1.7102272e-33
1.7099979e-33
1.7099498e-33
1.7099402e-33
1.7099419e-33
1.7099635e-33
1.7100632e-33
1.7104343e-33
1.7111769e-33
1.708009e-33
1.7070638e-33
1.7068355e-33
1.7067876e-33
1.7067782e-33
1.7067805e-33
1.7068054e-33
1.7069211e-33
1.7073576e-33
1.7102272e-33
1.7070638e-33
1.7061203e-33
1.7058924e-33
1.7058446e-33
1.7058353e-33
1.705838e-33
1.7058647e-33
1.7059868e-33
1.706439e-33
1.7099979e-33
1.7068355e-33
1.7058924e-33
1.7056647e-33
1.7056169e-33
1.7056076e-33
1.7056105e-33
1.7056377e-33
1.7057616e-33
1.706217e-33
1.7099498e-33
1.7067876e-33
1.7058446e-33
1.7056169e-33
1.7055691e-33
1.7055599e-33
1.7055627e-33
1.7055901e-33
1.7057144e-33
1.7061704e-33
1.7099402e-33
1.7067782e-33
1.7058353e-33
1.7056076e-33
1.7055599e-33
1.7055507e-33
1.7055535e-33
1.705581e-33
1.7057053e-33
1.7061614e-33
1.7099419e-33
1.7067805e-33
1.705838e-33
1.7056105e-33
1.7055627e-33
1.7055535e-33
1.7055564e-33
1.7055839e-33
1.7057083e-33
1.7061644e-33
1.7099635e-33
1.7068054e-33
1.7058647e-33
1.7056377e-33
1.7055901e-33
1.705581e-33
1.7055839e-33
1.7056113e-33
1.7057357e-33
1.7061919e-33
1.7100632e-33
1.7069211e-33
1.7059868e-33
1.7057616e-33
1.7057144e-33
1.7057053e-33
1.7057083e-33
1.7057357e-33
1.7058603e-33
1.7063167e-33
1.7104343e-33
1.7073576e-33
1.706439e-33
1.706217e-33
1.7061704e-33
1.7061614e-33
1.7061644e-33
1.7061919e-33
1.7063167e-33
1.7067747e-33
4.3337669e-33
4.3259818e-33
4.3236562e-33
4.323094e-33
4.3229757e-33
4.3229522e-33
4.3229561e-33
4.3230081e-33
4.3232476e-33
4.3241338e-33
4.3259818e-33
4.3182404e-33
4.3159258e-33
4.315366e-33
4.3152483e-33
4.3152252e-33
4.3152306e-33
4.3152911e-33
4.3155707e-33
4.3166212e-33
4.3236562e-33
4.3159258e-33
4.3136152e-33
4.3130564e-33
4.3129389e-33
4.312916e-33
4.3129224e-33
4.3129873e-33
4.3132832e-33
4.3143729e-33
4.323094e-33
4.315366e-33
4.3130564e-33
4.3124979e-33
4.3123805e-33
4.3123577e-33
4.3123645e-33
4.3124307e-33
4.3127309e-33
4.3138289e-33
4.3229757e-33
4.3152483e-33
4.3129389e-33
4.3123805e-33
4.3122632e-33
4.3122404e-33
4.3122473e-33
4.3123139e-33
4.3126151e-33
4.3137144e-33
4.3229522e-33
4.3152252e-33
4.312916e-33
4.3123577e-33
4.3122404e-33
4.3122177e-33
4.3122247e-33
4.3122914e-33
4.3125927e-33
4.3136923e-33
4.3229561e-33
4.3152306e-33
4.3129224e-33
4.3123645e-33
4.3122473e-33
4.3122247e-33
4.3122317e-33
4.3122984e-33
4.3125998e-33
4.3136995e-33
4.3230081e-33
4.3152911e-33
4.3129873e-33
4.3124307e-33
4.3123139e-33
4.3122914e-33
4.3122984e-33
4.3123651e-33
4.3126666e-33
4.3137664e-33
4.3232476e-33
4.3155707e-33
4.3132832e-33
4.3127309e-33
4.3126151e-33
4.3125927e-33
4.3125998e-33
4.3126666e-33
4.3129683e-33
4.3140689e-33
4.3241338e-33
4.3166212e-33
4.3143729e-33
4.3138289e-33
4.3137144e-33
4.3136923e-33
4.3136995e-33
4.3137664e-33
4.3140689e-33
4.3151731e-33
1.1118262e-32
1.1098964e-32
1.1093188e-32
1.1091789e-32
1.1091495e-32
1.1091436e-32
1.1091445e-32
1.1091572e-32
1.1092156e-32
1.1094303e-32
1.1098964e-32
1.1079774e-32
1.1074025e-32
1.1072632e-32
1.1072339e-32
1.1072281e-32
1.1072294e-32
1.1072443e-32
1.1073129e-32
1.1075694e-32
1.1093188e-32
1.1074025e-32
1.1068285e-32
1.1066895e-32
1.1066602e-32
1.1066545e-32
1.106656e-32
1.106672e-32
1.1067447e-32
1.1070113e-32
1.1091789e-32
1.1072632e-32
1.1066895e-32
1.1065505e-32
1.1065213e-32
1.1065156e-32
1.1065172e-32
1.1065336e-32
1.1066074e-32
1.106876e-32
1.1091495e-32
1.1072339e-32
1.1066602e-32
1.1065213e-32
1.1064921e-32
1.1064864e-32
1.1064881e-32
1.1065045e-32
1.1065785e-32
1.1068475e-32
1.1091436e-32
1.1072281e-32
1.1066545e-32
1.1065156e-32
1.1064864e-32
1.1064807e-32
1.1064824e-32
1.1064989e-32
1.106573e-32
1.106842e-32
1.1091445e-32
1.1072294e-32
1.106656e-32
1.1065172e-32
1.1064881e-32
1.1064824e-32
1.1064841e-32
1.1065006e-32
1.1065747e-32
1.1068438e-32
1.1091572e-32
1.1072443e-32
1.106672e-32
1.1065336e-32
1.1065045e-32
1.1064989e-32
1.1065006e-32
1.106517e-32
1.1065912e-32
1.1068603e-32
1.1092156e-32
1.1073129e-32
1.1067447e-32
1.1066074e-32
1.1065785e-32
1.106573e-32
1.1065747e-32
1.1065912e-32
1.1066654e-32
1.1069347e-32
1.1094303e-32
1.1075694e-32
1.1070113e-32
1.106876e-32
1.1068475e-32
1.106842e-32
1.1068438e-32
1.1068603e-32
1.1069347e-32
1.1072048e-32
2.8949989e-32
2.8901464e-32
2.8886907e-32
2.8883379e-32
2.8882634e-32
2.8882486e-32
2.8882508e-32
2.8882824e-32
2.8884267e-32
2.8889543e-32
2.8901464e-32
2.8853205e-32
2.8838716e-32
2.8835202e-32
2.8834461e-32
2.8834315e-32
2.8834348e-32
2.8834718e-32
2.8836425e-32
2.8842784e-32
2.8886907e-32
2.8838716e-32
2.8824251e-32
2.8820743e-32
2.8820004e-32
2.8819859e-32
2.8819898e-32
2.8820298e-32
2.8822112e-32
2.8828729e-32
2.8883379e-32
2.8835202e-32
2.8820743e-32
2.8817238e-32
2.8816499e-32
2.8816355e-32
2.8816396e-32
2.8816804e-32
2.8818647e-32
2.8825317e-32
2.8882634e-32
2.8834461e-32
2.8820004e-32
2.8816499e-32
2.881576e-32
2.8815616e-32
2.8815659e-32
2.8816069e-32
2.8817918e-32
2.8824598e-32
2.8882486e-32
2.8834315e-32
2.8819859e-32
2.8816355e-32
2.8815616e-32
2.8815473e-32
2.8815515e-32
2.8815927e-32
2.8817777e-32
2.8824458e-32
2.8882508e-32
2.8834348e-32
2.8819898e-32
2.8816396e-32
2.8815659e-32
2.8815515e-32
2.8815558e-32
2.881597e-32
2.881782e-32
2.8824502e-32
2.8882824e-32
2.8834718e-32
2.8820298e-32
2.8816804e-32
2.8816069e-32
2.8815927e-32
2.881597e-32
2.8816382e-32
2.8818232e-32
2.8824915e-32
2.8884267e-32
2.8836425e-32
2.8822112e-32
2.8818647e-32
2.8817918e-32
2.8817777e-32
2.881782e-32
2.8818232e-32
2.8820084e-32
2.8826772e-32
2.8889543e-32
2.8842784e-32
2.8828729e-32
2.8825317e-32
2.8824598e-32
2.8824458e-32
2.8824502e-32
2.8824915e-32
2.8826772e-32
2.8833481e-32
7.6511304e-32
7.6387508e-32
7.6350297e-32
7.6341264e-32
7.6339357e-32
7.6338975e-32
7.633903e-32
7.6339823e-32
7.6343444e-32
7.6356603e-32
7.6387508e-32
7.6264387e-32
7.6227345e-32
7.621835e-32
7.6216451e-32
7.6216075e-32
7.6216156e-32
7.6217095e-32
7.6221407e-32
7.6237403e-32
7.6350297e-32
7.6227345e-32
7.6190365e-32
7.6181386e-32
7.617949e-32
7.6179118e-32
7.6179216e-32
7.618023e-32
7.6184823e-32
7.6201496e-32
7.6341264e-32
7.621835e-32
7.6181386e-32
7.6172411e-32
7.6170517e-32
7.6170147e-32
7.6170251e-32
7.6171289e-32
7.6175956e-32
7.6192769e-32
7.6339357e-32
7.6216451e-32
7.617949e-32
7.6170517e-32
7.6168624e-32
7.6168255e-32
7.6168361e-32
7.6169405e-32
7.6174087e-32
7.6190926e-32
7.6338975e-32
7.6216075e-32
7.6179118e-32
7.6170147e-32
7.6168255e-32
7.6167886e-32
7.6167993e-32
7.6169039e-32
7.6173725e-32
7.6190568e-32
7.633903e-32
7.6216156e-32
7.6179216e-32
7.6170251e-32
7.6168361e-32
7.6167993e-32
7.6168101e-32
7.6169147e-32
7.6173834e-32
7.6190678e-32
7.6339823e-32
7.6217095e-32
7.618023e-32
7.6171289e-32
7.6169405e-32
7.6169039e-32
7.6169147e-32
7.6170194e-32
7.6174882e-32
7.6191728e-32
7.6343444e-32
7.6221407e-32
7.6184823e-32
7.6175956e-32
7.6174087e-32
7.6173725e-32
7.6173834e-32
7.6174882e-32
7.6179574e-32
7.6196431e-32
7.6356603e-32
7.6237403e-32
7.6201496e-32
7.6192769e-32
7.6190926e-32
7.6190568e-32
7.6190678e-32
7.6191728e-32
7.6196431e-32
7.6213341e-32
2.0525297e-31
2.0493255e-31
2.0483605e-31
2.0481259e-31
2.0480763e-31
2.0480663e-31
2.0480677e-31
2.048088e-31
2.0481802e-31
2.0485131e-31
2.0493255e-31
2.0461386e-31
2.0451779e-31
2.0449443e-31
2.0448949e-31
2.0448851e-31
2.0448872e-31
2.0449113e-31
2.0450219e-31
2.0454303e-31
2.0483605e-31
2.0451779e-31
2.0442188e-31
2.0439856e-31
2.0439363e-31
2.0439266e-31
2.0439291e-31
2.0439552e-31
2.0440732e-31
2.0444997e-31
2.0481259e-31
2.0449443e-31
2.0439856e-31
2.0437525e-31
2.0437033e-31
2.0436936e-31
2.0436963e-31
2.043723e-31
2.043843e-31
2.0442732e-31
2.0480763e-31
2.0448949e-31
2.0439363e-31
2.0437033e-31
2.043654e-31
2.0436444e-31
2.0436471e-31
2.043674e-31
2.0437945e-31
2.0442253e-31
2.0480663e-31
2.0448851e-31
2.0439266e-31
2.0436936e-31
2.0436444e-31
2.0436348e-31
2.0436375e-31
2.0436645e-31
2.043785e-31
2.044216e-31
2.0480677e-31
2.0448872e-31
2.0439291e-31
2.0436963e-31
2.0436471e-31
2.0436375e-31
2.0436403e-31
2.0436673e-31
2.0437878e-31
2.0442188e-31
2.048088e-31
2.0449113e-31
2.0439552e-31
2.043723e-31
2.043674e-31
2.0436645e-31
2.0436673e-31
2.0436943e-31
2.0438148e-31
2.0442459e-31
2.0481802e-31
2.0450219e-31
2.0440732e-31
2.043843e-31
2.0437945e-31
2.043785e-31
2.0437878e-31
2.0438148e-31
2.0439355e-31
2.0443668e-31
2.0485131e-31
2.0454303e-31
2.0444997e-31
2.0442732e-31
2.0442253e-31
2.044216e-31
2.0442188e-31
2.0442459e-31
2.0443668e-31
2.0447995e-31
5.5892878e-31
5.5808734e-31
5.5783342e-31
5.5777163e-31
5.5775855e-31
5.5775591e-31
5.5775626e-31
5.5776151e-31
5.5778533e-31
5.5787083e-31
5.5808734e-31
5.5725041e-31
5.5699762e-31
5.5693607e-31
5.5692304e-31
5.5692045e-31
5.5692098e-31
5.5692728e-31
5.5695606e-31
5.5706192e-31
5.5783342e-31
5.5699762e-31
5.5674524e-31
5.566838e-31
5.5667079e-31
5.5666823e-31
5.5666888e-31
5.5667572e-31
5.567065e-31
5.5681723e-31
5.5777163e-31
5.5693607e-31
5.566838e-31
5.5662239e-31
5.566094e-31
5.5660685e-31
5.5660754e-31
5.5661455e-31
5.5664586e-31
5.567576e-31
5.5775855e-31
5.5692304e-31
5.5667079e-31
5.566094e-31
5.5659641e-31
5.5659387e-31
5.5659458e-31
5.5660162e-31
5.5663305e-31
5.5674497e-31
5.5775591e-31
5.5692045e-31
5.5666823e-31
5.5660685e-31
5.5659387e-31
5.5659133e-31
5.5659204e-31
5.565991e-31
5.5663056e-31
5.567425e-31
5.5775626e-31
5.5692098e-31
5.5666888e-31
5.5660754e-31
5.5659458e-31
5.5659204e-31
5.5659277e-31
5.5659983e-31
5.5663129e-31
5.5674324e-31
5.5776151e-31
5.5692728e-31
5.5667572e-31
5.5661455e-31
5.5660162e-31
5.565991e-31
5.5659983e-31
5.566069e-31
5.5663836e-31
5.5675033e-31
5.5778533e-31
5.5695606e-31
5.567065e-31
5.5664586e-31
5.5663305e-31
5.5663056e-31
5.5663129e-31
5.5663836e-31
5.5666985e-31
5.5678189e-31
5.5787083e-31
5.5706192e-31
5.5681723e-31
5.567576e-31
5.5674497e-31
5.567425e-31
5.5674324e-31
5.5675033e-31
5.5678189e-31
5.5689427e-31
1.5450357e-30
1.5427938e-30
1.542116e-30
1.5419508e-30
1.5419158e-30
1.5419087e-30
1.5419096e-30
1.5419234e-30
1.5419859e-30
1.5422087e-30
1.5427938e-30
1.5405638e-30
1.5398889e-30
1.5397244e-30
1.5396896e-30
1.5396826e-30
1.539684e-30
1.5397007e-30
1.5397767e-30
1.5400553e-30
1.542116e-30
1.5398889e-30
1.5392152e-30
1.539051e-30
1.5390162e-30
1.5390093e-30
1.539011e-30
1.5390291e-30
1.5391107e-30
1.5394025e-30
1.5419508e-30
1.5397244e-30
1.539051e-30
1.5388868e-30
1.5388521e-30
1.5388452e-30
1.538847e-30
1.5388657e-30
1.5389486e-30
1.5392432e-30
1.5419158e-30
1.5396896e-30
1.5390162e-30
1.5388521e-30
1.5388173e-30
1.5388105e-30
1.5388124e-30
1.5388311e-30
1.5389144e-30
1.5392095e-30
1.5419087e-30
1.5396826e-30
1.5390093e-30
1.5388452e-30
1.5388105e-30
1.5388037e-30
1.5388056e-30
1.5388243e-30
1.5389077e-30
1.5392029e-30
1.5419096e-30
1.539684e-30
1.539011e-30
1.538847e-30
1.5388124e-30
1.5388056e-30
1.5388075e-30
1.5388262e-30
1.5389096e-30
1.5392048e-30
1.5419234e-30
1.5397007e-30
1.5390291e-30
1.5388657e-30
1.5388311e-30
1.5388243e-30
1.5388262e-30
1.538845e-30
1.5389284e-30
1.5392237e-30
1.5419859e-30
1.5397767e-30
1.5391107e-30
1.5389486e-30
1.5389144e-30
1.5389077e-30
1.5389096e-30
1.5389284e-30
1.5390119e-30
1.5393073e-30
1.5422087e-30
1.5400553e-30
1.5394025e-30
1.5392432e-30
1.5392095e-30
1.5392029e-30
1.5392048e-30
1.5392237e-30
1.5393073e-30
1.5396036e-30
4.3355335e-30
4.3294731e-30
4.3276374e-30
4.3271895e-30
4.3270944e-30
4.3270752e-30
4.3270775e-30
4.3271144e-30
4.3272806e-30
4.3278698e-30
4.3294731e-30
4.3234446e-30
4.3216168e-30
4.3211707e-30
4.321076e-30
4.3210571e-30
4.3210608e-30
4.3211056e-30
4.3213095e-30
4.3220536e-30
4.3276374e-30
4.3216168e-30
4.3197919e-30
4.3193466e-30
4.3192521e-30
4.3192334e-30
4.319238e-30
4.3192869e-30
4.319506e-30
4.320287e-30
4.3271895e-30
4.3211707e-30
4.3193466e-30
4.3189014e-30
4.318807e-30
4.3187884e-30
4.3187934e-30
4.3188435e-30
4.3190667e-30
4.3198554e-30
4.3270944e-30
4.321076e-30
4.3192521e-30
4.318807e-30
4.3187127e-30
4.3186941e-30
4.3186991e-30
4.3187497e-30
4.3189737e-30
4.3197638e-30
4.3270752e-30
4.3210571e-30
4.3192334e-30
4.3187884e-30
4.3186941e-30
4.3186756e-30
4.3186807e-30
4.3187313e-30
4.3189555e-30
4.3197458e-30
4.3270775e-30
4.3210608e-30
4.319238e-30
4.3187934e-30
4.3186991e-30
4.3186807e-30
4.3186858e-30
4.3187364e-30
4.3189607e-30
4.319751e-30
4.3271144e-30
4.3211056e-30
4.3192869e-30
4.3188435e-30
4.3187497e-30
4.3187313e-30
4.3187364e-30
4.3187871e-30
4.3190114e-30
4.3198019e-30
4.3272806e-30
4.3213095e-30
4.319506e-30
4.3190667e-30
4.3189737e-30
4.3189555e-30
4.3189607e-30
4.3190114e-30
4.3192359e-30
4.3200268e-30
4.3278698e-30
4.3220536e-30
4.320287e-30
4.3198554e-30
4.3197638e-30
4.3197458e-30
4.319751e-30
4.3198019e-30
4.3200268e-30
4.32082e-30
1.2350096e-29
1.2333475e-29
1.2328431e-29
1.2327199e-29
1.2326937e-29
1.2326884e-29
1.232689e-29
1.232699e-29
1.2327439e-29
1.232902e-29
1.2333475e-29
1.231694e-29
1.2311917e-29
1.231069e-29
1.2310429e-29
1.2310377e-29
1.2310387e-29
1.2310509e-29
1.2311064e-29
1.2313082e-29
1.2328431e-29
1.2311917e-29
1.2306903e-29
1.2305678e-29
1.2305417e-29
1.2305366e-29
1.2305378e-29
1.2305512e-29
1.230611e-29
1.2308232e-29
1.2327199e-29
1.231069e-29
1.2305678e-29
1.2304453e-29
1.2304193e-29
1.2304142e-29
1.2304155e-29
1.2304292e-29
1.2304902e-29
1.2307045e-29
1.2326937e-29
1.2310429e-29
1.2305417e-29
1.2304193e-29
1.2303933e-29
1.2303882e-29
1.2303896e-29
1.2304034e-29
1.2304646e-29
1.2306793e-29
1.2326884e-29
1.2310377e-29
1.2305366e-29
1.2304142e-29
1.2303882e-29
1.2303831e-29
1.2303845e-29
1.2303983e-29
1.2304595e-29
1.2306743e-29
1.232689e-29
1.2310387e-29
1.2305378e-29
1.2304155e-29
1.2303896e-29
1.2303845e-29
1.2303859e-29
1.2303997e-29
1.230461e-29
1.2306758e-29
1.232699e-29
1.2310509e-29
1.2305512e-29
1.2304292e-29
1.2304034e-29
1.2303983e-29
1.2303997e-29
1.2304136e-29
1.2304749e-29
1.2306897e-29
1.2327439e-29
1.2311064e-29
1.230611e-29
1.2304902e-29
1.2304646e-29
1.2304595e-29
1.230461e-29
1.2304749e-29
1.2305362e-29
1.2307511e-29
1.232902e-29
1.2313082e-29
1.2308232e-29
1.2307045e-29
1.2306793e-29
1.2306743e-29
1.2306758e-29
1.2306897e-29
1.2307511e-29
1.2309667e-29
3.5712335e-29
3.5666085e-29
3.5652025e-29
3.5648586e-29
3.5647855e-29
3.5647706e-29
3.5647722e-29
3.5647997e-29
3.5649228e-29
3.5653534e-29
3.5666085e-29
3.5620073e-29
3.5606072e-29
3.5602647e-29
3.5601918e-29
3.5601772e-29
3.56018e-29
3.5602139e-29
3.5603673e-29
3.5609227e-29
3.5652025e-29
3.5606072e-29
3.5592094e-29
3.5588674e-29
3.5587947e-29
3.5587802e-29
3.5587837e-29
3.5588208e-29
3.5589865e-29
3.5595717e-29
3.5648586e-29
3.5602647e-29
3.5588674e-29
3.5585256e-29
3.558453e-29
3.5584386e-29
3.5584423e-29
3.5584805e-29
3.5586494e-29
3.5592408e-29
3.5647855e-29
3.5601918e-29
3.5587947e-29
3.558453e-29
3.5583803e-29
3.558366e-29
3.5583698e-29
3.5584082e-29
3.5585779e-29
3.5591704e-29
3.5647706e-29
3.5601772e-29
3.5587802e-29
3.5584386e-29
3.558366e-29
3.5583517e-29
3.5583555e-29
3.5583941e-29
3.5585638e-29
3.5591565e-29
3.5647722e-29
3.56018e-29
3.5587837e-29
3.5584423e-29
3.5583698e-29
3.5583555e-29
3.5583594e-29
3.558398e-29
3.5585678e-29
3.5591605e-29
3.5647997e-29
3.5602139e-29
3.5588208e-29
3.5584805e-29
3.5584082e-29
3.5583941e-29
3.558398e-29
3.5584365e-29
3.5586064e-29
3.5591992e-29
3.5649228e-29
3.5603673e-29
3.5589865e-29
3.5586494e-29
3.5585779e-29
3.5585638e-29
3.5585678e-29
3.5586064e-29
3.5587763e-29
3.5593695e-29
3.5653534e-29
3.5609227e-29
3.5595717e-29
3.5592408e-29
3.5591704e-29
3.5591565e-29
3.5591605e-29
3.5591992e-29
3.5593695e-29
3.5599643e-29
1.0482791e-28
1.0469734e-28
1.0465758e-28
1.0464785e-28
1.0464578e-28
1.0464535e-28
1.046454e-28
1.0464616e-28
1.0464959e-28
1.0466149e-28
1.0469734e-28
1.0456745e-28
1.0452786e-28
1.0451816e-28
1.0451609e-28
1.0451568e-28
1.0451575e-28
1.0451671e-28
1.0452101e-28
1.0453653e-28
1.0465758e-28
1.0452786e-28
1.0448832e-28
1.0447864e-28
1.0447658e-28
1.0447617e-28
1.0447627e-28
1.0447731e-28
1.0448197e-28
1.0449836e-28
1.0464785e-28
1.0451816e-28
1.0447864e-28
1.0446896e-28
1.044669e-28
1.044665e-28
1.044666e-28
1.0446768e-28
1.0447243e-28
1.04489e-28
1.0464578e-28
1.0451609e-28
1.0447658e-28
1.044669e-28
1.0446485e-28
1.0446444e-28
1.0446455e-28
1.0446563e-28
1.0447041e-28
1.04487e-28
1.0464535e-28
1.0451568e-28
1.0447617e-28
1.044665e-28
1.0446444e-28
1.0446403e-28
1.0446414e-28
1.0446523e-28
1.0447001e-28
1.0448661e-28
1.046454e-28
1.0451575e-28
1.0447627e-28
1.044666e-28
1.0446455e-28
1.0446414e-28
1.0446425e-28
1.0446534e-28
1.0447012e-28
1.0448672e-28
1.0464616e-28
1.0451671e-28
1.0447731e-28
1.0446768e-28
1.0446563e-28
1.0446523e-28
1.0446534e-28
1.0446643e-28
1.0447121e-28
1.0448781e-28
1.0464959e-28
1.0452101e-28
1.0448197e-28
1.0447243e-28
1.0447041e-28
1.0447001e-28
1.0447012e-28
1.0447121e-28
1.0447599e-28
1.0449261e-28
1.0466149e-28
1.0453653e-28
1.0449836e-28
1.04489e-28
1.04487e-28
1.0448661e-28
1.0448672e-28
1.0448781e-28
1.0449261e-28
1.0450927e-28
3.1234237e-28
3.1196849e-28
3.1185443e-28
3.1182647e-28
3.1182051e-28
3.1181929e-28
3.1181941e-28
3.1182159e-28
3.1183126e-28
3.1186464e-28
3.1196849e-28
3.1159649e-28
3.114829e-28
3.1145505e-28
3.1144911e-28
3.1144792e-28
3.1144813e-28
3.1145085e-28
3.1146311e-28
3.1150715e-28
3.1185443e-28
3.114829e-28
3.1136949e-28
3.1134169e-28
3.1133576e-28
3.1133458e-28
3.1133485e-28
3.1133785e-28
3.1135115e-28
3.1139774e-28
3.1182647e-28
3.1145505e-28
3.1134169e-28
3.1131389e-28
3.1130797e-28
3.1130679e-28
3.1130709e-28
3.1131018e-28
3.1132376e-28
3.1137087e-28
3.1182051e-28
3.1144911e-28
3.1133576e-28
3.1130797e-28
3.1130205e-28
3.1130088e-28
3.1130119e-28
3.1130429e-28
3.1131793e-28
3.1136514e-28
3.1181929e-28
3.1144792e-28
3.1133458e-28
3.1130679e-28
3.1130088e-28
3.1129971e-28
3.1130002e-28
3.1130313e-28
3.1131678e-28
3.11364e-28
3.1181941e-28
3.1144813e-28
3.1133485e-28
3.1130709e-28
3.1130119e-28
3.1130002e-28
3.1130033e-28
3.1130345e-28
3.113171e-28
3.1136433e-28
3.1182159e-28
3.1145085e-28
3.1133785e-28
3.1131018e-28
3.1130429e-28
3.1130313e-28
3.1130345e-28
3.1130657e-28
3.1132023e-28
3.1136746e-28
3.1183126e-28
3.1146311e-28
3.1135115e-28
3.1132376e-28
3.1131793e-28
3.1131678e-28
3.113171e-28
3.1132023e-28
3.1133389e-28
3.1138115e-28
3.1186464e-28
3.1150715e-28
3.1139774e-28
3.1137087e-28
3.1136514e-28
3.11364e-28
3.1136433e-28
3.1136746e-28
3.1138115e-28
3.1142853e-28
9.4462293e-28
9.4353684e-28
9.4320496e-28
9.4312352e-28
9.4310613e-28
9.4310258e-28
9.431029e-28
9.4310917e-28
9.4313688e-28
9.432319e-28
9.4353684e-28
9.4245619e-28
9.4212567e-28
9.4204454e-28
9.4202721e-28
9.4202372e-28
9.4202434e-28
9.4203222e-28
9.4206765e-28
9.421945e-28
9.4320496e-28
9.4212567e-28
9.4179565e-28
9.4171465e-28
9.4169736e-28
9.4169391e-28
9.4169471e-28
9.4170342e-28
9.4174197e-28
9.418764e-28
9.4312352e-28
9.4204454e-28
9.4171465e-28
9.4163369e-28
9.4161641e-28
9.4161298e-28
9.4161385e-28
9.4162282e-28
9.416622e-28
9.417982e-28
9.4310613e-28
9.4202721e-28
9.4169736e-28
9.4161641e-28
9.4159915e-28
9.4159572e-28
9.4159662e-28
9.4160566e-28
9.4164521e-28
9.4178149e-28
9.4310258e-28
9.4202372e-28
9.4169391e-28
9.4161298e-28
9.4159572e-28
9.4159231e-28
9.4159321e-28
9.4160227e-28
9.4164186e-28
9.4177819e-28
9.431029e-28
9.4202434e-28
9.4169471e-28
9.4161385e-28
9.4159662e-28
9.4159321e-28
9.4159412e-28
9.4160319e-28
9.4164278e-28
9.4177912e-28
9.4310917e-28
9.4203222e-28
9.4170342e-28
9.4162282e-28
9.4160566e-28
9.4160227e-28
9.4160319e-28
9.4161226e-28
9.4165186e-28
9.4178822e-28
9.4313688e-28
9.4206765e-28
9.4174197e-28
9.416622e-28
9.4164521e-28
9.4164186e-28
9.4164278e-28
9.4165186e-28
9.416915e-28
9.4182793e-28
9.432319e-28
9.421945e-28
9.418764e-28
9.417982e-28
9.4178149e-28
9.4177819e-28
9.4177912e-28
9.4178822e-28
9.4182793e-28
9.4196472e-28
2.8995539e-27
2.8963539e-27
2.8953745e-27
2.8951339e-27
2.8950825e-27
2.8950719e-27
2.8950729e-27
2.8950911e-27
2.8951717e-27
2.8954462e-27
2.8963539e-27
2.8931698e-27
2.8921943e-27
2.8919546e-27
2.8919034e-27
2.891893e-27
2.8918949e-27
2.891918e-27
2.892022e-27
2.8923928e-27
2.8953745e-27
2.8921943e-27
2.8912203e-27
2.890981e-27
2.8909299e-27
2.8909197e-27
2.890922e-27
2.8909477e-27
2.8910611e-27
2.8914549e-27
2.8951339e-27
2.8919546e-27
2.890981e-27
2.8907418e-27
2.8906907e-27
2.8906805e-27
2.8906831e-27
2.8907096e-27
2.8908255e-27
2.891224e-27
2.8950825e-27
2.8919034e-27
2.8909299e-27
2.8906907e-27
2.8906397e-27
2.8906295e-27
2.8906321e-27
2.8906588e-27
2.8907753e-27
2.8911747e-27
2.8950719e-27
2.891893e-27
2.8909197e-27
2.8906805e-27
2.8906295e-27
2.8906194e-27
2.8906221e-27
2.8906488e-27
2.8907653e-27
2.8911649e-27
2.8950729e-27
2.8918949e-27
2.890922e-27
2.8906831e-27
2.8906321e-27
2.8906221e-27
2.8906247e-27
2.8906515e-27
2.8907681e-27
2.8911676e-27
2.8950911e-27
2.891918e-27
2.8909477e-27
2.8907096e-27
2.8906588e-27
2.8906488e-27
2.8906515e-27
2.8906783e-27
2.8907949e-27
2.8911945e-27
2.8951717e-27
2.892022e-27
2.8910611e-27
2.8908255e-27
2.8907753e-27
2.8907653e-27
2.8907681e-27
2.8907949e-27
2.8909115e-27
2.8913114e-27
2.8954462e-27
2.8923928e-27
2.8914549e-27
2.891224e-27
2.8911747e-27
2.8911649e-27
2.8911676e-27