/*--------------------------------*- C++ -*----------------------------------*\
| =========                 |                                                 |
| \\      /  F ield         | OpenFOAM: The Open Source CFD Toolbox           |
|  \\    /   O peration     | Version:  dev                                   |
|   \\  /    A nd           | Web:      www.OpenFOAM.org                      |
|    \\/     M anipulation  |                                                 |
\*---------------------------------------------------------------------------*/
FoamFile
{
    version     2.0;
    format      ascii;
    class       volScalarField;
    location    "82.995";
    object      A_0;
}
// * * * * * * * * * * * * * * * * * * * * * * * * * * * * * * * * * * * * * //

dimensions      [0 0 0 0 1 0 0];

internalField   nonuniform List<scalar> 
10000
(
8.691577e-24
8.6825317e-24
8.6776211e-24
8.674869e-24
8.6734054e-24
8.6727328e-24
8.6725896e-24
8.6729096e-24
8.6738354e-24
8.6756868e-24
8.6825317e-24
8.6735222e-24
8.6686241e-24
8.665878e-24
8.6644186e-24
8.6637509e-24
8.6636173e-24
8.663959e-24
8.6649408e-24
8.666952e-24
8.6776211e-24
8.6686241e-24
8.663734e-24
8.660993e-24
8.6595382e-24
8.6588769e-24
8.6587547e-24
8.6591181e-24
8.6601388e-24
8.6622053e-24
8.674869e-24
8.665878e-24
8.660993e-24
8.6582563e-24
8.6568058e-24
8.6561504e-24
8.6560376e-24
8.6564162e-24
8.6574583e-24
8.659546e-24
8.6734054e-24
8.6644186e-24
8.6595382e-24
8.6568058e-24
8.6553596e-24
8.6547091e-24
8.6546028e-24
8.6549906e-24
8.6560437e-24
8.6581401e-24
8.6727328e-24
8.6637509e-24
8.6588769e-24
8.6561504e-24
8.6547091e-24
8.6540628e-24
8.6539612e-24
8.6543542e-24
8.6554128e-24
8.6575132e-24
8.6725896e-24
8.6636173e-24
8.6587547e-24
8.6560376e-24
8.6546028e-24
8.6539612e-24
8.6538632e-24
8.6542594e-24
8.655321e-24
8.6574232e-24
8.6729096e-24
8.663959e-24
8.6591181e-24
8.6564162e-24
8.6549906e-24
8.6543542e-24
8.6542594e-24
8.654658e-24
8.6557215e-24
8.6578251e-24
8.6738354e-24
8.6649408e-24
8.6601388e-24
8.6574583e-24
8.6560437e-24
8.6554128e-24
8.655321e-24
8.6557215e-24
8.6567868e-24
8.6588927e-24
8.6756868e-24
8.666952e-24
8.6622053e-24
8.659546e-24
8.6581401e-24
8.6575132e-24
8.6574232e-24
8.6578251e-24
8.6588927e-24
8.6610044e-24
2.8847005e-23
2.8818141e-23
2.8802017e-23
2.8792958e-23
2.8788138e-23
2.8785921e-23
2.8785447e-23
2.8786496e-23
2.878954e-23
2.8795845e-23
2.8818141e-23
2.8789388e-23
2.8773304e-23
2.8764266e-23
2.8759458e-23
2.8757258e-23
2.8756816e-23
2.8757936e-23
2.8761166e-23
2.8768004e-23
2.8802017e-23
2.8773304e-23
2.8757246e-23
2.8748225e-23
2.8743433e-23
2.8741253e-23
2.8740849e-23
2.8742042e-23
2.87454e-23
2.8752421e-23
2.8792958e-23
2.8764266e-23
2.8748225e-23
2.8739217e-23
2.8734439e-23
2.8732279e-23
2.8731906e-23
2.8733149e-23
2.8736578e-23
2.8743669e-23
2.8788138e-23
2.8759458e-23
2.8743433e-23
2.8734439e-23
2.8729676e-23
2.8727532e-23
2.872718e-23
2.8728453e-23
2.8731919e-23
2.8739039e-23
2.8785921e-23
2.8757258e-23
2.8741253e-23
2.8732279e-23
2.8727532e-23
2.8725402e-23
2.8725066e-23
2.8726357e-23
2.872984e-23
2.8736973e-23
2.8785447e-23
2.8756816e-23
2.8740849e-23
2.8731906e-23
2.872718e-23
2.8725066e-23
2.8724741e-23
2.8726043e-23
2.8729536e-23
2.8736676e-23
2.8786496e-23
2.8757936e-23
2.8742042e-23
2.8733149e-23
2.8728453e-23
2.8726357e-23
2.8726043e-23
2.8727352e-23
2.8730852e-23
2.8737996e-23
2.878954e-23
2.8761166e-23
2.87454e-23
2.8736578e-23
2.8731919e-23
2.872984e-23
2.8729536e-23
2.8730852e-23
2.8734358e-23
2.8741509e-23
2.8795845e-23
2.8768004e-23
2.8752421e-23
2.8743669e-23
2.8739039e-23
2.8736973e-23
2.8736676e-23
2.8737996e-23
2.8741509e-23
2.8748681e-23
5.8403082e-23
5.8346579e-23
5.8314539e-23
5.8296485e-23
5.8286864e-23
5.8282434e-23
5.8281481e-23
5.8283555e-23
5.8289594e-23
5.8302506e-23
5.8346579e-23
5.829029e-23
5.8258329e-23
5.8240313e-23
5.8230719e-23
5.8226323e-23
5.8225432e-23
5.8227651e-23
5.8234065e-23
5.8248055e-23
5.8314539e-23
5.8258329e-23
5.8226419e-23
5.8208437e-23
5.8198873e-23
5.8194519e-23
5.8193705e-23
5.8196069e-23
5.8202742e-23
5.82171e-23
5.8296485e-23
5.8240313e-23
5.8208437e-23
5.8190483e-23
5.8180948e-23
5.8176633e-23
5.8175881e-23
5.8178346e-23
5.8185163e-23
5.8199662e-23
5.8286864e-23
5.8230719e-23
5.8198873e-23
5.8180948e-23
5.8171441e-23
5.8167158e-23
5.816645e-23
5.8168976e-23
5.8175866e-23
5.8190424e-23
5.8282434e-23
5.8226323e-23
5.8194519e-23
5.8176633e-23
5.8167158e-23
5.8162904e-23
5.8162227e-23
5.8164788e-23
5.8171715e-23
5.8186298e-23
5.8281481e-23
5.8225432e-23
5.8193705e-23
5.8175881e-23
5.816645e-23
5.8162227e-23
5.8161574e-23
5.8164157e-23
5.8171103e-23
5.8185699e-23
5.8283555e-23
5.8227651e-23
5.8196069e-23
5.8178346e-23
5.8168976e-23
5.8164788e-23
5.8164157e-23
5.8166755e-23
5.8173714e-23
5.8188319e-23
5.8289594e-23
5.8234065e-23
5.8202742e-23
5.8185163e-23
5.8175866e-23
5.8171715e-23
5.8171103e-23
5.8173714e-23
5.8180685e-23
5.8195305e-23
5.8302506e-23
5.8248055e-23
5.82171e-23
5.8199662e-23
5.8190424e-23
5.8186298e-23
5.8185699e-23
5.8188319e-23
5.8195305e-23
5.8209969e-23
1.0746169e-22
1.0736113e-22
1.0730357e-22
1.0727104e-22
1.0725367e-22
1.0724566e-22
1.0724392e-22
1.0724762e-22
1.072584e-22
1.0728171e-22
1.0736113e-22
1.0726095e-22
1.0720353e-22
1.0717106e-22
1.0715374e-22
1.0714579e-22
1.0714417e-22
1.0714813e-22
1.071596e-22
1.0718489e-22
1.0730357e-22
1.0720353e-22
1.0714621e-22
1.071138e-22
1.0709653e-22
1.0708866e-22
1.0708718e-22
1.070914e-22
1.0710335e-22
1.0712931e-22
1.0727104e-22
1.0717106e-22
1.071138e-22
1.0708144e-22
1.0706423e-22
1.0705643e-22
1.0705506e-22
1.0705947e-22
1.0707167e-22
1.0709789e-22
1.0725367e-22
1.0715374e-22
1.0709653e-22
1.0706423e-22
1.0704707e-22
1.0703933e-22
1.0703803e-22
1.0704256e-22
1.070549e-22
1.0708122e-22
1.0724566e-22
1.0714579e-22
1.0708866e-22
1.0705643e-22
1.0703933e-22
1.0703164e-22
1.070304e-22
1.0703499e-22
1.070474e-22
1.0707377e-22
1.0724392e-22
1.0714417e-22
1.0708718e-22
1.0705506e-22
1.0703803e-22
1.070304e-22
1.0702921e-22
1.0703384e-22
1.0704628e-22
1.0707267e-22
1.0724762e-22
1.0714813e-22
1.070914e-22
1.0705947e-22
1.0704256e-22
1.0703499e-22
1.0703384e-22
1.0703849e-22
1.0705096e-22
1.0707737e-22
1.072584e-22
1.071596e-22
1.0710335e-22
1.0707167e-22
1.070549e-22
1.070474e-22
1.0704628e-22
1.0705096e-22
1.0706345e-22
1.0708988e-22
1.0728171e-22
1.0718489e-22
1.0712931e-22
1.0709789e-22
1.0708122e-22
1.0707377e-22
1.0707267e-22
1.0707737e-22
1.0708988e-22
1.071164e-22
1.9360075e-22
1.9342557e-22
1.9332464e-22
1.9326741e-22
1.932368e-22
1.9322267e-22
1.9321957e-22
1.9322598e-22
1.9324472e-22
1.932852e-22
1.9342557e-22
1.9325104e-22
1.9315036e-22
1.9309324e-22
1.9306272e-22
1.9304869e-22
1.9304579e-22
1.9305269e-22
1.9307265e-22
1.9311667e-22
1.9332464e-22
1.9315036e-22
1.9304983e-22
1.9299282e-22
1.929624e-22
1.9294851e-22
1.9294586e-22
1.9295322e-22
1.9297403e-22
1.9301927e-22
1.9326741e-22
1.9309324e-22
1.9299282e-22
1.929359e-22
1.9290557e-22
1.9289181e-22
1.9288936e-22
1.9289706e-22
1.9291834e-22
1.9296404e-22
1.932368e-22
1.9306272e-22
1.929624e-22
1.9290557e-22
1.9287533e-22
1.9286167e-22
1.9285937e-22
1.9286726e-22
1.9288878e-22
1.9293467e-22
1.9322267e-22
1.9304869e-22
1.9294851e-22
1.9289181e-22
1.9286167e-22
1.928481e-22
1.928459e-22
1.9285391e-22
1.9287555e-22
1.9292153e-22
1.9321957e-22
1.9304579e-22
1.9294586e-22
1.9288936e-22
1.9285937e-22
1.928459e-22
1.9284378e-22
1.9285186e-22
1.9287356e-22
1.9291958e-22
1.9322598e-22
1.9305269e-22
1.9295322e-22
1.9289706e-22
1.9286726e-22
1.9285391e-22
1.9285186e-22
1.9285999e-22
1.9288173e-22
1.9292778e-22
1.9324472e-22
1.9307265e-22
1.9297403e-22
1.9291834e-22
1.9288878e-22
1.9287555e-22
1.9287356e-22
1.9288173e-22
1.9290351e-22
1.929496e-22
1.932852e-22
1.9311667e-22
1.9301927e-22
1.9296404e-22
1.9293467e-22
1.9292153e-22
1.9291958e-22
1.9292778e-22
1.929496e-22
1.9299584e-22
3.4886835e-22
3.4856323e-22
3.4838651e-22
3.4828599e-22
3.4823214e-22
3.4820722e-22
3.4820169e-22
3.4821281e-22
3.4824523e-22
3.4831496e-22
3.4856323e-22
3.4825923e-22
3.4808293e-22
3.4798262e-22
3.4792891e-22
3.4790418e-22
3.4789902e-22
3.4791098e-22
3.479456e-22
3.4802169e-22
3.4838651e-22
3.4808293e-22
3.4790691e-22
3.4780678e-22
3.4775324e-22
3.4772876e-22
3.4772404e-22
3.4773686e-22
3.4777299e-22
3.4785125e-22
3.4828599e-22
3.4798262e-22
3.4780678e-22
3.4770682e-22
3.4765344e-22
3.4762919e-22
3.4762483e-22
3.4763823e-22
3.476752e-22
3.4775429e-22
3.4823214e-22
3.4792891e-22
3.4775324e-22
3.4765344e-22
3.4760023e-22
3.4757616e-22
3.4757206e-22
3.4758581e-22
3.4762322e-22
3.4770264e-22
3.4820722e-22
3.4790418e-22
3.4772876e-22
3.4762919e-22
3.4757616e-22
3.4755226e-22
3.4754833e-22
3.475623e-22
3.4759991e-22
3.4767949e-22
3.4820169e-22
3.4789902e-22
3.4772404e-22
3.4762483e-22
3.4757206e-22
3.4754833e-22
3.4754455e-22
3.4755864e-22
3.4759637e-22
3.4767602e-22
3.4821281e-22
3.4791098e-22
3.4773686e-22
3.4763823e-22
3.4758581e-22
3.475623e-22
3.4755864e-22
3.4757281e-22
3.4761061e-22
3.4769032e-22
3.4824523e-22
3.479456e-22
3.4777299e-22
3.476752e-22
3.4762322e-22
3.4759991e-22
3.4759637e-22
3.4761061e-22
3.4764848e-22
3.4772827e-22
3.4831496e-22
3.4802169e-22
3.4785125e-22
3.4775429e-22
3.4770264e-22
3.4767949e-22
3.4767602e-22
3.4769032e-22
3.4772827e-22
3.4780829e-22
6.3304512e-22
6.3251019e-22
6.3219892e-22
6.3202134e-22
6.31926e-22
6.3188183e-22
6.3187192e-22
6.3189127e-22
6.3194767e-22
6.3206815e-22
6.3251019e-22
6.3197722e-22
6.3166667e-22
6.3148945e-22
6.3139437e-22
6.3135053e-22
6.3134128e-22
6.3136217e-22
6.3142252e-22
6.3155447e-22
6.3219892e-22
6.3166667e-22
6.3135661e-22
6.3117971e-22
6.3108494e-22
6.3104154e-22
6.3103309e-22
6.3105549e-22
6.3111858e-22
6.3125444e-22
6.3202134e-22
6.3148945e-22
6.3117971e-22
6.310031e-22
6.3090862e-22
6.3086563e-22
6.3085783e-22
6.3088129e-22
6.3094588e-22
6.3108323e-22
6.31926e-22
6.3139437e-22
6.3108494e-22
6.3090862e-22
6.3081443e-22
6.3077177e-22
6.3076443e-22
6.3078853e-22
6.3085389e-22
6.3099186e-22
6.3188183e-22
6.3135053e-22
6.3104154e-22
6.3086563e-22
6.3077177e-22
6.3072941e-22
6.3072239e-22
6.3074686e-22
6.3081261e-22
6.3095084e-22
6.3187192e-22
6.3134128e-22
6.3103309e-22
6.3085783e-22
6.3076443e-22
6.3072239e-22
6.3071561e-22
6.3074031e-22
6.3080626e-22
6.3094463e-22
6.3189127e-22
6.3136217e-22
6.3105549e-22
6.3088129e-22
6.3078853e-22
6.3074686e-22
6.3074031e-22
6.3076516e-22
6.3083124e-22
6.309697e-22
6.3194767e-22
6.3142252e-22
6.3111858e-22
6.3094588e-22
6.3085389e-22
6.3081261e-22
6.3080626e-22
6.3083124e-22
6.3089744e-22
6.3103604e-22
6.3206815e-22
6.3155447e-22
6.3125444e-22
6.3108323e-22
6.3099186e-22
6.3095084e-22
6.3094463e-22
6.309697e-22
6.3103604e-22
6.3117504e-22
1.1592224e-21
1.1582764e-21
1.1577234e-21
1.1574071e-21
1.1572369e-21
1.1571579e-21
1.15714e-21
1.157174e-21
1.1572729e-21
1.1574826e-21
1.1582764e-21
1.1573338e-21
1.1567821e-21
1.1564664e-21
1.1562967e-21
1.1562183e-21
1.1562016e-21
1.1562384e-21
1.1563445e-21
1.156575e-21
1.1577234e-21
1.1567821e-21
1.1562313e-21
1.1559162e-21
1.155747e-21
1.1556694e-21
1.1556542e-21
1.1556937e-21
1.1558047e-21
1.1560424e-21
1.1574071e-21
1.1564664e-21
1.1559162e-21
1.1556015e-21
1.1554329e-21
1.155356e-21
1.1553419e-21
1.1553834e-21
1.1554972e-21
1.1557375e-21
1.1572369e-21
1.1562967e-21
1.155747e-21
1.1554329e-21
1.1552648e-21
1.1551885e-21
1.1551753e-21
1.1552179e-21
1.155333e-21
1.1555745e-21
1.1571579e-21
1.1562183e-21
1.1556694e-21
1.155356e-21
1.1551885e-21
1.1551128e-21
1.1551001e-21
1.1551434e-21
1.1552593e-21
1.1555013e-21
1.15714e-21
1.1562016e-21
1.1556542e-21
1.1553419e-21
1.1551753e-21
1.1551001e-21
1.1550879e-21
1.1551316e-21
1.1552478e-21
1.15549e-21
1.157174e-21
1.1562384e-21
1.1556937e-21
1.1553834e-21
1.1552179e-21
1.1551434e-21
1.1551316e-21
1.1551755e-21
1.155292e-21
1.1555344e-21
1.1572729e-21
1.1563445e-21
1.1558047e-21
1.1554972e-21
1.155333e-21
1.1552593e-21
1.1552478e-21
1.155292e-21
1.1554087e-21
1.1556513e-21
1.1574826e-21
1.156575e-21
1.1560424e-21
1.1557375e-21
1.1555745e-21
1.1555013e-21
1.15549e-21
1.1555344e-21
1.1556513e-21
1.1558947e-21
2.1437243e-21
2.1420355e-21
2.1410441e-21
2.1404752e-21
2.1401687e-21
2.1400262e-21
2.1399935e-21
2.1400538e-21
2.1402288e-21
2.140597e-21
2.1420355e-21
2.1403528e-21
2.1393637e-21
2.1387959e-21
2.1384902e-21
2.1383488e-21
2.1383183e-21
2.1383836e-21
2.1385719e-21
2.1389784e-21
2.1410441e-21
2.1393637e-21
2.138376e-21
2.1378093e-21
2.1375046e-21
2.1373646e-21
2.1373368e-21
2.1374072e-21
2.1376045e-21
2.1380241e-21
2.1404752e-21
2.1387959e-21
2.1378093e-21
2.1372435e-21
2.1369397e-21
2.1368011e-21
2.1367754e-21
2.1368493e-21
2.1370516e-21
2.1374762e-21
2.1401687e-21
2.1384902e-21
2.1375046e-21
2.1369397e-21
2.1366369e-21
2.1364993e-21
2.1364752e-21
2.1365512e-21
2.1367561e-21
2.1371827e-21
2.1400262e-21
2.1383488e-21
2.1373646e-21
2.1368011e-21
2.1364993e-21
2.1363628e-21
2.1363398e-21
2.136417e-21
2.1366231e-21
2.1370506e-21
2.1399935e-21
2.1383183e-21
2.1373368e-21
2.1367754e-21
2.1364752e-21
2.1363398e-21
2.1363175e-21
2.1363955e-21
2.1366023e-21
2.1370303e-21
2.1400538e-21
2.1383836e-21
2.1374072e-21
2.1368493e-21
2.1365512e-21
2.136417e-21
2.1363955e-21
2.136474e-21
2.1366812e-21
2.1371095e-21
2.1402288e-21
2.1385719e-21
2.1376045e-21
2.1370516e-21
2.1367561e-21
2.1366231e-21
2.1366023e-21
2.1366812e-21
2.1368888e-21
2.1373175e-21
2.140597e-21
2.1389784e-21
2.1380241e-21
2.1374762e-21
2.1371827e-21
2.1370506e-21
2.1370303e-21
2.1371095e-21
2.1373175e-21
2.1377474e-21
4.0045447e-21
4.0015007e-21
3.999706e-21
3.9986732e-21
3.9981157e-21
3.9978561e-21
3.9977961e-21
3.9979039e-21
3.9982167e-21
3.9988696e-21
4.0015007e-21
3.9984676e-21
3.9966769e-21
3.9956461e-21
3.9950901e-21
3.9948325e-21
3.9947766e-21
3.9948938e-21
3.9952311e-21
3.995955e-21
3.999706e-21
3.9966769e-21
3.994889e-21
3.9938601e-21
3.9933058e-21
3.9930509e-21
3.9929999e-21
3.9931264e-21
3.9934805e-21
3.9942286e-21
3.9986732e-21
3.9956461e-21
3.9938601e-21
3.9928329e-21
3.9922804e-21
3.992028e-21
3.9919809e-21
3.9921139e-21
3.9924773e-21
3.9932345e-21
3.9981157e-21
3.9950901e-21
3.9933058e-21
3.9922804e-21
3.9917297e-21
3.9914793e-21
3.991435e-21
3.991572e-21
3.99194e-21
3.9927011e-21
3.9978561e-21
3.9948325e-21
3.9930509e-21
3.992028e-21
3.9914793e-21
3.9912307e-21
3.9911883e-21
3.9913276e-21
3.991698e-21
3.9924607e-21
3.9977961e-21
3.9947766e-21
3.9929999e-21
3.9919809e-21
3.991435e-21
3.9911883e-21
3.9911475e-21
3.9912881e-21
3.9916598e-21
3.9924233e-21
3.9979039e-21
3.9948938e-21
3.9931264e-21
3.9921139e-21
3.991572e-21
3.9913276e-21
3.9912881e-21
3.9914297e-21
3.9918021e-21
3.9925662e-21
3.9982167e-21
3.9952311e-21
3.9934805e-21
3.9924773e-21
3.99194e-21
3.991698e-21
3.9916598e-21
3.9918021e-21
3.9921752e-21
3.99294e-21
3.9988696e-21
3.995955e-21
3.9942286e-21
3.9932345e-21
3.9927011e-21
3.9924607e-21
3.9924233e-21
3.9925662e-21
3.99294e-21
3.9937071e-21
7.5573304e-21
7.5517897e-21
7.5485092e-21
7.5466161e-21
7.5455922e-21
7.5451148e-21
7.5450035e-21
7.5451985e-21
7.5457631e-21
7.5469319e-21
7.5517897e-21
7.5462688e-21
7.5429955e-21
7.5411061e-21
7.5400849e-21
7.5396113e-21
7.5395075e-21
7.5397201e-21
7.5403304e-21
7.5416322e-21
7.5485092e-21
7.5429955e-21
7.5397272e-21
7.5378412e-21
7.5368234e-21
7.5363547e-21
7.5362601e-21
7.53649e-21
7.5371318e-21
7.5384788e-21
7.5466161e-21
7.5411061e-21
7.5378412e-21
7.5359583e-21
7.5349438e-21
7.5344796e-21
7.5343925e-21
7.5346345e-21
7.5352935e-21
7.5366578e-21
7.5455922e-21
7.5400849e-21
7.5368234e-21
7.5349438e-21
7.5339325e-21
7.5334722e-21
7.5333902e-21
7.5336395e-21
7.5343074e-21
7.5356787e-21
7.5451148e-21
7.5396113e-21
7.5363547e-21
7.5344796e-21
7.5334722e-21
7.5330152e-21
7.5329369e-21
7.5331904e-21
7.5338627e-21
7.5352371e-21
7.5450035e-21
7.5395075e-21
7.5362601e-21
7.5343925e-21
7.5333902e-21
7.5329369e-21
7.5328613e-21
7.5331175e-21
7.533792e-21
7.535168e-21
7.5451985e-21
7.5397201e-21
7.53649e-21
7.5346345e-21
7.5336395e-21
7.5331904e-21
7.5331175e-21
7.5333754e-21
7.5340514e-21
7.5354283e-21
7.5457631e-21
7.5403304e-21
7.5371318e-21
7.5352935e-21
7.5343074e-21
7.5338627e-21
7.533792e-21
7.5340514e-21
7.5347286e-21
7.5361069e-21
7.5469319e-21
7.5416322e-21
7.5384788e-21
7.5366578e-21
7.5356787e-21
7.5352371e-21
7.535168e-21
7.5354283e-21
7.5361069e-21
7.5374891e-21
1.4409297e-20
1.4399112e-20
1.4393057e-20
1.4389553e-20
1.4387655e-20
1.4386768e-20
1.438656e-20
1.4386916e-20
1.4387945e-20
1.4390059e-20
1.4399112e-20
1.4388964e-20
1.4382922e-20
1.4379425e-20
1.4377531e-20
1.4376652e-20
1.4376458e-20
1.4376847e-20
1.4377962e-20
1.4380327e-20
1.4393057e-20
1.4382922e-20
1.4376889e-20
1.4373398e-20
1.4371511e-20
1.4370641e-20
1.4370464e-20
1.4370886e-20
1.4372061e-20
1.4374511e-20
1.4389553e-20
1.4379425e-20
1.4373398e-20
1.4369913e-20
1.4368032e-20
1.436717e-20
1.4367007e-20
1.4367452e-20
1.436866e-20
1.4371142e-20
1.4387655e-20
1.4377531e-20
1.4371511e-20
1.4368032e-20
1.4366157e-20
1.4365302e-20
1.4365149e-20
1.4365608e-20
1.4366832e-20
1.4369328e-20
1.4386768e-20
1.4376652e-20
1.4370641e-20
1.436717e-20
1.4365302e-20
1.4364454e-20
1.4364308e-20
1.4364774e-20
1.4366007e-20
1.4368509e-20
1.438656e-20
1.4376458e-20
1.4370464e-20
1.4367007e-20
1.4365149e-20
1.4364308e-20
1.4364167e-20
1.4364638e-20
1.4365875e-20
1.436838e-20
1.4386916e-20
1.4376847e-20
1.4370886e-20
1.4367452e-20
1.4365608e-20
1.4364774e-20
1.4364638e-20
1.4365113e-20
1.4366353e-20
1.4368859e-20
1.4387945e-20
1.4377962e-20
1.4372061e-20
1.436866e-20
1.4366832e-20
1.4366007e-20
1.4365875e-20
1.4366353e-20
1.4367594e-20
1.4370104e-20
1.4390059e-20
1.4380327e-20
1.4374511e-20
1.4371142e-20
1.4369328e-20
1.4368509e-20
1.436838e-20
1.4368859e-20
1.4370104e-20
1.437262e-20
2.7758497e-20
2.7739592e-20
2.7728305e-20
2.7721756e-20
2.7718201e-20
2.7716539e-20
2.7716145e-20
2.7716802e-20
2.7718698e-20
2.7722558e-20
2.7739592e-20
2.7720753e-20
2.7709491e-20
2.7702954e-20
2.7699409e-20
2.769776e-20
2.7697393e-20
2.7698113e-20
2.7700173e-20
2.7704513e-20
2.7728305e-20
2.7709491e-20
2.7698245e-20
2.769172e-20
2.7688187e-20
2.7686555e-20
2.7686221e-20
2.7687004e-20
2.7689177e-20
2.769368e-20
2.7721756e-20
2.7702954e-20
2.769172e-20
2.7685206e-20
2.7681684e-20
2.7680069e-20
2.7679762e-20
2.7680588e-20
2.7682823e-20
2.7687388e-20
2.7718201e-20
2.7699409e-20
2.7688187e-20
2.7681684e-20
2.7678174e-20
2.7676572e-20
2.7676284e-20
2.7677136e-20
2.7679403e-20
2.7683993e-20
2.7716539e-20
2.769776e-20
2.7686555e-20
2.7680069e-20
2.7676572e-20
2.7674983e-20
2.7674707e-20
2.7675575e-20
2.7677857e-20
2.7682459e-20
2.7716145e-20
2.7697393e-20
2.7686221e-20
2.7679762e-20
2.7676284e-20
2.7674707e-20
2.7674442e-20
2.7675318e-20
2.7677609e-20
2.7682216e-20
2.7716802e-20
2.7698113e-20
2.7687004e-20
2.7680588e-20
2.7677136e-20
2.7675575e-20
2.7675318e-20
2.7676201e-20
2.7678497e-20
2.7683107e-20
2.7718698e-20
2.7700173e-20
2.7689177e-20
2.7682823e-20
2.7679403e-20
2.7677857e-20
2.7677609e-20
2.7678497e-20
2.7680798e-20
2.7685412e-20
2.7722558e-20
2.7704513e-20
2.769368e-20
2.7687388e-20
2.7683993e-20
2.7682459e-20
2.7682216e-20
2.7683107e-20
2.7685412e-20
2.769004e-20
5.403096e-20
5.3995519e-20
5.3974273e-20
5.3961912e-20
5.3955191e-20
5.3952044e-20
5.3951294e-20
5.3952519e-20
5.3956045e-20
5.3963165e-20
5.3995519e-20
5.3960201e-20
5.3939e-20
5.3926663e-20
5.391996e-20
5.3916838e-20
5.3916139e-20
5.3917486e-20
5.3921329e-20
5.3929375e-20
5.3974273e-20
5.3939e-20
5.3917831e-20
5.3905516e-20
5.3898835e-20
5.3895748e-20
5.3895112e-20
5.3896578e-20
5.3900639e-20
5.3908998e-20
5.3961912e-20
5.3926663e-20
5.3905516e-20
5.3893221e-20
5.3886563e-20
5.3883506e-20
5.3882921e-20
5.3884471e-20
5.3888652e-20
5.389713e-20
5.3955191e-20
5.391996e-20
5.3898835e-20
5.3886563e-20
5.3879926e-20
5.3876896e-20
5.3876347e-20
5.3877947e-20
5.3882188e-20
5.3890716e-20
5.3952044e-20
5.3916838e-20
5.3895748e-20
5.3883506e-20
5.3876896e-20
5.3873888e-20
5.3873365e-20
5.3874994e-20
5.3879265e-20
5.3887814e-20
5.3951294e-20
5.3916139e-20
5.3895112e-20
5.3882921e-20
5.3876347e-20
5.3873365e-20
5.387286e-20
5.3874507e-20
5.3878794e-20
5.3887354e-20
5.3952519e-20
5.3917486e-20
5.3896578e-20
5.3884471e-20
5.3877947e-20
5.3874994e-20
5.3874507e-20
5.3876166e-20
5.3880463e-20
5.3889029e-20
5.3956045e-20
5.3921329e-20
5.3900639e-20
5.3888652e-20
5.3882188e-20
5.3879265e-20
5.3878794e-20
5.3880463e-20
5.3884769e-20
5.3893343e-20
5.3963165e-20
5.3929375e-20
5.3908998e-20
5.389713e-20
5.3890716e-20
5.3887814e-20
5.3887354e-20
5.3889029e-20
5.3893343e-20
5.390194e-20
1.0626585e-19
1.0619875e-19
1.0615836e-19
1.061348e-19
1.0612197e-19
1.0611595e-19
1.0611451e-19
1.0611682e-19
1.0612345e-19
1.0613671e-19
1.0619875e-19
1.0613188e-19
1.0609158e-19
1.0606806e-19
1.0605527e-19
1.060493e-19
1.0604796e-19
1.060505e-19
1.0605774e-19
1.0607281e-19
1.0615836e-19
1.0609158e-19
1.0605134e-19
1.0602786e-19
1.0601511e-19
1.0600921e-19
1.0600799e-19
1.0601076e-19
1.0601843e-19
1.0603411e-19
1.061348e-19
1.0606806e-19
1.0602786e-19
1.0600443e-19
1.0599172e-19
1.0598588e-19
1.0598475e-19
1.0598769e-19
1.0599559e-19
1.060115e-19
1.0612197e-19
1.0605527e-19
1.0601511e-19
1.0599172e-19
1.0597905e-19
1.0597326e-19
1.0597221e-19
1.0597524e-19
1.0598326e-19
1.0599926e-19
1.0611595e-19
1.060493e-19
1.0600921e-19
1.0598588e-19
1.0597326e-19
1.0596751e-19
1.0596651e-19
1.059696e-19
1.0597768e-19
1.0599372e-19
1.0611451e-19
1.0604796e-19
1.0600799e-19
1.0598475e-19
1.0597221e-19
1.0596651e-19
1.0596554e-19
1.0596867e-19
1.0597677e-19
1.0599284e-19
1.0611682e-19
1.060505e-19
1.0601076e-19
1.0598769e-19
1.0597524e-19
1.059696e-19
1.0596867e-19
1.0597182e-19
1.0597994e-19
1.0599602e-19
1.0612345e-19
1.0605774e-19
1.0601843e-19
1.0599559e-19
1.0598326e-19
1.0597768e-19
1.0597677e-19
1.0597994e-19
1.0598808e-19
1.0600418e-19
1.0613671e-19
1.0607281e-19
1.0603411e-19
1.060115e-19
1.0599926e-19
1.0599372e-19
1.0599284e-19
1.0599602e-19
1.0600418e-19
1.0602032e-19
2.1118145e-19
2.1105315e-19
2.1097562e-19
2.1093027e-19
2.1090553e-19
2.1089392e-19
2.1089112e-19
2.1089551e-19
2.1090809e-19
2.1093306e-19
2.1105315e-19
2.1092529e-19
2.1084792e-19
2.1080266e-19
2.1077799e-19
2.1076647e-19
2.1076386e-19
2.1076872e-19
2.1078251e-19
2.1081102e-19
2.1097562e-19
2.1084792e-19
2.1077066e-19
2.1072549e-19
2.107009e-19
2.1068951e-19
2.1068714e-19
2.1069245e-19
2.1070708e-19
2.1073679e-19
2.1093027e-19
2.1080266e-19
2.1072549e-19
2.1068038e-19
2.1065588e-19
2.1064461e-19
2.1064243e-19
2.1064806e-19
2.1066314e-19
2.1069331e-19
2.1090553e-19
2.1077799e-19
2.107009e-19
2.1065588e-19
2.1063146e-19
2.1062028e-19
2.1061825e-19
2.1062407e-19
2.1063938e-19
2.1066973e-19
2.1089392e-19
2.1076647e-19
2.1068951e-19
2.1064461e-19
2.1062028e-19
2.106092e-19
2.1060726e-19
2.1061319e-19
2.1062861e-19
2.1065905e-19
2.1089112e-19
2.1076386e-19
2.1068714e-19
2.1064243e-19
2.1061825e-19
2.1060726e-19
2.1060539e-19
2.1061139e-19
2.1062687e-19
2.1065735e-19
2.1089551e-19
2.1076872e-19
2.1069245e-19
2.1064806e-19
2.1062407e-19
2.1061319e-19
2.1061139e-19
2.1061743e-19
2.1063295e-19
2.1066345e-19
2.1090809e-19
2.1078251e-19
2.1070708e-19
2.1066314e-19
2.1063938e-19
2.1062861e-19
2.1062687e-19
2.1063295e-19
2.1064851e-19
2.1067903e-19
2.1093306e-19
2.1081102e-19
2.1073679e-19
2.1069331e-19
2.1066973e-19
2.1065905e-19
2.1065735e-19
2.1066345e-19
2.1067903e-19
2.1070964e-19
4.2406394e-19
4.238162e-19
4.236659e-19
4.2357777e-19
4.2352961e-19
4.2350698e-19
4.2350149e-19
4.2350993e-19
4.2353406e-19
4.2358154e-19
4.238162e-19
4.2356929e-19
4.2341931e-19
4.2333134e-19
4.2328331e-19
4.2326086e-19
4.2325576e-19
4.2326512e-19
4.2329166e-19
4.2334616e-19
4.236659e-19
4.2341931e-19
4.2326954e-19
4.2318173e-19
4.2313387e-19
4.2311167e-19
4.2310704e-19
4.2311731e-19
4.2314549e-19
4.2320237e-19
4.2357777e-19
4.2333134e-19
4.2318173e-19
4.2309407e-19
4.2304637e-19
4.2302441e-19
4.2302017e-19
4.2303106e-19
4.2306014e-19
4.2311793e-19
4.2352961e-19
4.2328331e-19
4.2313387e-19
4.2304637e-19
4.2299883e-19
4.2297707e-19
4.2297309e-19
4.2298437e-19
4.2301391e-19
4.2307207e-19
4.2350698e-19
4.2326086e-19
4.2311167e-19
4.2302441e-19
4.2297707e-19
4.2295548e-19
4.2295169e-19
4.2296319e-19
4.2299296e-19
4.2305128e-19
4.2350149e-19
4.2325576e-19
4.2310704e-19
4.2302017e-19
4.2297309e-19
4.2295169e-19
4.2294805e-19
4.2295968e-19
4.2298956e-19
4.2304796e-19
4.2350993e-19
4.2326512e-19
4.2311731e-19
4.2303106e-19
4.2298437e-19
4.2296319e-19
4.2295968e-19
4.229714e-19
4.2300136e-19
4.230598e-19
4.2353406e-19
4.2329166e-19
4.2314549e-19
4.2306014e-19
4.2301391e-19
4.2299296e-19
4.2298956e-19
4.2300136e-19
4.2303137e-19
4.2308988e-19
4.2358154e-19
4.2334616e-19
4.2320237e-19
4.2311793e-19
4.2307207e-19
4.2305128e-19
4.2304796e-19
4.230598e-19
4.2308988e-19
4.2314853e-19
8.6043602e-19
8.599529e-19
8.5965868e-19
8.5948572e-19
8.5939106e-19
8.5934652e-19
8.5933565e-19
8.5935206e-19
8.5939882e-19
8.5949001e-19
8.599529e-19
8.5947141e-19
8.5917779e-19
8.5900514e-19
8.5891073e-19
8.5886657e-19
8.5885648e-19
8.5887473e-19
8.5892631e-19
8.5903158e-19
8.5965868e-19
8.5917779e-19
8.588846e-19
8.5871227e-19
8.5861818e-19
8.5857452e-19
8.5856538e-19
8.5858544e-19
8.5864031e-19
8.5875034e-19
8.5948572e-19
8.5900514e-19
8.5871227e-19
8.5854023e-19
8.5844647e-19
8.5840328e-19
8.583949e-19
8.5841622e-19
8.5847289e-19
8.5858473e-19
8.5939106e-19
8.5891073e-19
8.5861818e-19
8.5844647e-19
8.5835303e-19
8.5831023e-19
8.583024e-19
8.5832448e-19
8.5838206e-19
8.5849465e-19
8.5934652e-19
8.5886657e-19
8.5857452e-19
8.5840328e-19
8.5831023e-19
8.5826778e-19
8.5826032e-19
8.5828283e-19
8.5834088e-19
8.5845379e-19
8.5933565e-19
8.5885648e-19
8.5856538e-19
8.583949e-19
8.583024e-19
8.5826032e-19
8.5825315e-19
8.5827593e-19
8.5833421e-19
8.5844728e-19
8.5935206e-19
8.5887473e-19
8.5858544e-19
8.5841622e-19
8.5832448e-19
8.5828283e-19
8.5827593e-19
8.582989e-19
8.5835732e-19
8.5847048e-19
8.5939882e-19
8.5892631e-19
8.5864031e-19
8.5847289e-19
8.5838206e-19
8.5834088e-19
8.5833421e-19
8.5835732e-19
8.5841585e-19
8.5852913e-19
8.5949001e-19
8.5903158e-19
8.5875034e-19
8.5858473e-19
8.5849465e-19
8.5845379e-19
8.5844728e-19
8.5847048e-19
8.5852913e-19
8.5864269e-19
1.7640499e-18
1.7630985e-18
1.7625169e-18
1.7621742e-18
1.7619863e-18
1.7618978e-18
1.7618761e-18
1.7619084e-18
1.7619999e-18
1.7621768e-18
1.7630985e-18
1.7621503e-18
1.7615699e-18
1.7612278e-18
1.7610404e-18
1.7609527e-18
1.7609326e-18
1.7609685e-18
1.7610698e-18
1.7612752e-18
1.7625169e-18
1.7615699e-18
1.7609903e-18
1.7606488e-18
1.7604621e-18
1.7603754e-18
1.7603572e-18
1.7603968e-18
1.7605047e-18
1.7607197e-18
1.7621742e-18
1.7612278e-18
1.7606488e-18
1.7603079e-18
1.7601218e-18
1.760036e-18
1.7600194e-18
1.7600615e-18
1.7601731e-18
1.7603918e-18
1.7619863e-18
1.7610404e-18
1.7604621e-18
1.7601218e-18
1.7599364e-18
1.7598514e-18
1.7598358e-18
1.7598795e-18
1.7599929e-18
1.7602132e-18
1.7618978e-18
1.7609527e-18
1.7603754e-18
1.760036e-18
1.7598514e-18
1.7597671e-18
1.7597523e-18
1.7597969e-18
1.7599112e-18
1.7601321e-18
1.7618761e-18
1.7609326e-18
1.7603572e-18
1.7600194e-18
1.7598358e-18
1.7597523e-18
1.7597381e-18
1.7597832e-18
1.759898e-18
1.7601192e-18
1.7619084e-18
1.7609685e-18
1.7603968e-18
1.7600615e-18
1.7598795e-18
1.7597969e-18
1.7597832e-18
1.7598286e-18
1.7599438e-18
1.7601651e-18
1.7619999e-18
1.7610698e-18
1.7605047e-18
1.7601731e-18
1.7599929e-18
1.7599112e-18
1.759898e-18
1.7599438e-18
1.7600591e-18
1.7602807e-18
1.7621768e-18
1.7612752e-18
1.7607197e-18
1.7603918e-18
1.7602132e-18
1.7601321e-18
1.7601192e-18
1.7601651e-18
1.7602807e-18
1.7605028e-18
3.6542362e-18
3.6523443e-18
3.6511835e-18
3.6504977e-18
3.6501212e-18
3.6499437e-18
3.6499e-18
3.6499639e-18
3.6501449e-18
3.6504916e-18
3.6523443e-18
3.6504588e-18
3.6493002e-18
3.6486156e-18
3.6482401e-18
3.6480642e-18
3.6480237e-18
3.6480953e-18
3.6482961e-18
3.6487011e-18
3.6511835e-18
3.6493002e-18
3.6481434e-18
3.64746e-18
3.6470858e-18
3.6469119e-18
3.6468754e-18
3.6469544e-18
3.6471688e-18
3.6475935e-18
3.6504977e-18
3.6486156e-18
3.64746e-18
3.6467779e-18
3.646405e-18
3.646233e-18
3.6461996e-18
3.6462838e-18
3.6465057e-18
3.6469378e-18
3.6501212e-18
3.6482401e-18
3.6470858e-18
3.646405e-18
3.6460335e-18
3.6458631e-18
3.6458319e-18
3.6459192e-18
3.6461449e-18
3.6465801e-18
3.6499437e-18
3.6480642e-18
3.6469119e-18
3.646233e-18
3.6458631e-18
3.6456941e-18
3.6456645e-18
3.6457536e-18
3.6459812e-18
3.6464177e-18
3.6499e-18
3.6480237e-18
3.6468754e-18
3.6461996e-18
3.6458319e-18
3.6456645e-18
3.6456361e-18
3.6457263e-18
3.6459548e-18
3.646392e-18
3.6499639e-18
3.6480953e-18
3.6469544e-18
3.6462838e-18
3.6459192e-18
3.6457536e-18
3.6457263e-18
3.6458172e-18
3.6460463e-18
3.6464839e-18
3.6501449e-18
3.6482961e-18
3.6471688e-18
3.6465057e-18
3.6461449e-18
3.6459812e-18
3.6459548e-18
3.6460463e-18
3.6462759e-18
3.6467139e-18
3.6504916e-18
3.6487011e-18
3.6475935e-18
3.6469378e-18
3.6465801e-18
3.6464177e-18
3.646392e-18
3.6464839e-18
3.6467139e-18
3.6471529e-18
7.6481939e-18
7.6443953e-18
7.6420558e-18
7.6406704e-18
7.6399087e-18
7.6395492e-18
7.6394606e-18
7.6395887e-18
7.6399503e-18
7.6406366e-18
7.6443953e-18
7.6406092e-18
7.6382744e-18
7.6368914e-18
7.6361317e-18
7.6357754e-18
7.6356934e-18
7.6358372e-18
7.6362397e-18
7.6370462e-18
7.6420558e-18
7.6382744e-18
7.6359429e-18
7.6345624e-18
7.6338054e-18
7.6334534e-18
7.6333793e-18
7.6335385e-18
7.6339691e-18
7.6348162e-18
7.6406704e-18
7.6368914e-18
7.6345624e-18
7.6331844e-18
7.6324301e-18
7.632082e-18
7.6320145e-18
7.6321843e-18
7.6326302e-18
7.6334927e-18
7.6399087e-18
7.6361317e-18
7.6338054e-18
7.6324301e-18
7.6316785e-18
7.6313337e-18
7.6312707e-18
7.6314471e-18
7.6319007e-18
7.6327696e-18
7.6395492e-18
7.6357754e-18
7.6334534e-18
7.632082e-18
7.6313337e-18
7.6309918e-18
7.630932e-18
7.631112e-18
7.6315696e-18
7.6324412e-18
7.6394606e-18
7.6356934e-18
7.6333793e-18
7.6320145e-18
7.6312707e-18
7.630932e-18
7.6308747e-18
7.631057e-18
7.6315165e-18
7.6323895e-18
7.6395887e-18
7.6358372e-18
7.6335385e-18
7.6321843e-18
7.6314471e-18
7.631112e-18
7.631057e-18
7.6312408e-18
7.6317015e-18
7.6325752e-18
7.6399503e-18
7.6362397e-18
7.6339691e-18
7.6326302e-18
7.6319007e-18
7.6315696e-18
7.6315165e-18
7.6317015e-18
7.6321632e-18
7.6330378e-18
7.6406366e-18
7.6370462e-18
7.6348162e-18
7.6334927e-18
7.6327696e-18
7.6324412e-18