/*--------------------------------*- C++ -*----------------------------------*\
| =========                 |                                                 |
| \\      /  F ield         | OpenFOAM: The Open Source CFD Toolbox           |
|  \\    /   O peration     | Version:  dev                                   |
|   \\  /    A nd           | Web:      www.OpenFOAM.org                      |
|    \\/     M anipulation  |                                                 |
\*---------------------------------------------------------------------------*/
FoamFile
{
    version     2.0;
    format      ascii;
    class       volScalarField;
    location    "12";
    object      A;
}
// * * * * * * * * * * * * * * * * * * * * * * * * * * * * * * * * * * * * * //

dimensions      [0 0 0 0 1 0 0];

internalField   nonuniform List<scalar> 
10000
(
6.7190508e-67
6.7171655e-67
6.7164835e-67
6.7162776e-67
6.7162259e-67
6.716215e-67
6.7162135e-67
6.7162151e-67
6.7162224e-67
6.7162507e-67
6.7171655e-67
6.7152815e-67
6.7145998e-67
6.714394e-67
6.7143424e-67
6.7143316e-67
6.7143303e-67
6.714333e-67
6.7143445e-67
6.7143884e-67
6.7164835e-67
6.7145998e-67
6.7139182e-67
6.7137125e-67
6.7136609e-67
6.7136501e-67
6.713649e-67
6.7136523e-67
6.713666e-67
6.7137141e-67
6.7162776e-67
6.714394e-67
6.7137125e-67
6.7135068e-67
6.7134552e-67
6.7134444e-67
6.7134434e-67
6.713447e-67
6.7134613e-67
6.7135105e-67
6.7162259e-67
6.7143424e-67
6.7136609e-67
6.7134552e-67
6.7134036e-67
6.7133928e-67
6.7133918e-67
6.7133955e-67
6.7134099e-67
6.7134594e-67
6.716215e-67
6.7143316e-67
6.7136501e-67
6.7134444e-67
6.7133928e-67
6.7133821e-67
6.713381e-67
6.7133847e-67
6.7133992e-67
6.7134488e-67
6.7162135e-67
6.7143303e-67
6.713649e-67
6.7134434e-67
6.7133918e-67
6.713381e-67
6.71338e-67
6.7133837e-67
6.7133982e-67
6.7134477e-67
6.7162151e-67
6.714333e-67
6.7136523e-67
6.713447e-67
6.7133955e-67
6.7133847e-67
6.7133837e-67
6.7133874e-67
6.7134019e-67
6.7134514e-67
6.7162224e-67
6.7143445e-67
6.713666e-67
6.7134613e-67
6.7134099e-67
6.7133992e-67
6.7133982e-67
6.7134019e-67
6.7134165e-67
6.713466e-67
6.7162507e-67
6.7143884e-67
6.7137141e-67
6.7135105e-67
6.7134594e-67
6.7134488e-67
6.7134477e-67
6.7134514e-67
6.713466e-67
6.7135155e-67
4.3099969e-66
4.3088199e-66
4.308391e-66
4.3082614e-66
4.3082289e-66
4.3082221e-66
4.3082211e-66
4.3082221e-66
4.3082267e-66
4.3082451e-66
4.3088199e-66
4.3076436e-66
4.3072149e-66
4.3070854e-66
4.3070529e-66
4.3070461e-66
4.3070453e-66
4.307047e-66
4.3070543e-66
4.3070826e-66
4.308391e-66
4.3072149e-66
4.3067864e-66
4.3066569e-66
4.3066244e-66
4.3066176e-66
4.3066169e-66
4.306619e-66
4.3066277e-66
4.3066587e-66
4.3082614e-66
4.3070854e-66
4.3066569e-66
4.3065274e-66
4.306495e-66
4.3064882e-66
4.3064875e-66
4.3064898e-66
4.3064988e-66
4.3065306e-66
4.3082289e-66
4.3070529e-66
4.3066244e-66
4.306495e-66
4.3064625e-66
4.3064557e-66
4.3064551e-66
4.3064574e-66
4.3064665e-66
4.3064984e-66
4.3082221e-66
4.3070461e-66
4.3066176e-66
4.3064882e-66
4.3064557e-66
4.3064489e-66
4.3064483e-66
4.3064506e-66
4.3064598e-66
4.3064917e-66
4.3082211e-66
4.3070453e-66
4.3066169e-66
4.3064875e-66
4.3064551e-66
4.3064483e-66
4.3064476e-66
4.30645e-66
4.3064592e-66
4.3064911e-66
4.3082221e-66
4.307047e-66
4.306619e-66
4.3064898e-66
4.3064574e-66
4.3064506e-66
4.30645e-66
4.3064523e-66
4.3064615e-66
4.3064934e-66
4.3082267e-66
4.3070543e-66
4.3066277e-66
4.3064988e-66
4.3064665e-66
4.3064598e-66
4.3064592e-66
4.3064615e-66
4.3064707e-66
4.3065026e-66
4.3082451e-66
4.3070826e-66
4.3066587e-66
4.3065306e-66
4.3064984e-66
4.3064917e-66
4.3064911e-66
4.3064934e-66
4.3065026e-66
4.3065345e-66
2.3199646e-65
2.3193485e-65
2.3191234e-65
2.3190553e-65
2.3190382e-65
2.3190347e-65
2.3190341e-65
2.3190347e-65
2.3190371e-65
2.3190466e-65
2.3193485e-65
2.3187327e-65
2.3185077e-65
2.3184397e-65
2.3184226e-65
2.318419e-65
2.3184186e-65
2.3184195e-65
2.3184234e-65
2.3184382e-65
2.3191234e-65
2.3185077e-65
2.3182828e-65
2.3182148e-65
2.3181977e-65
2.3181942e-65
2.3181938e-65
2.3181949e-65
2.3181994e-65
2.3182157e-65
2.3190553e-65
2.3184397e-65
2.3182148e-65
2.3181468e-65
2.3181297e-65
2.3181262e-65
2.3181258e-65
2.318127e-65
2.3181318e-65
2.3181484e-65
2.3190382e-65
2.3184226e-65
2.3181977e-65
2.3181297e-65
2.3181127e-65
2.3181091e-65
2.3181088e-65
2.31811e-65
2.3181148e-65
2.3181315e-65
2.3190347e-65
2.318419e-65
2.3181942e-65
2.3181262e-65
2.3181091e-65
2.3181055e-65
2.3181052e-65
2.3181064e-65
2.3181113e-65
2.318128e-65
2.3190341e-65
2.3184186e-65
2.3181938e-65
2.3181258e-65
2.3181088e-65
2.3181052e-65
2.3181049e-65
2.3181061e-65
2.3181109e-65
2.3181277e-65
2.3190347e-65
2.3184195e-65
2.3181949e-65
2.318127e-65
2.31811e-65
2.3181064e-65
2.3181061e-65
2.3181074e-65
2.3181122e-65
2.3181289e-65
2.3190371e-65
2.3184234e-65
2.3181994e-65
2.3181318e-65
2.3181148e-65
2.3181113e-65
2.3181109e-65
2.3181122e-65
2.318117e-65
2.3181337e-65
2.3190466e-65
2.3184382e-65
2.3182157e-65
2.3181484e-65
2.3181315e-65
2.318128e-65
2.3181277e-65
2.3181289e-65
2.3181337e-65
2.3181505e-65
1.2701541e-64
1.2698262e-64
1.2697062e-64
1.2696699e-64
1.2696607e-64
1.2696588e-64
1.2696585e-64
1.2696588e-64
1.2696601e-64
1.269665e-64
1.2698262e-64
1.2694985e-64
1.2693785e-64
1.2693422e-64
1.2693331e-64
1.2693312e-64
1.269331e-64
1.2693315e-64
1.2693335e-64
1.2693413e-64
1.2697062e-64
1.2693785e-64
1.2692586e-64
1.2692223e-64
1.2692132e-64
1.2692113e-64
1.2692111e-64
1.2692117e-64
1.2692141e-64
1.2692227e-64
1.2696699e-64
1.2693422e-64
1.2692223e-64
1.269186e-64
1.2691769e-64
1.269175e-64
1.2691748e-64
1.2691755e-64
1.269178e-64
1.2691868e-64
1.2696607e-64
1.2693331e-64
1.2692132e-64
1.2691769e-64
1.2691678e-64
1.2691659e-64
1.2691657e-64
1.2691664e-64
1.2691689e-64
1.2691778e-64
1.2696588e-64
1.2693312e-64
1.2692113e-64
1.269175e-64
1.2691659e-64
1.269164e-64
1.2691638e-64
1.2691645e-64
1.2691671e-64
1.2691759e-64
1.2696585e-64
1.269331e-64
1.2692111e-64
1.2691748e-64
1.2691657e-64
1.2691638e-64
1.2691636e-64
1.2691643e-64
1.2691669e-64
1.2691757e-64
1.2696588e-64
1.2693315e-64
1.2692117e-64
1.2691755e-64
1.2691664e-64
1.2691645e-64
1.2691643e-64
1.269165e-64
1.2691676e-64
1.2691764e-64
1.2696601e-64
1.2693335e-64
1.2692141e-64
1.269178e-64
1.2691689e-64
1.2691671e-64
1.2691669e-64
1.2691676e-64
1.2691701e-64
1.269179e-64
1.269665e-64
1.2693413e-64
1.2692227e-64
1.2691868e-64
1.2691778e-64
1.2691759e-64
1.2691757e-64
1.2691764e-64
1.269179e-64
1.2691878e-64
7.1169981e-64
7.1152131e-64
7.1145583e-64
7.11436e-64
7.1143101e-64
7.1142997e-64
7.1142982e-64
7.1142998e-64
7.1143066e-64
7.114333e-64
7.1152131e-64
7.1134292e-64
7.1127747e-64
7.1125765e-64
7.1125267e-64
7.1125163e-64
7.112515e-64
7.1125177e-64
7.1125289e-64
7.112571e-64
7.1145583e-64
7.1127747e-64
7.1121203e-64
7.1119221e-64
7.1118724e-64
7.111862e-64
7.1118609e-64
7.1118643e-64
7.1118776e-64
7.111924e-64
7.11436e-64
7.1125765e-64
7.1119221e-64
7.111724e-64
7.1116742e-64
7.1116638e-64
7.1116629e-64
7.1116665e-64
7.1116805e-64
7.1117279e-64
7.1143101e-64
7.1125267e-64
7.1118724e-64
7.1116742e-64
7.1116245e-64
7.1116141e-64
7.1116131e-64
7.1116168e-64
7.111631e-64
7.1116787e-64
7.1142997e-64
7.1125163e-64
7.111862e-64
7.1116638e-64
7.1116141e-64
7.1116037e-64
7.1116028e-64
7.1116064e-64
7.1116206e-64
7.1116684e-64
7.1142982e-64
7.112515e-64
7.1118609e-64
7.1116629e-64
7.1116131e-64
7.1116028e-64
7.1116018e-64
7.1116055e-64
7.1116197e-64
7.1116675e-64
7.1142998e-64
7.1125177e-64
7.1118643e-64
7.1116665e-64
7.1116168e-64
7.1116064e-64
7.1116055e-64
7.1116092e-64
7.1116234e-64
7.1116712e-64
7.1143066e-64
7.1125289e-64
7.1118776e-64
7.1116805e-64
7.111631e-64
7.1116206e-64
7.1116197e-64
7.1116234e-64
7.1116376e-64
7.1116854e-64
7.114333e-64
7.112571e-64
7.111924e-64
7.1117279e-64
7.1116787e-64
7.1116684e-64
7.1116675e-64
7.1116712e-64
7.1116854e-64
7.1117332e-64
4.0822596e-63
4.0812653e-63
4.0808998e-63
4.080789e-63
4.0807612e-63
4.0807553e-63
4.0807545e-63
4.0807554e-63
4.0807592e-63
4.0807735e-63
4.0812653e-63
4.0802717e-63
4.0799063e-63
4.0797956e-63
4.0797678e-63
4.0797619e-63
4.0797613e-63
4.0797628e-63
4.079769e-63
4.0797923e-63
4.0808998e-63
4.0799063e-63
4.079541e-63
4.0794303e-63
4.0794025e-63
4.0793967e-63
4.0793961e-63
4.079398e-63
4.0794055e-63
4.0794312e-63
4.080789e-63
4.0797956e-63
4.0794303e-63
4.0793197e-63
4.0792918e-63
4.079286e-63
4.0792855e-63
4.0792875e-63
4.0792954e-63
4.0793217e-63
4.0807612e-63
4.0797678e-63
4.0794025e-63
4.0792918e-63
4.079264e-63
4.0792582e-63
4.0792577e-63
4.0792598e-63
4.0792677e-63
4.0792942e-63
4.0807553e-63
4.0797619e-63
4.0793967e-63
4.079286e-63
4.0792582e-63
4.0792524e-63
4.0792519e-63
4.079254e-63
4.079262e-63
4.0792884e-63
4.0807545e-63
4.0797613e-63
4.0793961e-63
4.0792855e-63
4.0792577e-63
4.0792519e-63
4.0792514e-63
4.0792535e-63
4.0792615e-63
4.0792879e-63
4.0807554e-63
4.0797628e-63
4.079398e-63
4.0792875e-63
4.0792598e-63
4.079254e-63
4.0792535e-63
4.0792556e-63
4.0792635e-63
4.07929e-63
4.0807592e-63
4.079769e-63
4.0794055e-63
4.0792954e-63
4.0792677e-63
4.079262e-63
4.0792615e-63
4.0792635e-63
4.0792715e-63
4.079298e-63
4.0807735e-63
4.0797923e-63
4.0794312e-63
4.0793217e-63
4.0792942e-63
4.0792884e-63
4.0792879e-63
4.07929e-63
4.079298e-63
4.0793245e-63
2.3970319e-62
2.3964652e-62
2.3962564e-62
2.3961931e-62
2.3961772e-62
2.3961738e-62
2.3961734e-62
2.3961739e-62
2.3961761e-62
2.396184e-62
2.3964652e-62
2.3958988e-62
2.3956902e-62
2.3956269e-62
2.395611e-62
2.3956076e-62
2.3956073e-62
2.3956081e-62
2.3956117e-62
2.3956249e-62
2.3962564e-62
2.3956902e-62
2.3954816e-62
2.3954183e-62
2.3954024e-62
2.3953991e-62
2.3953987e-62
2.3953998e-62
2.3954041e-62
2.3954187e-62
2.3961931e-62
2.3956269e-62
2.3954183e-62
2.395355e-62
2.3953391e-62
2.3953358e-62
2.3953355e-62
2.3953367e-62
2.3953412e-62
2.3953561e-62
2.3961772e-62
2.395611e-62
2.3954024e-62
2.3953391e-62
2.3953232e-62
2.3953199e-62
2.3953196e-62
2.3953208e-62
2.3953254e-62
2.3953404e-62
2.3961738e-62
2.3956076e-62
2.3953991e-62
2.3953358e-62
2.3953199e-62
2.3953166e-62
2.3953163e-62
2.3953175e-62
2.3953221e-62
2.3953371e-62
2.3961734e-62
2.3956073e-62
2.3953987e-62
2.3953355e-62
2.3953196e-62
2.3953163e-62
2.395316e-62
2.3953172e-62
2.3953218e-62
2.3953368e-62
2.3961739e-62
2.3956081e-62
2.3953998e-62
2.3953367e-62
2.3953208e-62
2.3953175e-62
2.3953172e-62
2.3953184e-62
2.395323e-62
2.395338e-62
2.3961761e-62
2.3956117e-62
2.3954041e-62
2.3953412e-62
2.3953254e-62
2.3953221e-62
2.3953218e-62
2.395323e-62
2.3953276e-62
2.3953426e-62
2.396184e-62
2.3956249e-62
2.3954187e-62
2.3953561e-62
2.3953404e-62
2.3953371e-62
2.3953368e-62
2.395338e-62
2.3953426e-62
2.3953576e-62
1.440837e-61
1.4405066e-61
1.4403846e-61
1.4403476e-61
1.4403383e-61
1.4403363e-61
1.440336e-61
1.4403363e-61
1.4403376e-61
1.4403421e-61
1.4405066e-61
1.4401763e-61
1.4400543e-61
1.4400173e-61
1.440008e-61
1.4400061e-61
1.4400059e-61
1.4400064e-61
1.4400085e-61
1.4400161e-61
1.4403846e-61
1.4400543e-61
1.4399324e-61
1.4398955e-61
1.4398862e-61
1.4398842e-61
1.439884e-61
1.4398847e-61
1.4398872e-61
1.4398957e-61
1.4403476e-61
1.4400173e-61
1.4398955e-61
1.4398585e-61
1.4398492e-61
1.4398472e-61
1.439847e-61
1.4398477e-61
1.4398504e-61
1.4398591e-61
1.4403383e-61
1.440008e-61
1.4398862e-61
1.4398492e-61
1.4398399e-61
1.4398379e-61
1.4398378e-61
1.4398385e-61
1.4398412e-61
1.4398499e-61
1.4403363e-61
1.4400061e-61
1.4398842e-61
1.4398472e-61
1.4398379e-61
1.439836e-61
1.4398358e-61
1.4398365e-61
1.4398392e-61
1.439848e-61
1.440336e-61
1.4400059e-61
1.439884e-61
1.439847e-61
1.4398378e-61
1.4398358e-61
1.4398356e-61
1.4398364e-61
1.4398391e-61
1.4398478e-61
1.4403363e-61
1.4400064e-61
1.4398847e-61
1.4398477e-61
1.4398385e-61
1.4398365e-61
1.4398364e-61
1.4398371e-61
1.4398398e-61
1.4398485e-61
1.4403376e-61
1.4400085e-61
1.4398872e-61
1.4398504e-61
1.4398412e-61
1.4398392e-61
1.4398391e-61
1.4398398e-61
1.4398425e-61
1.4398512e-61
1.4403421e-61
1.4400161e-61
1.4398957e-61
1.4398591e-61
1.4398499e-61
1.439848e-61
1.4398478e-61
1.4398485e-61
1.4398512e-61
1.4398599e-61
8.8657837e-61
8.8638117e-61
8.8630824e-61
8.8628609e-61
8.8628052e-61
8.8627935e-61
8.8627919e-61
8.8627937e-61
8.8628013e-61
8.8628279e-61
8.8638117e-61
8.8618408e-61
8.8611119e-61
8.8608905e-61
8.8608349e-61
8.8608232e-61
8.8608218e-61
8.860825e-61
8.8608377e-61
8.8608829e-61
8.8630824e-61
8.8611119e-61
8.8603831e-61
8.8601618e-61
8.8601061e-61
8.8600945e-61
8.8600934e-61
8.8600973e-61
8.8601125e-61
8.8601628e-61
8.8628609e-61
8.8608905e-61
8.8601618e-61
8.8599405e-61
8.8598848e-61
8.8598732e-61
8.8598722e-61
8.8598764e-61
8.8598924e-61
8.859944e-61
8.8628052e-61
8.8608349e-61
8.8601061e-61
8.8598848e-61
8.8598292e-61
8.8598176e-61
8.8598166e-61
8.8598209e-61
8.8598371e-61
8.859889e-61
8.8627935e-61
8.8608232e-61
8.8600945e-61
8.8598732e-61
8.8598176e-61
8.859806e-61
8.859805e-61
8.8598093e-61
8.8598255e-61
8.8598775e-61
8.8627919e-61
8.8608218e-61
8.8600934e-61
8.8598722e-61
8.8598166e-61
8.859805e-61
8.859804e-61
8.8598083e-61
8.8598245e-61
8.8598765e-61
8.8627937e-61
8.860825e-61
8.8600973e-61
8.8598764e-61
8.8598209e-61
8.8598093e-61
8.8598083e-61
8.8598126e-61
8.8598289e-61
8.8598808e-61
8.8628013e-61
8.8608377e-61
8.8601125e-61
8.8598924e-61
8.8598371e-61
8.8598255e-61
8.8598245e-61
8.8598289e-61
8.8598451e-61
8.8598971e-61
8.8628279e-61
8.8608829e-61
8.8601628e-61
8.859944e-61
8.859889e-61
8.8598775e-61
8.8598765e-61
8.8598808e-61
8.8598971e-61
8.8599491e-61
5.5843001e-60
5.5830962e-60
5.5826501e-60
5.5825146e-60
5.5824805e-60
5.5824733e-60
5.5824723e-60
5.5824734e-60
5.5824781e-60
5.582494e-60
5.5830962e-60
5.581893e-60
5.5814472e-60
5.5813117e-60
5.5812776e-60
5.5812704e-60
5.5812696e-60
5.5812715e-60
5.5812794e-60
5.5813068e-60
5.5826501e-60
5.5814472e-60
5.5810014e-60
5.5808659e-60
5.5808319e-60
5.5808247e-60
5.5808241e-60
5.5808265e-60
5.5808358e-60
5.5808665e-60
5.5825146e-60
5.5813117e-60
5.5808659e-60
5.5807305e-60
5.5806964e-60
5.5806893e-60
5.5806887e-60
5.5806913e-60
5.5807011e-60
5.5807326e-60
5.5824805e-60
5.5812776e-60
5.5808319e-60
5.5806964e-60
5.5806623e-60
5.5806552e-60
5.5806546e-60
5.5806573e-60
5.5806673e-60
5.5806989e-60
5.5824733e-60
5.5812704e-60
5.5808247e-60
5.5806893e-60
5.5806552e-60
5.5806481e-60
5.5806475e-60
5.5806502e-60
5.5806602e-60
5.5806919e-60
5.5824723e-60
5.5812696e-60
5.5808241e-60
5.5806887e-60
5.5806546e-60
5.5806475e-60
5.5806469e-60
5.5806496e-60
5.5806596e-60
5.5806913e-60
5.5824734e-60
5.5812715e-60
5.5808265e-60
5.5806913e-60
5.5806573e-60
5.5806502e-60
5.5806496e-60
5.5806523e-60
5.5806623e-60
5.580694e-60
5.5824781e-60
5.5812794e-60
5.5808358e-60
5.5807011e-60
5.5806673e-60
5.5806602e-60
5.5806596e-60
5.5806623e-60
5.5806723e-60
5.580704e-60
5.582494e-60
5.5813068e-60
5.5808665e-60
5.5807326e-60
5.5806989e-60
5.5806919e-60
5.5806913e-60
5.580694e-60
5.580704e-60
5.5807357e-60
3.6004148e-59
3.5996629e-59
3.5993838e-59
3.5992989e-59
3.5992775e-59
3.599273e-59
3.5992724e-59
3.5992731e-59
3.599276e-59
3.5992858e-59
3.5996629e-59
3.5989114e-59
3.5986324e-59
3.5985475e-59
3.5985262e-59
3.5985217e-59
3.5985212e-59
3.5985224e-59
3.5985274e-59
3.5985445e-59
3.5993838e-59
3.5986324e-59
3.5983535e-59
3.5982686e-59
3.5982473e-59
3.5982428e-59
3.5982424e-59
3.598244e-59
3.5982499e-59
3.598269e-59
3.5992989e-59
3.5985475e-59
3.5982686e-59
3.5981838e-59
3.5981625e-59
3.598158e-59
3.5981576e-59
3.5981593e-59
3.5981655e-59
3.5981852e-59
3.5992775e-59
3.5985262e-59
3.5982473e-59
3.5981625e-59
3.5981411e-59
3.5981367e-59
3.5981363e-59
3.598138e-59
3.5981443e-59
3.5981641e-59
3.599273e-59
3.5985217e-59
3.5982428e-59
3.598158e-59
3.5981367e-59
3.5981322e-59
3.5981319e-59
3.5981336e-59
3.5981399e-59
3.5981597e-59
3.5992724e-59
3.5985212e-59
3.5982424e-59
3.5981576e-59
3.5981363e-59
3.5981319e-59
3.5981315e-59
3.5981332e-59
3.5981395e-59
3.5981593e-59
3.5992731e-59
3.5985224e-59
3.598244e-59
3.5981593e-59
3.598138e-59
3.5981336e-59
3.5981332e-59
3.5981349e-59
3.5981412e-59
3.598161e-59
3.599276e-59
3.5985274e-59
3.5982499e-59
3.5981655e-59
3.5981443e-59
3.5981399e-59
3.5981395e-59
3.5981412e-59
3.5981475e-59
3.5981673e-59
3.5992858e-59
3.5985445e-59
3.598269e-59
3.5981852e-59
3.5981641e-59
3.5981597e-59
3.5981593e-59
3.598161e-59
3.5981673e-59
3.5981871e-59
2.3759965e-58
2.3755161e-58
2.3753374e-58
2.3752831e-58
2.3752694e-58
2.3752665e-58
2.3752661e-58
2.3752666e-58
2.3752684e-58
2.3752745e-58
2.3755161e-58
2.3750359e-58
2.3748573e-58
2.374803e-58
2.3747893e-58
2.3747864e-58
2.3747861e-58
2.3747869e-58
2.3747901e-58
2.374801e-58
2.3753374e-58
2.3748573e-58
2.3746788e-58
2.3746245e-58
2.3746108e-58
2.3746079e-58
2.3746077e-58
2.3746087e-58
2.3746125e-58
2.3746247e-58
2.3752831e-58
2.374803e-58
2.3746245e-58
2.3745701e-58
2.3745565e-58
2.3745536e-58
2.3745534e-58
2.3745544e-58
2.3745585e-58
2.374571e-58
2.3752694e-58
2.3747893e-58
2.3746108e-58
2.3745565e-58
2.3745428e-58
2.3745399e-58
2.3745397e-58
2.3745408e-58
2.3745449e-58
2.3745575e-58
2.3752665e-58
2.3747864e-58
2.3746079e-58
2.3745536e-58
2.3745399e-58
2.3745371e-58
2.3745369e-58
2.374538e-58
2.374542e-58
2.3745547e-58
2.3752661e-58
2.3747861e-58
2.3746077e-58
2.3745534e-58
2.3745397e-58
2.3745369e-58
2.3745366e-58
2.3745377e-58
2.3745418e-58
2.3745544e-58
2.3752666e-58
2.3747869e-58
2.3746087e-58
2.3745544e-58
2.3745408e-58
2.374538e-58
2.3745377e-58
2.3745388e-58
2.3745429e-58
2.3745555e-58
2.3752684e-58
2.3747901e-58
2.3746125e-58
2.3745585e-58
2.3745449e-58
2.374542e-58
2.3745418e-58
2.3745429e-58
2.374547e-58
2.3745596e-58
2.3752745e-58
2.374801e-58
2.3746247e-58
2.374571e-58
2.3745575e-58
2.3745547e-58
2.3745544e-58
2.3745555e-58
2.3745596e-58
2.3745723e-58
1.6047972e-57
1.6044832e-57
1.6043662e-57
1.6043306e-57
1.6043216e-57
1.6043197e-57
1.6043195e-57
1.6043198e-57
1.604321e-57
1.6043249e-57
1.6044832e-57
1.6041693e-57
1.6040524e-57
1.6040168e-57
1.6040079e-57
1.604006e-57
1.6040058e-57
1.6040063e-57
1.6040084e-57
1.6040155e-57
1.6043662e-57
1.6040524e-57
1.6039355e-57
1.6039e-57
1.603891e-57
1.6038891e-57
1.6038889e-57
1.6038896e-57
1.6038921e-57
1.6039001e-57
1.6043306e-57
1.6040168e-57
1.6039e-57
1.6038644e-57
1.6038554e-57
1.6038535e-57
1.6038534e-57
1.6038541e-57
1.6038567e-57
1.603865e-57
1.6043216e-57
1.6040079e-57
1.603891e-57
1.6038554e-57
1.6038464e-57
1.6038446e-57
1.6038444e-57
1.6038451e-57
1.6038478e-57
1.6038561e-57
1.6043197e-57
1.604006e-57
1.6038891e-57
1.6038535e-57
1.6038446e-57
1.6038427e-57
1.6038426e-57
1.6038433e-57
1.603846e-57
1.6038543e-57
1.6043195e-57
1.6040058e-57
1.6038889e-57
1.6038534e-57
1.6038444e-57
1.6038426e-57
1.6038424e-57
1.6038431e-57
1.6038458e-57
1.6038541e-57
1.6043198e-57
1.6040063e-57
1.6038896e-57
1.6038541e-57
1.6038451e-57
1.6038433e-57
1.6038431e-57
1.6038439e-57
1.6038466e-57
1.6038548e-57
1.604321e-57
1.6040084e-57
1.6038921e-57
1.6038567e-57
1.6038478e-57
1.603846e-57
1.6038458e-57
1.6038466e-57
1.6038493e-57
1.6038575e-57
1.6043249e-57
1.6040155e-57
1.6039001e-57
1.603865e-57
1.6038561e-57
1.6038543e-57
1.6038541e-57
1.6038548e-57
1.6038575e-57
1.6038658e-57
1.1092805e-56
1.1090706e-56
1.1089923e-56
1.1089684e-56
1.1089624e-56
1.1089611e-56
1.1089609e-56
1.1089611e-56
1.108962e-56
1.1089646e-56
1.1090706e-56
1.1088608e-56
1.1087825e-56
1.1087586e-56
1.1087526e-56
1.1087514e-56
1.1087512e-56
1.1087516e-56
1.108753e-56
1.1087578e-56
1.1089923e-56
1.1087825e-56
1.1087042e-56
1.1086804e-56
1.1086744e-56
1.1086731e-56
1.108673e-56
1.1086734e-56
1.1086751e-56
1.1086805e-56
1.1089684e-56
1.1087586e-56
1.1086804e-56
1.1086565e-56
1.1086505e-56
1.1086493e-56
1.1086492e-56
1.1086496e-56
1.1086514e-56
1.1086569e-56
1.1089624e-56
1.1087526e-56
1.1086744e-56
1.1086505e-56
1.1086445e-56
1.1086433e-56
1.1086432e-56
1.1086436e-56
1.1086455e-56
1.108651e-56
1.1089611e-56
1.1087514e-56
1.1086731e-56
1.1086493e-56
1.1086433e-56
1.108642e-56
1.1086419e-56
1.1086424e-56
1.1086442e-56
1.1086498e-56
1.1089609e-56
1.1087512e-56
1.108673e-56
1.1086492e-56
1.1086432e-56
1.1086419e-56
1.1086418e-56
1.1086423e-56
1.1086441e-56
1.1086497e-56
1.1089611e-56
1.1087516e-56
1.1086734e-56
1.1086496e-56
1.1086436e-56
1.1086424e-56
1.1086423e-56
1.1086428e-56
1.1086446e-56
1.1086502e-56
1.108962e-56
1.108753e-56
1.1086751e-56
1.1086514e-56
1.1086455e-56
1.1086442e-56
1.1086441e-56
1.1086446e-56
1.1086465e-56
1.108652e-56
1.1089646e-56
1.1087578e-56
1.1086805e-56
1.1086569e-56
1.108651e-56
1.1086498e-56
1.1086497e-56
1.1086502e-56
1.108652e-56
1.1086575e-56
7.8463768e-56
7.8449416e-56
7.8444053e-56
7.8442417e-56
7.8442005e-56
7.8441919e-56
7.8441907e-56
7.8441921e-56
7.8441978e-56
7.8442152e-56
7.8449416e-56
7.8435072e-56
7.8429711e-56
7.8428077e-56
7.8427665e-56
7.8427579e-56
7.8427569e-56
7.8427594e-56
7.8427692e-56
7.8428017e-56
7.8444053e-56
7.8429711e-56
7.8424351e-56
7.8422717e-56
7.8422305e-56
7.8422219e-56
7.8422212e-56
7.8422243e-56
7.8422361e-56
7.8422728e-56
7.8442417e-56
7.8428077e-56
7.8422717e-56
7.8421083e-56
7.8420671e-56
7.8420585e-56
7.8420578e-56
7.8420612e-56
7.8420737e-56
7.8421114e-56
7.8442005e-56
7.8427665e-56
7.8422305e-56
7.8420671e-56
7.842026e-56
7.8420174e-56
7.8420167e-56
7.8420201e-56
7.8420328e-56
7.8420707e-56
7.8441919e-56
7.8427579e-56
7.8422219e-56
7.8420585e-56
7.8420174e-56
7.8420088e-56
7.8420081e-56
7.8420116e-56
7.8420242e-56
7.8420623e-56
7.8441907e-56
7.8427569e-56
7.8422212e-56
7.8420578e-56
7.8420167e-56
7.8420081e-56
7.8420075e-56
7.8420109e-56
7.8420236e-56
7.8420616e-56
7.8441921e-56
7.8427594e-56
7.8422243e-56
7.8420612e-56
7.8420201e-56
7.8420116e-56
7.8420109e-56
7.8420144e-56
7.842027e-56
7.8420651e-56
7.8441978e-56
7.8427692e-56
7.8422361e-56
7.8420737e-56
7.8420328e-56
7.8420242e-56
7.8420236e-56
7.842027e-56
7.8420397e-56
7.8420777e-56
7.8442152e-56
7.8428017e-56
7.8422728e-56
7.8421114e-56
7.8420707e-56
7.8420623e-56
7.8420616e-56
7.8420651e-56
7.8420777e-56
7.8421157e-56
5.6788048e-55
5.6778015e-55
5.6774259e-55
5.6773113e-55
5.6772825e-55
5.6772764e-55
5.6772756e-55
5.6772766e-55
5.6772805e-55
5.6772926e-55
5.6778015e-55
5.6767987e-55
5.6764233e-55
5.6763088e-55
5.6762799e-55
5.6762738e-55
5.6762732e-55
5.676275e-55
5.6762819e-55
5.6763047e-55
5.6774259e-55
5.6764233e-55
5.676048e-55
5.6759335e-55
5.6759046e-55
5.6758986e-55
5.6758981e-55
5.6759003e-55
5.6759086e-55
5.6759344e-55
5.6773113e-55
5.6763088e-55
5.6759335e-55
5.675819e-55
5.6757901e-55
5.6757841e-55
5.6757836e-55
5.675786e-55
5.6757948e-55
5.6758213e-55
5.6772825e-55
5.6762799e-55
5.6759046e-55
5.6757901e-55
5.6757613e-55
5.6757553e-55
5.6757548e-55
5.6757572e-55
5.6757662e-55
5.6757928e-55
5.6772764e-55
5.6762738e-55
5.6758986e-55
5.6757841e-55
5.6757553e-55
5.6757493e-55
5.6757488e-55
5.6757513e-55
5.6757602e-55
5.6757869e-55
5.6772756e-55
5.6762732e-55
5.6758981e-55
5.6757836e-55
5.6757548e-55
5.6757488e-55
5.6757483e-55
5.6757508e-55
5.6757597e-55
5.6757864e-55
5.6772766e-55
5.676275e-55
5.6759003e-55
5.675786e-55
5.6757572e-55
5.6757513e-55
5.6757508e-55
5.6757533e-55
5.6757622e-55
5.6757889e-55
5.6772805e-55
5.6762819e-55
5.6759086e-55
5.6757948e-55
5.6757662e-55
5.6757602e-55
5.6757597e-55
5.6757622e-55
5.6757712e-55
5.6757979e-55
5.6772926e-55
5.6763047e-55
5.6759344e-55
5.6758213e-55
5.6757928e-55
5.6757869e-55
5.6757864e-55
5.6757889e-55
5.6757979e-55
5.6758246e-55
4.2048613e-54
4.2041442e-54
4.2038753e-54
4.2037933e-54
4.2037726e-54
4.2037682e-54
4.2037676e-54
4.2037684e-54
4.2037712e-54
4.2037797e-54
4.2041442e-54
4.2034274e-54
4.2031587e-54
4.2030767e-54
4.203056e-54
4.2030516e-54
4.2030512e-54
4.2030525e-54
4.2030575e-54
4.2030738e-54
4.2038753e-54
4.2031587e-54
4.20289e-54
4.202808e-54
4.2027873e-54
4.202783e-54
4.2027826e-54
4.2027842e-54
4.2027903e-54
4.2028088e-54
4.2037933e-54
4.2030767e-54
4.202808e-54
4.202726e-54
4.2027053e-54
4.202701e-54
4.2027007e-54
4.2027024e-54
4.2027088e-54
4.2027278e-54
4.2037726e-54
4.203056e-54
4.2027873e-54
4.2027053e-54
4.2026846e-54
4.2026803e-54
4.20268e-54
4.2026818e-54
4.2026883e-54
4.2027074e-54
4.2037682e-54
4.2030516e-54
4.202783e-54
4.202701e-54
4.2026803e-54
4.202676e-54
4.2026757e-54
4.2026775e-54
4.202684e-54
4.2027031e-54
4.2037676e-54
4.2030512e-54
4.2027826e-54
4.2027007e-54
4.20268e-54
4.2026757e-54
4.2026754e-54
4.2026772e-54
4.2026837e-54
4.2027028e-54
4.2037684e-54
4.2030525e-54
4.2027842e-54
4.2027024e-54
4.2026818e-54
4.2026775e-54
4.2026772e-54
4.202679e-54
4.2026855e-54
4.2027046e-54
4.2037712e-54
4.2030575e-54
4.2027903e-54
4.2027088e-54
4.2026883e-54
4.202684e-54
4.2026837e-54
4.2026855e-54
4.2026919e-54
4.2027111e-54
4.2037797e-54
4.2030738e-54
4.2028088e-54
4.2027278e-54
4.2027074e-54
4.2027031e-54
4.2027028e-54
4.2027046e-54
4.2027111e-54
4.2027303e-54
3.184884e-53
3.18436e-53
3.1841633e-53
3.1841032e-53
3.184088e-53
3.1840848e-53
3.1840844e-53
3.1840849e-53
3.184087e-53
3.1840932e-53
3.18436e-53
3.1838363e-53
3.1836396e-53
3.1835795e-53
3.1835644e-53
3.1835612e-53
3.1835609e-53
3.1835618e-53
3.1835655e-53
3.1835775e-53
3.1841633e-53
3.1836396e-53
3.183443e-53
3.1833829e-53
3.1833678e-53
3.1833646e-53
3.1833644e-53
3.1833656e-53
3.18337e-53
3.1833836e-53
3.1841032e-53
3.1835795e-53
3.1833829e-53
3.1833229e-53
3.1833077e-53
3.1833046e-53
3.1833043e-53
3.1833056e-53
3.1833104e-53
3.1833244e-53
3.184088e-53
3.1835644e-53
3.1833678e-53
3.1833077e-53
3.1832926e-53
3.1832895e-53
3.1832892e-53
3.1832905e-53
3.1832953e-53
3.1833094e-53
3.1840848e-53
3.1835612e-53
3.1833646e-53
3.1833046e-53
3.1832895e-53
3.1832863e-53
3.1832861e-53
3.1832874e-53
3.1832922e-53
3.1833063e-53
3.1840844e-53
3.1835609e-53
3.1833644e-53
3.1833043e-53
3.1832892e-53
3.1832861e-53
3.1832858e-53
3.1832872e-53
3.183292e-53
3.1833061e-53
3.1840849e-53
3.1835618e-53
3.1833656e-53
3.1833056e-53
3.1832905e-53
3.1832874e-53
3.1832872e-53
3.1832885e-53
3.1832933e-53
3.1833074e-53
3.184087e-53
3.1835655e-53
3.18337e-53
3.1833104e-53
3.1832953e-53
3.1832922e-53
3.183292e-53
3.1832933e-53
3.1832981e-53
3.1833122e-53
3.1840932e-53
3.1835775e-53
3.1833836e-53
3.1833244e-53
3.1833094e-53
3.1833063e-53
3.1833061e-53
3.1833074e-53
3.1833122e-53
3.1833263e-53
2.4672664e-52
2.466875e-52
2.4667279e-52
2.4666829e-52
2.4666716e-52
2.4666692e-52
2.4666689e-52
2.4666693e-52
2.4666709e-52
2.4666754e-52
2.466875e-52
2.4664839e-52
2.4663368e-52
2.4662919e-52
2.4662805e-52
2.4662782e-52
2.4662779e-52
2.4662787e-52
2.4662815e-52
2.4662904e-52
2.4667279e-52
2.4663368e-52
2.4661898e-52
2.4661448e-52
2.4661335e-52
2.4661311e-52
2.4661309e-52
2.4661319e-52
2.4661353e-52
2.4661455e-52
2.4666829e-52
2.4662919e-52
2.4661448e-52
2.4660999e-52
2.4660886e-52
2.4660862e-52
2.466086e-52
2.466087e-52
2.4660906e-52
2.4661011e-52
2.4666716e-52
2.4662805e-52
2.4661335e-52
2.4660886e-52
2.4660772e-52
2.4660749e-52
2.4660747e-52
2.4660757e-52
2.4660793e-52
2.4660899e-52
2.4666692e-52
2.4662782e-52
2.4661311e-52
2.4660862e-52
2.4660749e-52
2.4660725e-52
2.4660724e-52
2.4660734e-52
2.466077e-52
2.4660876e-52
2.4666689e-52
2.4662779e-52
2.4661309e-52
2.466086e-52
2.4660747e-52
2.4660724e-52
2.4660722e-52
2.4660732e-52
2.4660768e-52
2.4660874e-52
2.4666693e-52
2.4662787e-52
2.4661319e-52
2.466087e-52
2.4660757e-52
2.4660734e-52
2.4660732e-52
2.4660742e-52
2.4660779e-52
2.4660885e-52
2.4666709e-52
2.4662815e-52
2.4661353e-52
2.4660906e-52
2.4660793e-52
2.466077e-52
2.4660768e-52
2.4660779e-52
2.4660815e-52
2.4660921e-52
2.4666754e-52
2.4662904e-52
2.4661455e-52
2.4661011e-52
2.4660899e-52
2.4660876e-52
2.4660874e-52
2.4660885e-52
2.4660921e-52
2.4661027e-52
1.9545419e-51
1.9542433e-51
1.9541308e-51
1.9540964e-51
1.9540878e-51
1.9540859e-51
1.9540857e-51
1.954086e-51
1.9540872e-51
1.9540907e-51
1.9542433e-51
1.9539448e-51
1.9538324e-51
1.953798e-51
1.9537893e-51
1.9537875e-51
1.9537873e-51
1.9537879e-51
1.9537901e-51
1.953797e-51
1.9541308e-51
1.9538324e-51
1.95372e-51
1.9536856e-51
1.953677e-51
1.9536752e-51
1.953675e-51
1.9536757e-51
1.9536784e-51
1.9536862e-51
1.9540964e-51
1.953798e-51
1.9536856e-51
1.9536513e-51
1.9536426e-51
1.9536408e-51
1.9536407e-51
1.9536414e-51
1.9536442e-51
1.9536523e-51
1.9540878e-51
1.9537893e-51
1.953677e-51
1.9536426e-51
1.9536339e-51
1.9536321e-51
1.953632e-51
1.9536328e-51
1.9536356e-51
1.9536437e-51
1.9540859e-51
1.9537875e-51
1.9536752e-51
1.9536408e-51
1.9536321e-51
1.9536303e-51
1.9536302e-51
1.953631e-51
1.9536338e-51
1.953642e-51
1.9540857e-51
1.9537873e-51
1.953675e-51
1.9536407e-51
1.953632e-51
1.9536302e-51
1.9536301e-51
1.9536309e-51
1.9536337e-51
1.9536418e-51
1.954086e-51
1.9537879e-51
1.9536757e-51
1.9536414e-51
1.9536328e-51
1.953631e-51
1.9536309e-51
1.9536317e-51
1.9536345e-51
1.9536426e-51
1.9540872e-51
1.9537901e-51
1.9536784e-51
1.9536442e-51
1.9536356e-51
1.9536338e-51
1.9536337e-51
1.9536345e-51
1.9536373e-51
1.9536455e-51
1.9540907e-51
1.953797e-51
1.9536862e-51
1.9536523e-51
1.9536437e-51
1.953642e-51
1.9536418e-51
1.9536426e-51
1.9536455e-51
1.9536536e-51
1.5830659e-50
1.5828331e-50
1.5827453e-50
1.5827184e-50
1.5827116e-50
1.5827102e-50
1.58271e-50
1.5827103e-50
1.5827112e-50
1.5827139e-50
1.5828331e-50
1.5826004e-50
1.5825126e-50
1.5824857e-50
1.582479e-50
1.5824775e-50
1.5824774e-50
1.5824779e-50
1.5824796e-50
1.582485e-50
1.5827453e-50
1.5825126e-50
1.5824248e-50
1.582398e-50
1.5823912e-50
1.5823898e-50
1.5823897e-50
1.5823903e-50
1.5823924e-50
1.5823985e-50
1.5827184e-50
1.5824857e-50
1.582398e-50
1.5823712e-50
1.5823644e-50
1.582363e-50
1.5823629e-50
1.5823635e-50
1.5823657e-50
1.582372e-50
1.5827116e-50
1.582479e-50
1.5823912e-50
1.5823644e-50
1.5823576e-50
1.5823562e-50
1.5823561e-50
1.5823567e-50
1.582359e-50
1.5823654e-50
1.5827102e-50
1.5824775e-50
1.5823898e-50
1.582363e-50
1.5823562e-50
1.5823548e-50
1.5823547e-50
1.5823553e-50
1.5823576e-50
1.582364e-50
1.58271e-50
1.5824774e-50
1.5823897e-50
1.5823629e-50
1.5823561e-50
1.5823547e-50
1.5823546e-50
1.5823552e-50
1.5823575e-50
1.5823639e-50
1.5827103e-50
1.5824779e-50
1.5823903e-50
1.5823635e-50
1.5823567e-50
1.5823553e-50
1.5823552e-50
1.5823559e-50
1.5823581e-50
1.5823645e-50
1.5827112e-50
1.5824796e-50
1.5823924e-50
1.5823657e-50
1.582359e-50
1.5823576e-50
1.5823575e-50
1.5823581e-50
1.5823603e-50
1.5823667e-50
1.5827139e-50
1.582485e-50
1.5823985e-50
1.582372e-50
1.5823654e-50
1.582364e-50
1.5823639e-50
1.5823645e-50
1.5823667e-50
1.5823732e-50
1.3106562e-49