/*--------------------------------*- C++ -*----------------------------------*\
| =========                 |                                                 |
| \\      /  F ield         | OpenFOAM: The Open Source CFD Toolbox           |
|  \\    /   O peration     | Version:  dev                                   |
|   \\  /    A nd           | Web:      www.OpenFOAM.org                      |
|    \\/     M anipulation  |                                                 |
\*---------------------------------------------------------------------------*/
FoamFile
{
    version     2.0;
    format      ascii;
    class       volScalarField;
    location    "12";
    object      A_0;
}
// * * * * * * * * * * * * * * * * * * * * * * * * * * * * * * * * * * * * * //

dimensions      [0 0 0 0 1 0 0];

internalField   nonuniform List<scalar> 
10000
(
6.5477554e-67
6.545917e-67
6.5452521e-67
6.5450514e-67
6.5450011e-67
6.5449905e-67
6.544989e-67
6.5449906e-67
6.5449977e-67
6.5450252e-67
6.545917e-67
6.5440799e-67
6.5434152e-67
6.5432147e-67
6.5431644e-67
6.5431538e-67
6.5431526e-67
6.5431552e-67
6.5431665e-67
6.5432092e-67
6.5452521e-67
6.5434152e-67
6.5427508e-67
6.5425503e-67
6.5425e-67
6.5424895e-67
6.5424884e-67
6.5424916e-67
6.5425049e-67
6.5425519e-67
6.5450514e-67
6.5432147e-67
6.5425503e-67
6.5423498e-67
6.5422995e-67
6.542289e-67
6.542288e-67
6.5422915e-67
6.5423054e-67
6.5423534e-67
6.5450011e-67
6.5431644e-67
6.5425e-67
6.5422995e-67
6.5422492e-67
6.5422387e-67
6.5422377e-67
6.5422413e-67
6.5422554e-67
6.5423036e-67
6.5449905e-67
6.5431538e-67
6.5424895e-67
6.542289e-67
6.5422387e-67
6.5422282e-67
6.5422272e-67
6.5422308e-67
6.542245e-67
6.5422932e-67
6.544989e-67
6.5431526e-67
6.5424884e-67
6.542288e-67
6.5422377e-67
6.5422272e-67
6.5422262e-67
6.5422298e-67
6.542244e-67
6.5422922e-67
6.5449906e-67
6.5431552e-67
6.5424916e-67
6.5422915e-67
6.5422413e-67
6.5422308e-67
6.5422298e-67
6.5422334e-67
6.5422476e-67
6.5422958e-67
6.5449977e-67
6.5431665e-67
6.5425049e-67
6.5423054e-67
6.5422554e-67
6.542245e-67
6.542244e-67
6.5422476e-67
6.5422617e-67
6.54231e-67
6.5450252e-67
6.5432092e-67
6.5425519e-67
6.5423534e-67
6.5423036e-67
6.5422932e-67
6.5422922e-67
6.5422958e-67
6.54231e-67
6.5423583e-67
4.2011528e-66
4.2000048e-66
4.1995865e-66
4.1994602e-66
4.1994286e-66
4.1994219e-66
4.1994209e-66
4.1994219e-66
4.1994264e-66
4.1994443e-66
4.2000048e-66
4.1988574e-66
4.1984394e-66
4.1983132e-66
4.1982815e-66
4.1982749e-66
4.1982741e-66
4.1982757e-66
4.1982829e-66
4.1983105e-66
4.1995865e-66
4.1984394e-66
4.1980215e-66
4.1978953e-66
4.1978636e-66
4.197857e-66
4.1978563e-66
4.1978584e-66
4.1978668e-66
4.1978971e-66
4.1994602e-66
4.1983132e-66
4.1978953e-66
4.1977691e-66
4.1977375e-66
4.1977308e-66
4.1977302e-66
4.1977324e-66
4.1977412e-66
4.1977722e-66
4.1994286e-66
4.1982815e-66
4.1978636e-66
4.1977375e-66
4.1977058e-66
4.1976992e-66
4.1976986e-66
4.1977008e-66
4.1977098e-66
4.1977408e-66
4.1994219e-66
4.1982749e-66
4.197857e-66
4.1977308e-66
4.1976992e-66
4.1976926e-66
4.197692e-66
4.1976943e-66
4.1977032e-66
4.1977343e-66
4.1994209e-66
4.1982741e-66
4.1978563e-66
4.1977302e-66
4.1976986e-66
4.197692e-66
4.1976913e-66
4.1976936e-66
4.1977026e-66
4.1977337e-66
4.1994219e-66
4.1982757e-66
4.1978584e-66
4.1977324e-66
4.1977008e-66
4.1976943e-66
4.1976936e-66
4.1976959e-66
4.1977049e-66
4.1977359e-66
4.1994264e-66
4.1982829e-66
4.1978668e-66
4.1977412e-66
4.1977098e-66
4.1977032e-66
4.1977026e-66
4.1977049e-66
4.1977138e-66
4.1977449e-66
4.1994443e-66
4.1983105e-66
4.1978971e-66
4.1977722e-66
4.1977408e-66
4.1977343e-66
4.1977337e-66
4.1977359e-66
4.1977449e-66
4.197776e-66
2.2620802e-65
2.261479e-65
2.2612595e-65
2.2611931e-65
2.2611765e-65
2.2611729e-65
2.2611725e-65
2.261173e-65
2.2611753e-65
2.2611846e-65
2.261479e-65
2.2608782e-65
2.2606588e-65
2.2605924e-65
2.2605758e-65
2.2605723e-65
2.2605719e-65
2.2605728e-65
2.2605765e-65
2.2605909e-65
2.2612595e-65
2.2606588e-65
2.2604394e-65
2.260373e-65
2.2603564e-65
2.2603529e-65
2.2603526e-65
2.2603537e-65
2.2603581e-65
2.2603739e-65
2.2611931e-65
2.2605924e-65
2.260373e-65
2.2603067e-65
2.2602901e-65
2.2602866e-65
2.2602863e-65
2.2602875e-65
2.2602921e-65
2.2603083e-65
2.2611765e-65
2.2605758e-65
2.2603564e-65
2.2602901e-65
2.2602735e-65
2.26027e-65
2.2602697e-65
2.2602709e-65
2.2602756e-65
2.2602919e-65
2.2611729e-65
2.2605723e-65
2.2603529e-65
2.2602866e-65
2.26027e-65
2.2602665e-65
2.2602662e-65
2.2602674e-65
2.2602721e-65
2.2602884e-65
2.2611725e-65
2.2605719e-65
2.2603526e-65
2.2602863e-65
2.2602697e-65
2.2602662e-65
2.2602659e-65
2.2602671e-65
2.2602718e-65
2.2602881e-65
2.261173e-65
2.2605728e-65
2.2603537e-65
2.2602875e-65
2.2602709e-65
2.2602674e-65
2.2602671e-65
2.2602683e-65
2.260273e-65
2.2602893e-65
2.2611753e-65
2.2605765e-65
2.2603581e-65
2.2602921e-65
2.2602756e-65
2.2602721e-65
2.2602718e-65
2.260273e-65
2.2602777e-65
2.260294e-65
2.2611846e-65
2.2605909e-65
2.2603739e-65
2.2603083e-65
2.2602919e-65
2.2602884e-65
2.2602881e-65
2.2602893e-65
2.260294e-65
2.2603103e-65
1.2388587e-64
1.2385387e-64
1.2384216e-64
1.2383861e-64
1.2383773e-64
1.2383754e-64
1.2383751e-64
1.2383754e-64
1.2383766e-64
1.2383815e-64
1.2385387e-64
1.2382189e-64
1.2381018e-64
1.2380664e-64
1.2380575e-64
1.2380556e-64
1.2380554e-64
1.2380559e-64
1.2380579e-64
1.2380655e-64
1.2384216e-64
1.2381018e-64
1.2379848e-64
1.2379494e-64
1.2379405e-64
1.2379386e-64
1.2379384e-64
1.237939e-64
1.2379414e-64
1.2379498e-64
1.2383861e-64
1.2380664e-64
1.2379494e-64
1.237914e-64
1.2379051e-64
1.2379032e-64
1.237903e-64
1.2379037e-64
1.2379062e-64
1.2379147e-64
1.2383773e-64
1.2380575e-64
1.2379405e-64
1.2379051e-64
1.2378962e-64
1.2378943e-64
1.2378942e-64
1.2378948e-64
1.2378973e-64
1.2379059e-64
1.2383754e-64
1.2380556e-64
1.2379386e-64
1.2379032e-64
1.2378943e-64
1.2378925e-64
1.2378923e-64
1.237893e-64
1.2378955e-64
1.2379041e-64
1.2383751e-64
1.2380554e-64
1.2379384e-64
1.237903e-64
1.2378942e-64
1.2378923e-64
1.2378921e-64
1.2378928e-64
1.2378953e-64
1.2379039e-64
1.2383754e-64
1.2380559e-64
1.237939e-64
1.2379037e-64
1.2378948e-64
1.237893e-64
1.2378928e-64
1.2378934e-64
1.237896e-64
1.2379046e-64
1.2383766e-64
1.2380579e-64
1.2379414e-64
1.2379062e-64
1.2378973e-64
1.2378955e-64
1.2378953e-64
1.237896e-64
1.2378985e-64
1.2379071e-64
1.2383815e-64
1.2380655e-64
1.2379498e-64
1.2379147e-64
1.2379059e-64
1.2379041e-64
1.2379039e-64
1.2379046e-64
1.2379071e-64
1.2379157e-64
6.9438795e-64
6.9421368e-64
6.9414976e-64
6.9413041e-64
6.9412555e-64
6.9412452e-64
6.9412438e-64
6.9412453e-64
6.9412521e-64
6.9412777e-64
6.9421368e-64
6.9403952e-64
6.9397563e-64
6.9395628e-64
6.9395143e-64
6.9395041e-64
6.9395029e-64
6.9395055e-64
6.9395165e-64
6.9395575e-64
6.9414976e-64
6.9397563e-64
6.9391175e-64
6.9389241e-64
6.9388756e-64
6.9388654e-64
6.9388644e-64
6.9388677e-64
6.9388807e-64
6.9389259e-64
6.9413041e-64
6.9395628e-64
6.9389241e-64
6.9387308e-64
6.9386822e-64
6.9386721e-64
6.9386712e-64
6.9386747e-64
6.9386883e-64
6.9387347e-64
6.9412555e-64
6.9395143e-64
6.9388756e-64
6.9386822e-64
6.9386337e-64
6.9386236e-64
6.9386226e-64
6.9386262e-64
6.93864e-64
6.9386866e-64
6.9412452e-64
6.9395041e-64
6.9388654e-64
6.9386721e-64
6.9386236e-64
6.9386135e-64
6.9386125e-64
6.9386161e-64
6.93863e-64
6.9386766e-64
6.9412438e-64
6.9395029e-64
6.9388644e-64
6.9386712e-64
6.9386226e-64
6.9386125e-64
6.9386116e-64
6.9386152e-64
6.9386291e-64
6.9386757e-64
6.9412453e-64
6.9395055e-64
6.9388677e-64
6.9386747e-64
6.9386262e-64
6.9386161e-64
6.9386152e-64
6.9386188e-64
6.9386327e-64
6.9386793e-64
6.9412521e-64
6.9395165e-64
6.9388807e-64
6.9386883e-64
6.93864e-64
6.93863e-64
6.9386291e-64
6.9386327e-64
6.9386465e-64
6.9386932e-64
6.9412777e-64
6.9395575e-64
6.9389259e-64
6.9387347e-64
6.9386866e-64
6.9386766e-64
6.9386757e-64
6.9386793e-64
6.9386932e-64
6.9387398e-64
3.9842535e-63
3.9832824e-63
3.9829255e-63
3.9828174e-63
3.9827902e-63
3.9827845e-63
3.9827837e-63
3.9827846e-63
3.9827883e-63
3.9828023e-63
3.9832824e-63
3.982312e-63
3.9819553e-63
3.9818472e-63
3.98182e-63
3.9818143e-63
3.9818137e-63
3.9818152e-63
3.9818213e-63
3.981844e-63
3.9829255e-63
3.9819553e-63
3.9815986e-63
3.9814906e-63
3.9814634e-63
3.9814577e-63
3.9814572e-63
3.981459e-63
3.9814663e-63
3.9814914e-63
3.9828174e-63
3.9818472e-63
3.9814906e-63
3.9813825e-63
3.9813554e-63
3.9813497e-63
3.9813492e-63
3.9813512e-63
3.9813588e-63
3.9813845e-63
3.9827902e-63
3.98182e-63
3.9814634e-63
3.9813554e-63
3.9813282e-63
3.9813226e-63
3.9813221e-63
3.9813241e-63
3.9813319e-63
3.9813577e-63
3.9827845e-63
3.9818143e-63
3.9814577e-63
3.9813497e-63
3.9813226e-63
3.9813169e-63
3.9813164e-63
3.9813184e-63
3.9813262e-63
3.9813521e-63
3.9827837e-63
3.9818137e-63
3.9814572e-63
3.9813492e-63
3.9813221e-63
3.9813164e-63
3.9813159e-63
3.9813179e-63
3.9813257e-63
3.9813516e-63
3.9827846e-63
3.9818152e-63
3.981459e-63
3.9813512e-63
3.9813241e-63
3.9813184e-63
3.9813179e-63
3.98132e-63
3.9813278e-63
3.9813536e-63
3.9827883e-63
3.9818213e-63
3.9814663e-63
3.9813588e-63
3.9813319e-63
3.9813262e-63
3.9813257e-63
3.9813278e-63
3.9813355e-63
3.9813614e-63
3.9828023e-63
3.981844e-63
3.9814914e-63
3.9813845e-63
3.9813577e-63
3.9813521e-63
3.9813516e-63
3.9813536e-63
3.9813614e-63
3.9813872e-63
2.3402497e-62
2.3396961e-62
2.3394922e-62
2.3394304e-62
2.3394149e-62
2.3394116e-62
2.3394111e-62
2.3394116e-62
2.3394138e-62
2.3394215e-62
2.3396961e-62
2.3391428e-62
2.338939e-62
2.3388772e-62
2.3388617e-62
2.3388584e-62
2.3388581e-62
2.3388589e-62
2.3388624e-62
2.3388753e-62
2.3394922e-62
2.338939e-62
2.3387352e-62
2.3386735e-62
2.338658e-62
2.3386547e-62
2.3386544e-62
2.3386555e-62
2.3386596e-62
2.3386739e-62
2.3394304e-62
2.3388772e-62
2.3386735e-62
2.3386117e-62
2.3385962e-62
2.3385929e-62
2.3385926e-62
2.3385938e-62
2.3385982e-62
2.3386128e-62
2.3394149e-62
2.3388617e-62
2.338658e-62
2.3385962e-62
2.3385807e-62
2.3385774e-62
2.3385771e-62
2.3385783e-62
2.3385828e-62
2.3385974e-62
2.3394116e-62
2.3388584e-62
2.3386547e-62
2.3385929e-62
2.3385774e-62
2.3385742e-62
2.3385739e-62
2.3385751e-62
2.3385796e-62
2.3385942e-62
2.3394111e-62
2.3388581e-62
2.3386544e-62
2.3385926e-62
2.3385771e-62
2.3385739e-62
2.3385736e-62
2.3385748e-62
2.3385793e-62
2.3385939e-62
2.3394116e-62
2.3388589e-62
2.3386555e-62
2.3385938e-62
2.3385783e-62
2.3385751e-62
2.3385748e-62
2.338576e-62
2.3385804e-62
2.3385951e-62
2.3394138e-62
2.3388624e-62
2.3386596e-62
2.3385982e-62
2.3385828e-62
2.3385796e-62
2.3385793e-62
2.3385804e-62
2.3385849e-62
2.3385996e-62
2.3394215e-62
2.3388753e-62
2.3386739e-62
2.3386128e-62
2.3385974e-62
2.3385942e-62
2.3385939e-62
2.3385951e-62
2.3385996e-62
2.3386143e-62
1.4071693e-61
1.4068463e-61
1.4067271e-61
1.4066909e-61
1.4066819e-61
1.4066799e-61
1.4066797e-61
1.40668e-61
1.4066812e-61
1.4066857e-61
1.4068463e-61
1.4065235e-61
1.4064044e-61
1.4063682e-61
1.4063591e-61
1.4063572e-61
1.406357e-61
1.4063575e-61
1.4063596e-61
1.406367e-61
1.4067271e-61
1.4064044e-61
1.4062853e-61
1.4062491e-61
1.4062401e-61
1.4062382e-61
1.406238e-61
1.4062386e-61
1.4062411e-61
1.4062493e-61
1.4066909e-61
1.4063682e-61
1.4062491e-61
1.406213e-61
1.4062039e-61
1.406202e-61
1.4062019e-61
1.4062025e-61
1.4062051e-61
1.4062136e-61
1.4066819e-61
1.4063591e-61
1.4062401e-61
1.4062039e-61
1.4061948e-61
1.406193e-61
1.4061928e-61
1.4061935e-61
1.4061961e-61
1.4062046e-61
1.4066799e-61
1.4063572e-61
1.4062382e-61
1.406202e-61
1.406193e-61
1.4061911e-61
1.4061909e-61
1.4061916e-61
1.4061942e-61
1.4062027e-61
1.4066797e-61
1.406357e-61
1.406238e-61
1.4062019e-61
1.4061928e-61
1.4061909e-61
1.4061907e-61
1.4061914e-61
1.4061941e-61
1.4062026e-61
1.40668e-61
1.4063575e-61
1.4062386e-61
1.4062025e-61
1.4061935e-61
1.4061916e-61
1.4061914e-61
1.4061921e-61
1.4061948e-61
1.4062033e-61
1.4066812e-61
1.4063596e-61
1.4062411e-61
1.4062051e-61
1.4061961e-61
1.4061942e-61
1.4061941e-61
1.4061948e-61
1.4061974e-61
1.4062059e-61
1.4066857e-61
1.406367e-61
1.4062493e-61
1.4062136e-61
1.4062046e-61
1.4062027e-61
1.4062026e-61
1.4062033e-61
1.4062059e-61
1.4062144e-61
8.6614914e-61
8.6595636e-61
8.6588508e-61
8.6586344e-61
8.65858e-61
8.6585685e-61
8.6585669e-61
8.6585687e-61
8.6585761e-61
8.6586021e-61
8.6595636e-61
8.6576369e-61
8.6569245e-61
8.6567081e-61
8.6566538e-61
8.6566424e-61
8.6566411e-61
8.6566441e-61
8.6566565e-61
8.6567007e-61
8.6588508e-61
8.6569245e-61
8.6562122e-61
8.6559959e-61
8.6559415e-61
8.6559302e-61
8.6559291e-61
8.6559329e-61
8.6559477e-61
8.6559969e-61
8.6586344e-61
8.6567081e-61
8.6559959e-61
8.6557797e-61
8.6557253e-61
8.655714e-61
8.6557129e-61
8.6557171e-61
8.6557327e-61
8.6557831e-61
8.65858e-61
8.6566538e-61
8.6559415e-61
8.6557253e-61
8.6556709e-61
8.6556596e-61
8.6556586e-61
8.6556628e-61
8.6556786e-61
8.6557294e-61
8.6585685e-61
8.6566424e-61
8.6559302e-61
8.655714e-61
8.6556596e-61
8.6556483e-61
8.6556473e-61
8.6556515e-61
8.6556674e-61
8.6557182e-61
8.6585669e-61
8.6566411e-61
8.6559291e-61
8.6557129e-61
8.6556586e-61
8.6556473e-61
8.6556463e-61
8.6556505e-61
8.6556664e-61
8.6557172e-61
8.6585687e-61
8.6566441e-61
8.6559329e-61
8.6557171e-61
8.6556628e-61
8.6556515e-61
8.6556505e-61
8.6556548e-61
8.6556706e-61
8.6557214e-61
8.6585761e-61
8.6566565e-61
8.6559477e-61
8.6557327e-61
8.6556786e-61
8.6556674e-61
8.6556664e-61
8.6556706e-61
8.6556865e-61
8.6557373e-61
8.6586021e-61
8.6567007e-61
8.6559969e-61
8.6557831e-61
8.6557294e-61
8.6557182e-61
8.6557172e-61
8.6557214e-61
8.6557373e-61
8.6557881e-61
5.4574448e-60
5.4562675e-60
5.4558314e-60
5.4556989e-60
5.4556656e-60
5.4556586e-60
5.4556576e-60
5.4556587e-60
5.4556632e-60
5.4556788e-60
5.4562675e-60
5.4550909e-60
5.454655e-60
5.4545225e-60
5.4544892e-60
5.4544822e-60
5.4544814e-60
5.4544833e-60
5.454491e-60
5.4545178e-60
5.4558314e-60
5.454655e-60
5.4542192e-60
5.4540867e-60
5.4540534e-60
5.4540465e-60
5.4540458e-60
5.4540482e-60
5.4540573e-60
5.4540873e-60
5.4556989e-60
5.4545225e-60
5.4540867e-60
5.4539543e-60
5.4539211e-60
5.4539141e-60
5.4539135e-60
5.453916e-60
5.4539257e-60
5.4539564e-60
5.4556656e-60
5.4544892e-60
5.4540534e-60
5.4539211e-60
5.4538878e-60
5.4538808e-60
5.4538802e-60
5.4538828e-60
5.4538926e-60
5.4539235e-60
5.4556586e-60
5.4544822e-60
5.4540465e-60
5.4539141e-60
5.4538808e-60
5.4538739e-60
5.4538733e-60
5.4538759e-60
5.4538857e-60
5.4539166e-60
5.4556576e-60
5.4544814e-60
5.4540458e-60
5.4539135e-60
5.4538802e-60
5.4538733e-60
5.4538727e-60
5.4538753e-60
5.4538851e-60
5.4539161e-60
5.4556587e-60
5.4544833e-60
5.4540482e-60
5.453916e-60
5.4538828e-60
5.4538759e-60
5.4538753e-60
5.4538779e-60
5.4538877e-60
5.4539187e-60
5.4556632e-60
5.454491e-60
5.4540573e-60
5.4539257e-60
5.4538926e-60
5.4538857e-60
5.4538851e-60
5.4538877e-60
5.4538975e-60
5.4539285e-60
5.4556788e-60
5.4545178e-60
5.4540873e-60
5.4539564e-60
5.4539235e-60
5.4539166e-60
5.4539161e-60
5.4539187e-60
5.4539285e-60
5.4539594e-60
3.5198095e-59
3.5190739e-59
3.518801e-59
3.518718e-59
3.5186971e-59
3.5186927e-59
3.5186921e-59
3.5186928e-59
3.5186956e-59
3.5187052e-59
3.5190739e-59
3.5183388e-59
3.5180659e-59
3.517983e-59
3.5179621e-59
3.5179577e-59
3.5179572e-59
3.5179584e-59
3.5179633e-59
3.51798e-59
3.518801e-59
3.5180659e-59
3.5177931e-59
3.5177102e-59
3.5176893e-59
3.517685e-59
3.5176846e-59
3.5176861e-59
3.5176919e-59
3.5177106e-59
3.518718e-59
3.517983e-59
3.5177102e-59
3.5176273e-59
3.5176064e-59
3.5176021e-59
3.5176017e-59
3.5176033e-59
3.5176094e-59
3.5176286e-59
3.5186971e-59
3.5179621e-59
3.5176893e-59
3.5176064e-59
3.5175856e-59
3.5175812e-59
3.5175808e-59
3.5175825e-59
3.5175887e-59
3.517608e-59
3.5186927e-59
3.5179577e-59
3.517685e-59
3.5176021e-59
3.5175812e-59
3.5175769e-59
3.5175765e-59
3.5175782e-59
3.5175843e-59
3.5176037e-59
3.5186921e-59
3.5179572e-59
3.5176846e-59
3.5176017e-59
3.5175808e-59
3.5175765e-59
3.5175761e-59
3.5175778e-59
3.517584e-59
3.5176033e-59
3.5186928e-59
3.5179584e-59
3.5176861e-59
3.5176033e-59
3.5175825e-59
3.5175782e-59
3.5175778e-59
3.5175795e-59
3.5175856e-59
3.517605e-59
3.5186956e-59
3.5179633e-59
3.5176919e-59
3.5176094e-59
3.5175887e-59
3.5175843e-59
3.517584e-59
3.5175856e-59
3.5175918e-59
3.5176112e-59
3.5187052e-59
3.51798e-59
3.5177106e-59
3.5176286e-59
3.517608e-59
3.5176037e-59
3.5176033e-59
3.517605e-59
3.5176112e-59
3.5176305e-59
2.3235894e-58
2.3231192e-58
2.3229445e-58
2.3228913e-58
2.3228779e-58
2.3228751e-58
2.3228747e-58
2.3228751e-58
2.322877e-58
2.3228829e-58
2.3231192e-58
2.3226493e-58
2.3224746e-58
2.3224215e-58
2.3224081e-58
2.3224053e-58
2.322405e-58
2.3224058e-58
2.3224089e-58
2.3224196e-58
2.3229445e-58
2.3224746e-58
2.3223e-58
2.3222468e-58
2.3222335e-58
2.3222307e-58
2.3222304e-58
2.3222314e-58
2.3222351e-58
2.3222471e-58
2.3228913e-58
2.3224215e-58
2.3222468e-58
2.3221937e-58
2.3221803e-58
2.3221775e-58
2.3221773e-58
2.3221784e-58
2.3221823e-58
2.3221946e-58
2.3228779e-58
2.3224081e-58
2.3222335e-58
2.3221803e-58
2.322167e-58
2.3221642e-58
2.3221639e-58
2.322165e-58
2.322169e-58
2.3221813e-58
2.3228751e-58
2.3224053e-58
2.3222307e-58
2.3221775e-58
2.3221642e-58
2.3221614e-58
2.3221612e-58
2.3221622e-58
2.3221662e-58
2.3221786e-58
2.3228747e-58
2.322405e-58
2.3222304e-58
2.3221773e-58
2.3221639e-58
2.3221612e-58
2.3221609e-58
2.322162e-58
2.322166e-58
2.3221784e-58
2.3228751e-58
2.3224058e-58
2.3222314e-58
2.3221784e-58
2.322165e-58
2.3221622e-58
2.322162e-58
2.3221631e-58
2.3221671e-58
2.3221794e-58
2.322877e-58
2.3224089e-58
2.3222351e-58
2.3221823e-58
2.322169e-58
2.3221662e-58
2.322166e-58
2.3221671e-58
2.3221711e-58
2.3221834e-58
2.3228829e-58
2.3224196e-58
2.3222471e-58
2.3221946e-58
2.3221813e-58
2.3221786e-58
2.3221784e-58
2.3221794e-58
2.3221834e-58
2.3221958e-58
1.5699349e-57
1.5696275e-57
1.569513e-57
1.5694781e-57
1.5694694e-57
1.5694675e-57
1.5694673e-57
1.5694676e-57
1.5694688e-57
1.5694726e-57
1.5696275e-57
1.5693202e-57
1.5692058e-57
1.569171e-57
1.5691622e-57
1.5691604e-57
1.5691602e-57
1.5691607e-57
1.5691627e-57
1.5691697e-57
1.569513e-57
1.5692058e-57
1.5690914e-57
1.5690566e-57
1.5690478e-57
1.569046e-57
1.5690458e-57
1.5690465e-57
1.5690489e-57
1.5690568e-57
1.5694781e-57
1.569171e-57
1.5690566e-57
1.5690218e-57
1.569013e-57
1.5690112e-57
1.569011e-57
1.5690117e-57
1.5690143e-57
1.5690224e-57
1.5694694e-57
1.5691622e-57
1.5690478e-57
1.569013e-57
1.5690042e-57
1.5690024e-57
1.5690023e-57
1.569003e-57
1.5690056e-57
1.5690137e-57
1.5694675e-57
1.5691604e-57
1.569046e-57
1.5690112e-57
1.5690024e-57
1.5690006e-57
1.5690004e-57
1.5690012e-57
1.5690038e-57
1.5690119e-57
1.5694673e-57
1.5691602e-57
1.5690458e-57
1.569011e-57
1.5690023e-57
1.5690004e-57
1.5690003e-57
1.569001e-57
1.5690036e-57
1.5690117e-57
1.5694676e-57
1.5691607e-57
1.5690465e-57
1.5690117e-57
1.569003e-57
1.5690012e-57
1.569001e-57
1.5690017e-57
1.5690044e-57
1.5690125e-57
1.5694688e-57
1.5691627e-57
1.5690489e-57
1.5690143e-57
1.5690056e-57
1.5690038e-57
1.5690036e-57
1.5690044e-57
1.569007e-57
1.5690151e-57
1.5694726e-57
1.5691697e-57
1.5690568e-57
1.5690224e-57
1.5690137e-57
1.5690119e-57
1.5690117e-57
1.5690125e-57
1.5690151e-57
1.5690232e-57
1.0855545e-56
1.085349e-56
1.0852723e-56
1.0852489e-56
1.085243e-56
1.0852418e-56
1.0852416e-56
1.0852418e-56
1.0852426e-56
1.0852452e-56
1.085349e-56
1.0851435e-56
1.0850669e-56
1.0850435e-56
1.0850376e-56
1.0850364e-56
1.0850363e-56
1.0850366e-56
1.085038e-56
1.0850427e-56
1.0852723e-56
1.0850669e-56
1.0849902e-56
1.0849669e-56
1.084961e-56
1.0849598e-56
1.0849597e-56
1.0849601e-56
1.0849618e-56
1.084967e-56
1.0852489e-56
1.0850435e-56
1.0849669e-56
1.0849435e-56
1.0849377e-56
1.0849364e-56
1.0849363e-56
1.0849368e-56
1.0849386e-56
1.084944e-56
1.085243e-56
1.0850376e-56
1.084961e-56
1.0849377e-56
1.0849318e-56
1.0849306e-56
1.0849305e-56
1.084931e-56
1.0849327e-56
1.0849382e-56
1.0852418e-56
1.0850364e-56
1.0849598e-56
1.0849364e-56
1.0849306e-56
1.0849293e-56
1.0849292e-56
1.0849297e-56
1.0849315e-56
1.0849369e-56
1.0852416e-56
1.0850363e-56
1.0849597e-56
1.0849363e-56
1.0849305e-56
1.0849292e-56
1.0849292e-56
1.0849296e-56
1.0849314e-56
1.0849369e-56
1.0852418e-56
1.0850366e-56
1.0849601e-56
1.0849368e-56
1.084931e-56
1.0849297e-56
1.0849296e-56
1.0849301e-56
1.0849319e-56
1.0849373e-56
1.0852426e-56
1.085038e-56
1.0849618e-56
1.0849386e-56
1.0849327e-56
1.0849315e-56
1.0849314e-56
1.0849319e-56
1.0849337e-56
1.0849391e-56
1.0852452e-56
1.0850427e-56
1.084967e-56
1.084944e-56
1.0849382e-56
1.0849369e-56
1.0849369e-56
1.0849373e-56
1.0849391e-56
1.0849446e-56
7.6812004e-56
7.6797945e-56
7.6792693e-56
7.6791092e-56
7.6790688e-56
7.6790603e-56
7.6790592e-56
7.6790606e-56
7.6790661e-56
7.6790832e-56
7.6797945e-56
7.6783894e-56
7.6778644e-56
7.6777043e-56
7.677664e-56
7.6776556e-56
7.6776547e-56
7.6776571e-56
7.6776667e-56
7.6776986e-56
7.6792693e-56
7.6778644e-56
7.6773394e-56
7.6771794e-56
7.6771391e-56
7.6771307e-56
7.67713e-56
7.677133e-56
7.6771446e-56
7.6771805e-56
7.6791092e-56
7.6777043e-56
7.6771794e-56
7.6770194e-56
7.6769791e-56
7.6769708e-56
7.6769701e-56
7.6769734e-56
7.6769856e-56
7.6770225e-56
7.6790688e-56
7.677664e-56
7.6771391e-56
7.6769791e-56
7.6769389e-56
7.6769305e-56
7.6769298e-56
7.6769332e-56
7.6769455e-56
7.6769827e-56
7.6790603e-56
7.6776556e-56
7.6771307e-56
7.6769708e-56
7.6769305e-56
7.6769221e-56
7.6769214e-56
7.6769248e-56
7.6769372e-56
7.6769744e-56
7.6790592e-56
7.6776547e-56
7.67713e-56
7.6769701e-56
7.6769298e-56
7.6769214e-56
7.6769208e-56
7.6769241e-56
7.6769365e-56
7.6769738e-56
7.6790606e-56
7.6776571e-56
7.677133e-56
7.6769734e-56
7.6769332e-56
7.6769248e-56
7.6769241e-56
7.6769275e-56
7.6769399e-56
7.6769771e-56
7.6790661e-56
7.6776667e-56
7.6771446e-56
7.6769856e-56
7.6769455e-56
7.6769372e-56
7.6769365e-56
7.6769399e-56
7.6769523e-56
7.6769895e-56
7.6790832e-56
7.6776986e-56
7.6771805e-56
7.6770225e-56
7.6769827e-56
7.6769744e-56
7.6769738e-56
7.6769771e-56
7.6769895e-56
7.6770268e-56
5.5611859e-55
5.5602028e-55
5.5598348e-55
5.5597226e-55
5.5596943e-55
5.5596884e-55
5.5596876e-55
5.5596886e-55
5.5596925e-55
5.5597042e-55
5.5602028e-55
5.5592201e-55
5.5588523e-55
5.5587402e-55
5.5587119e-55
5.558706e-55
5.5587054e-55
5.5587071e-55
5.5587139e-55
5.5587362e-55
5.5598348e-55
5.5588523e-55
5.5584846e-55
5.5583725e-55
5.5583442e-55
5.5583383e-55
5.5583378e-55
5.55834e-55
5.5583482e-55
5.5583734e-55
5.5597226e-55
5.5587402e-55
5.5583725e-55
5.5582603e-55
5.5582321e-55
5.5582262e-55
5.5582257e-55
5.5582281e-55
5.5582367e-55
5.5582627e-55
5.5596943e-55
5.5587119e-55
5.5583442e-55
5.5582321e-55
5.5582039e-55
5.558198e-55
5.5581975e-55
5.5581999e-55
5.5582087e-55
5.5582348e-55
5.5596884e-55
5.558706e-55
5.5583383e-55
5.5582262e-55
5.558198e-55
5.5581921e-55
5.5581916e-55
5.5581941e-55
5.5582028e-55
5.558229e-55
5.5596876e-55
5.5587054e-55
5.5583378e-55
5.5582257e-55
5.5581975e-55
5.5581916e-55
5.5581912e-55
5.5581936e-55
5.5582024e-55
5.5582285e-55
5.5596886e-55
5.5587071e-55
5.55834e-55
5.5582281e-55
5.5581999e-55
5.5581941e-55
5.5581936e-55
5.558196e-55
5.5582048e-55
5.5582309e-55
5.5596925e-55
5.5587139e-55
5.5583482e-55
5.5582367e-55
5.5582087e-55
5.5582028e-55
5.5582024e-55
5.5582048e-55
5.5582136e-55
5.5582397e-55
5.5597042e-55
5.5587362e-55
5.5583734e-55
5.5582627e-55
5.5582348e-55
5.558229e-55
5.5582285e-55
5.5582309e-55
5.5582397e-55
5.5582658e-55
4.1192063e-54
4.1185033e-54
4.1182398e-54
4.1181594e-54
4.1181391e-54
4.1181349e-54
4.1181343e-54
4.118135e-54
4.1181378e-54
4.1181461e-54
4.1185033e-54
4.1178007e-54
4.1175373e-54
4.1174569e-54
4.1174367e-54
4.1174324e-54
4.117432e-54
4.1174332e-54
4.1174381e-54
4.1174541e-54
4.1182398e-54
4.1175373e-54
4.117274e-54
4.1171936e-54
4.1171734e-54
4.1171692e-54
4.1171688e-54
4.1171704e-54
4.1171763e-54
4.1171944e-54
4.1181594e-54
4.1174569e-54
4.1171936e-54
4.1171133e-54
4.117093e-54
4.1170888e-54
4.1170885e-54
4.1170902e-54
4.1170964e-54
4.1171151e-54
4.1181391e-54
4.1174367e-54
4.1171734e-54
4.117093e-54
4.1170728e-54
4.1170686e-54
4.1170682e-54
4.11707e-54
4.1170763e-54
4.1170951e-54
4.1181349e-54
4.1174324e-54
4.1171692e-54
4.1170888e-54
4.1170686e-54
4.1170644e-54
4.117064e-54
4.1170658e-54
4.1170721e-54
4.1170909e-54
4.1181343e-54
4.117432e-54
4.1171688e-54
4.1170885e-54
4.1170682e-54
4.117064e-54
4.1170637e-54
4.1170655e-54
4.1170718e-54
4.1170906e-54
4.118135e-54
4.1174332e-54
4.1171704e-54
4.1170902e-54
4.11707e-54
4.1170658e-54
4.1170655e-54
4.1170672e-54
4.1170736e-54
4.1170924e-54
4.1181378e-54
4.1174381e-54
4.1171763e-54
4.1170964e-54
4.1170763e-54
4.1170721e-54
4.1170718e-54
4.1170736e-54
4.1170799e-54
4.1170987e-54
4.1181461e-54
4.1174541e-54
4.1171944e-54
4.1171151e-54
4.1170951e-54
4.1170909e-54
4.1170906e-54
4.1170924e-54
4.1170987e-54
4.1171175e-54
3.1211001e-53
3.1205862e-53
3.1203934e-53
3.1203345e-53
3.1203196e-53
3.1203165e-53
3.1203161e-53
3.1203166e-53
3.1203187e-53
3.1203247e-53
3.1205862e-53
3.1200727e-53
3.1198799e-53
3.119821e-53
3.1198062e-53
3.1198031e-53
3.1198027e-53
3.1198037e-53
3.1198073e-53
3.119819e-53
3.1203934e-53
3.1198799e-53
3.1196871e-53
3.1196282e-53
3.1196134e-53
3.1196103e-53
3.1196101e-53
3.1196112e-53
3.1196156e-53
3.1196289e-53
3.1203345e-53
3.119821e-53
3.1196282e-53
3.1195694e-53
3.1195546e-53
3.1195515e-53
3.1195512e-53
3.1195525e-53
3.1195571e-53
3.1195708e-53
3.1203196e-53
3.1198062e-53
3.1196134e-53
3.1195546e-53
3.1195397e-53
3.1195366e-53
3.1195364e-53
3.1195377e-53
3.1195424e-53
3.1195562e-53
3.1203165e-53
3.1198031e-53
3.1196103e-53
3.1195515e-53
3.1195366e-53
3.1195336e-53
3.1195333e-53
3.1195346e-53
3.1195393e-53
3.1195532e-53
3.1203161e-53
3.1198027e-53
3.1196101e-53
3.1195512e-53
3.1195364e-53
3.1195333e-53
3.1195331e-53
3.1195344e-53
3.1195391e-53
3.1195529e-53
3.1203166e-53
3.1198037e-53
3.1196112e-53
3.1195525e-53
3.1195377e-53
3.1195346e-53
3.1195344e-53
3.1195357e-53
3.1195404e-53
3.1195542e-53
3.1203187e-53
3.1198073e-53
3.1196156e-53
3.1195571e-53
3.1195424e-53
3.1195393e-53
3.1195391e-53
3.1195404e-53
3.1195451e-53
3.119559e-53
3.1203247e-53
3.119819e-53
3.1196289e-53
3.1195708e-53
3.1195562e-53
3.1195532e-53
3.1195529e-53
3.1195542e-53
3.119559e-53
3.1195728e-53
2.4187063e-52
2.4183224e-52
2.4181781e-52
2.418134e-52
2.4181229e-52
2.4181206e-52
2.4181203e-52
2.4181207e-52
2.4181222e-52
2.4181267e-52
2.4183224e-52
2.4179388e-52
2.4177945e-52
2.4177504e-52
2.4177393e-52
2.417737e-52
2.4177368e-52
2.4177375e-52
2.4177402e-52
2.417749e-52
2.4181781e-52
2.4177945e-52
2.4176503e-52
2.4176062e-52
2.4175951e-52
2.4175928e-52
2.4175926e-52
2.4175935e-52
2.4175968e-52
2.4176068e-52
2.418134e-52
2.4177504e-52
2.4176062e-52
2.4175622e-52
2.4175511e-52
2.4175488e-52
2.4175486e-52
2.4175495e-52
2.4175531e-52
2.4175634e-52
2.4181229e-52
2.4177393e-52
2.4175951e-52
2.4175511e-52
2.41754e-52
2.4175376e-52
2.4175375e-52
2.4175385e-52
2.417542e-52
2.4175524e-52
2.4181206e-52
2.417737e-52
2.4175928e-52
2.4175488e-52
2.4175376e-52
2.4175353e-52
2.4175352e-52
2.4175362e-52
2.4175397e-52
2.4175501e-52
2.4181203e-52
2.4177368e-52
2.4175926e-52
2.4175486e-52
2.4175375e-52
2.4175352e-52
2.417535e-52
2.417536e-52
2.4175396e-52
2.41755e-52
2.4181207e-52
2.4177375e-52
2.4175935e-52
2.4175495e-52
2.4175385e-52
2.4175362e-52
2.417536e-52
2.417537e-52
2.4175406e-52
2.417551e-52
2.4181222e-52
2.4177402e-52
2.4175968e-52
2.4175531e-52
2.417542e-52
2.4175397e-52
2.4175396e-52
2.4175406e-52
2.4175441e-52
2.4175545e-52
2.4181267e-52
2.417749e-52
2.4176068e-52
2.4175634e-52
2.4175524e-52
2.4175501e-52
2.41755e-52
2.417551e-52
2.4175545e-52
2.4175649e-52
1.9167519e-51
1.9164588e-51
1.9163485e-51
1.9163148e-51
1.9163063e-51
1.9163045e-51
1.9163043e-51
1.9163046e-51
1.9163058e-51
1.9163091e-51
1.9164588e-51
1.9161659e-51
1.9160556e-51
1.9160219e-51
1.9160134e-51
1.9160117e-51
1.9160115e-51
1.916012e-51
1.9160142e-51
1.9160209e-51
1.9163485e-51
1.9160556e-51
1.9159454e-51
1.9159117e-51
1.9159032e-51
1.9159014e-51
1.9159013e-51
1.915902e-51
1.9159045e-51
1.9159122e-51
1.9163148e-51
1.9160219e-51
1.9159117e-51
1.915878e-51
1.9158695e-51
1.9158677e-51
1.9158676e-51
1.9158683e-51
1.9158711e-51
1.915879e-51
1.9163063e-51
1.9160134e-51
1.9159032e-51
1.9158695e-51
1.915861e-51
1.9158592e-51
1.9158591e-51
1.9158599e-51
1.9158626e-51
1.9158706e-51
1.9163045e-51
1.9160117e-51
1.9159014e-51
1.9158677e-51
1.9158592e-51
1.9158575e-51
1.9158573e-51
1.9158581e-51
1.9158609e-51
1.9158689e-51
1.9163043e-51
1.9160115e-51
1.9159013e-51
1.9158676e-51
1.9158591e-51
1.9158573e-51
1.9158572e-51
1.915858e-51
1.9158607e-51
1.9158687e-51
1.9163046e-51
1.916012e-51
1.915902e-51
1.9158683e-51
1.9158599e-51
1.9158581e-51
1.915858e-51
1.9158587e-51
1.9158615e-51
1.9158695e-51
1.9163058e-51
1.9160142e-51
1.9159045e-51
1.9158711e-51
1.9158626e-51
1.9158609e-51
1.9158607e-51
1.9158615e-51
1.9158643e-51
1.9158723e-51
1.9163091e-51
1.9160209e-51
1.9159122e-51
1.915879e-51
1.9158706e-51
1.9158689e-51
1.9158687e-51
1.9158695e-51
1.9158723e-51
1.9158803e-51
1.5530108e-50
1.5527823e-50
1.5526961e-50
1.5526698e-50
1.5526631e-50
1.5526617e-50
1.5526615e-50
1.5526618e-50
1.5526627e-50
1.5526653e-50
1.5527823e-50
1.5525538e-50
1.5524677e-50
1.5524414e-50
1.5524347e-50
1.5524333e-50
1.5524332e-50
1.5524336e-50
1.5524353e-50
1.5524406e-50
1.5526961e-50
1.5524677e-50
1.5523816e-50
1.5523552e-50
1.5523486e-50
1.5523472e-50
1.5523471e-50
1.5523477e-50
1.5523497e-50
1.5523558e-50
1.5526698e-50
1.5524414e-50
1.5523552e-50
1.5523289e-50
1.5523223e-50
1.5523209e-50
1.5523208e-50
1.5523214e-50
1.5523235e-50
1.5523298e-50
1.5526631e-50
1.5524347e-50
1.5523486e-50
1.5523223e-50
1.5523156e-50
1.5523142e-50
1.5523141e-50
1.5523148e-50
1.5523169e-50
1.5523232e-50
1.5526617e-50
1.5524333e-50
1.5523472e-50
1.5523209e-50
1.5523142e-50
1.5523129e-50
1.5523128e-50
1.5523134e-50
1.5523156e-50
1.5523219e-50
1.5526615e-50
1.5524332e-50
1.5523471e-50
1.5523208e-50
1.5523141e-50
1.5523128e-50
1.5523127e-50
1.5523133e-50
1.5523155e-50
1.5523218e-50
1.5526618e-50
1.5524336e-50
1.5523477e-50
1.5523214e-50
1.5523148e-50
1.5523134e-50
1.5523133e-50
1.5523139e-50
1.5523161e-50
1.5523224e-50
1.5526627e-50
1.5524353e-50
1.5523497e-50
1.5523235e-50
1.5523169e-50
1.5523156e-50
1.5523155e-50
1.5523161e-50
1.5523183e-50
1.5523246e-50
1.5526653e-50
1.5524406e-50
1.5523558e-50
1.5523298e-50
1.5523232e-50
1.5523219e-50
1.5523218e-50
1.5523224e-50