/*--------------------------------*- C++ -*----------------------------------*\
| =========                 |                                                 |
| \\      /  F ield         | OpenFOAM: The Open Source CFD Toolbox           |
|  \\    /   O peration     | Version:  dev                                   |
|   \\  /    A nd           | Web:      www.OpenFOAM.org                      |
|    \\/     M anipulation  |                                                 |
\*---------------------------------------------------------------------------*/
FoamFile
{
    version     2.0;
    format      ascii;
    class       volScalarField;
    location    "2";
    object      A;
}
// * * * * * * * * * * * * * * * * * * * * * * * * * * * * * * * * * * * * * //

dimensions      [0 0 0 0 1 0 0];

internalField   nonuniform List<scalar> 
10000
(
0.99879192
0.9987944
0.99879689
0.99879918
0.9988011
0.99880257
0.99880356
0.99880416
0.99880453
0.99880507
0.9987944
0.99879747
0.99880042
0.99880302
0.99880516
0.99880675
0.9988078
0.99880834
0.99880849
0.99880861
0.99879689
0.99880042
0.99880383
0.99880682
0.99880922
0.99881094
0.99881198
0.99881235
0.99881216
0.99881185
0.99879918
0.99880302
0.99880682
0.99881014
0.99881275
0.99881456
0.99881555
0.99881573
0.99881521
0.99881459
0.9988011
0.99880516
0.99880922
0.99881275
0.9988155
0.99881736
0.99881829
0.99881831
0.99881756
0.99881672
0.99880257
0.99880675
0.99881094
0.99881456
0.99881736
0.99881922
0.9988201
0.99882003
0.99881915
0.99881818
0.99880356
0.9988078
0.99881198
0.99881555
0.99881829
0.9988201
0.99882096
0.99882087
0.99881997
0.99881895
0.99880416
0.99880834
0.99881235
0.99881573
0.99881831
0.99882003
0.99882087
0.99882085
0.99882005
0.99881908
0.99880453
0.99880849
0.99881216
0.99881521
0.99881756
0.99881915
0.99881997
0.99882005
0.99881946
0.99881869
0.99880507
0.99880861
0.99881185
0.99881459
0.99881672
0.99881818
0.99881895
0.99881908
0.99881869
0.99881816
0.99634196
0.99634915
0.99635663
0.99636354
0.99636935
0.99637378
0.99637679
0.99637857
0.99637958
0.9963809
0.99634915
0.99635814
0.996367
0.99637489
0.99638135
0.99638617
0.99638932
0.99639093
0.99639128
0.99639131
0.99635663
0.996367
0.99637732
0.99638637
0.99639363
0.99639885
0.99640197
0.99640306
0.99640235
0.99640105
0.99636354
0.99637489
0.99638637
0.99639641
0.99640432
0.99640982
0.99641279
0.9964133
0.99641161
0.99640932
0.99636935
0.99638135
0.99639363
0.99640432
0.99641265
0.99641828
0.99642108
0.99642111
0.9964187
0.99641576
0.99637378
0.99638617
0.99639885
0.99640982
0.99641828
0.99642391
0.99642657
0.99642631
0.99642351
0.99642017
0.99637679
0.99638932
0.99640197
0.99641279
0.99642108
0.99642657
0.99642915
0.99642885
0.99642598
0.9964225
0.99637857
0.99639093
0.99640306
0.9964133
0.99642111
0.99642631
0.99642885
0.99642875
0.99642619
0.99642288
0.99637958
0.99639128
0.99640235
0.99641161
0.9964187
0.99642351
0.99642598
0.99642619
0.9964243
0.99642159
0.9963809
0.99639131
0.99640105
0.99640932
0.99641576
0.99642017
0.9964225
0.99642288
0.99642159
0.99641967
0.99383026
0.99384156
0.99385396
0.99386554
0.99387529
0.99388273
0.99388774
0.99389064
0.99389203
0.99389342
0.99384156
0.99385585
0.99387061
0.99388386
0.99389474
0.99390284
0.99390809
0.9939107
0.99391092
0.99391008
0.99385396
0.99387061
0.99388785
0.99390309
0.99391532
0.9939241
0.99392931
0.99393103
0.99392943
0.99392629
0.99386554
0.99388386
0.99390309
0.99392001
0.99393336
0.99394261
0.99394756
0.99394827
0.993945
0.99394016
0.99387529
0.99389474
0.99391532
0.99393336
0.99394741
0.99395689
0.99396154
0.99396143
0.99395694
0.99395097
0.99388273
0.99390284
0.9939241
0.99394261
0.99395689
0.99396636
0.99397078
0.9939702
0.99396501
0.99395837
0.99388774
0.99390809
0.99392931
0.99394756
0.99396154
0.99397078
0.99397507
0.99397442
0.99396914
0.99396225
0.99389064
0.9939107
0.99393103
0.99394827
0.99396143
0.9939702
0.99397442
0.99397411
0.99396938
0.99396279
0.99389203
0.99391092
0.99392943
0.993945
0.99395694
0.99396501
0.99396914
0.99396938
0.99396581
0.99396032
0.99389342
0.99391008
0.99392629
0.99394016
0.99395097
0.99395837
0.99396225
0.99396279
0.99396032
0.99395634
0.99125613
0.99127089
0.99128803
0.99130427
0.99131799
0.99132841
0.99133536
0.99133921
0.99134055
0.99134128
0.99127089
0.99128972
0.99131022
0.99132886
0.9913442
0.9913556
0.99136288
0.99136629
0.9913659
0.99136337
0.99128803
0.99131022
0.99133427
0.99135577
0.99137305
0.99138542
0.99139262
0.99139474
0.9913917
0.99138586
0.99130427
0.99132886
0.99135577
0.99137967
0.99139855
0.99141158
0.99141842
0.99141908
0.99141363
0.99140534
0.99131799
0.9913442
0.99137305
0.99139855
0.99141843
0.99143178
0.9914382
0.99143768
0.99143048
0.99142056
0.99132842
0.9913556
0.99138542
0.99141158
0.99143178
0.99144513
0.99145122
0.99145002
0.99144183
0.99143094
0.99133536
0.99136288
0.99139262
0.99141842
0.9914382
0.99145122
0.99145712
0.99145585
0.99144753
0.9914363
0.99133921
0.99136629
0.99139474
0.99141908
0.99143768
0.99145002
0.99145585
0.99145508
0.99144759
0.99143682
0.99134055
0.9913659
0.9913917
0.99141363
0.99143047
0.99144183
0.99144753
0.99144759
0.99144184
0.99143276
0.99134128
0.99136337
0.99138586
0.99140534
0.99142055
0.99143093
0.9914363
0.99143682
0.99143276
0.99142615
0.98861848
0.98863612
0.98865775
0.98867856
0.98869621
0.98870958
0.98871831
0.98872283
0.98872365
0.98872307
0.98863612
0.98865877
0.98868474
0.98870872
0.98872852
0.98874316
0.98875233
0.98875621
0.98875464
0.98874976
0.98865775
0.98868474
0.98871536
0.9887431
0.98876544
0.98878135
0.9887904
0.98879256
0.98878745
0.98877823
0.98867856
0.98870872
0.9887431
0.98877399
0.98879843
0.98881521
0.98882377
0.98882398
0.98881569
0.98880322
0.98869621
0.98872852
0.98876544
0.98879843
0.98882419
0.98884138
0.98884938
0.98884804
0.98883743
0.9888228
0.98870958
0.98874316
0.98878135
0.98881521
0.98884138
0.98885858
0.98886614
0.98886392
0.98885203
0.98883611
0.98871831
0.98875233
0.9887904
0.98882377
0.98884938
0.98886614
0.98887348
0.98887118
0.98885916
0.98884282
0.98872283
0.98875621
0.98879256
0.98882398
0.98884804
0.98886392
0.98887118
0.98886959
0.98885871
0.98884308
0.98872365
0.98875464
0.98878745
0.98881569
0.98883743
0.98885203
0.98885916
0.98885871
0.98885024
0.98883701
0.98872307
0.98874976
0.98877823
0.98880322
0.9888228
0.98883611
0.98884282
0.98884308
0.98883701
0.9888274
0.98591599
0.98593604
0.98596187
0.98598712
0.98600862
0.98602479
0.98603512
0.98603995
0.98603974
0.98603737
0.98593604
0.9859619
0.985993
0.9860222
0.98604637
0.98606414
0.98607496
0.98607889
0.98607557
0.98606789
0.98596187
0.985993
0.98602985
0.98606372
0.98609107
0.98611041
0.98612105
0.98612277
0.986115
0.98610191
0.98598713
0.9860222
0.98606372
0.98610151
0.98613147
0.98615189
0.98616189
0.98616117
0.98614939
0.98613226
0.98600862
0.98604637
0.98609107
0.98613147
0.98616307
0.986184
0.98619329
0.98619064
0.98617596
0.98615611
0.98602479
0.98606414
0.98611041
0.98615189
0.986184
0.98620492
0.98621368
0.98620994
0.98619368
0.98617224
0.98603512
0.98607496
0.98612105
0.98616189
0.98619329
0.98621368
0.98622219
0.98621839
0.98620201
0.9861801
0.98603995
0.98607889
0.98612277
0.98616117
0.98619063
0.98620994
0.98621839
0.98621552
0.98620067
0.98617977
0.98603974
0.98607557
0.986115
0.98614939
0.98617596
0.98619368
0.98620201
0.98620067
0.98618899
0.98617133
0.98603737
0.98606788
0.98610191
0.98613226
0.98615611
0.98617224
0.9861801
0.98617977
0.98617133
0.98615855
0.98314717
0.9831693
0.98319901
0.98322853
0.98325371
0.98327253
0.98328417
0.98328891
0.98328721
0.98328272
0.9831693
0.98319789
0.98323375
0.98326795
0.98329636
0.98331707
0.98332923
0.98333274
0.98332715
0.98331637
0.98319901
0.98323375
0.98327644
0.98331623
0.98334844
0.98337102
0.98338291
0.98338369
0.98337269
0.9833555
0.98322853
0.98326795
0.98331623
0.98336074
0.98339608
0.98341992
0.98343102
0.98342882
0.98341299
0.98339094
0.98325372
0.98329636
0.98334844
0.98339608
0.98343339
0.98345784
0.98346808
0.98346354
0.98344422
0.98341891
0.98327253
0.98331707
0.98337102
0.98341992
0.98345784
0.98348228
0.98349189
0.98348608
0.98346488
0.98343768
0.98328417
0.98332923
0.98338291
0.98343102
0.98346808
0.98349189
0.98350122
0.98349538
0.98347413
0.98344645
0.98328891
0.98333274
0.98338369
0.98342882
0.98346354
0.98348608
0.98349538
0.98349076
0.98347149
0.9834452
0.98328721
0.98332715
0.98337269
0.98341299
0.98344422
0.98346488
0.98347412
0.98347149
0.9834562
0.98343409
0.98328272
0.98331637
0.9833555
0.98339094
0.98341891
0.98343768
0.98344645
0.9834452
0.98343409
0.98341816
0.98031044
0.98033441
0.9803677
0.98040124
0.98042992
0.98045114
0.98046377
0.980468
0.98046441
0.9804576
0.98033441
0.98036534
0.98040559
0.98044455
0.98047697
0.98050035
0.98051349
0.98051609
0.9805078
0.98049381
0.9803677
0.98040559
0.98045369
0.98049914
0.980536
0.98056152
0.98057425
0.98057355
0.98055889
0.98053754
0.98040124
0.98044455
0.98049914
0.98055008
0.98059058
0.98061756
0.98062932
0.9806251
0.98060476
0.98057776
0.98042992
0.98047697
0.980536
0.98059058
0.98063336
0.98066104
0.9806718
0.98066483
0.98064042
0.98060962
0.98045114
0.98050035
0.98056152
0.98061756
0.98066104
0.98068872
0.98069875
0.98069032
0.98066377
0.9806308
0.98046377
0.98051349
0.98057425
0.98062932
0.9806718
0.98069875
0.9807085
0.98070011
0.98067359
0.98064019
0.980468
0.98051609
0.98057355
0.9806251
0.98066483
0.98069032
0.98070011
0.98069327
0.98066923
0.98063769
0.98046441
0.9805078
0.98055889
0.98060476
0.98064042
0.98066376
0.98067358
0.98066923
0.98065009
0.9806237
0.9804576
0.98049381
0.98053754
0.98057776
0.98060962
0.9806308
0.98064019
0.98063769
0.9806237
0.98060477
0.97740411
0.97742973
0.97746633
0.97750363
0.97753556
0.97755889
0.97757216
0.97757545
0.97756964
0.97756045
0.97742973
0.97746276
0.97750703
0.97755042
0.97758659
0.97761233
0.97762602
0.97762724
0.9776159
0.97759872
0.97746633
0.97750703
0.97756012
0.97761088
0.97765207
0.97768019
0.97769332
0.97769063
0.97767197
0.97764653
0.97750363
0.97755042
0.97761088
0.97766788
0.97771321
0.97774297
0.97775494
0.97774816
0.97772299
0.97769117
0.97753556
0.97758659
0.97765207
0.97771321
0.97776115
0.97779169
0.97780249
0.97779257
0.97776277
0.97772662
0.97755889
0.97761233
0.97768019
0.97774297
0.97779169
0.97782223
0.97783222
0.97782066
0.97778848
0.97774993
0.97757216
0.97762602
0.97769332
0.97775494
0.97780249
0.97783222
0.97784194
0.97783053
0.97779851
0.97775964
0.97757545
0.97762724
0.97769063
0.97774816
0.97779257
0.97782066
0.97783053
0.97782103
0.97779207
0.97775558
0.97756964
0.9776159
0.97767197
0.97772299
0.97776276
0.97778847
0.97779851
0.97779207
0.97776896
0.97773862
0.97756045
0.97759872
0.97764653
0.97769117
0.97772662
0.97774992
0.97775964
0.97775558
0.97773862
0.97771691
0.97442642
0.97445357
0.9744932
0.97453396
0.97456884
0.97459396
0.9746075
0.97460946
0.97460118
0.9745896
0.97445357
0.97448849
0.97453643
0.97458392
0.97462349
0.97465122
0.97466504
0.97466442
0.9746498
0.97462954
0.9744932
0.97453643
0.97459409
0.97464976
0.97469492
0.97472523
0.97473829
0.97473314
0.97471026
0.97468094
0.97453396
0.97458393
0.97464976
0.9747124
0.97476218
0.97479427
0.97480596
0.97479615
0.97476598
0.97472957
0.97456884
0.9746235
0.97469492
0.97476218
0.97481485
0.97484781
0.97485817
0.97484483
0.97480948
0.97476827
0.97459396
0.97465122
0.97472523
0.97479427
0.97484781
0.97488077
0.97489025
0.97487513
0.97483718
0.97479337
0.9746075
0.97466504
0.97473829
0.97480596
0.97485817
0.97489025
0.97489949
0.97488464
0.97484706
0.97480309
0.97460946
0.97466442
0.97473314
0.97479615
0.97484483
0.97487513
0.97488464
0.97487213
0.97483823
0.97479721
0.97460118
0.9746498
0.97471026
0.97476598
0.97480948
0.97483718
0.97484706
0.97483823
0.97481113
0.97477725
0.9745896
0.97462954
0.97468094
0.97472956
0.97476826
0.97479337
0.97480308
0.97479721
0.97477725
0.97475305
0.97137551
0.97140409
0.97144649
0.97149041
0.97152792
0.97155447
0.97156789
0.97156817
0.97155724
0.97154335
0.97140409
0.97144077
0.97149206
0.97154328
0.97158588
0.97161517
0.9716287
0.97162586
0.97160781
0.97158463
0.97144649
0.97149206
0.97155387
0.97161402
0.97166272
0.97169477
0.97170729
0.97169928
0.97167209
0.97163912
0.97149041
0.97154328
0.97161402
0.97168182
0.97173558
0.97176954
0.97178045
0.97176723
0.97173198
0.97169129
0.97152792
0.97158588
0.97166272
0.97173558
0.97179251
0.9718274
0.97183682
0.97181969
0.97177877
0.97173285
0.97155447
0.97161517
0.97169477
0.97176954
0.9718274
0.9718623
0.97187078
0.97185174
0.97180807
0.97175941
0.97156789
0.9716287
0.97170729
0.97178045
0.97183682
0.97187078
0.97187909
0.9718605
0.97181742
0.97176881
0.97156817
0.97162586
0.97169928
0.97176723
0.97181969
0.97185174
0.9718605
0.9718447
0.97180595
0.9717609
0.97155724
0.97160781
0.97167209
0.97173198
0.97177877
0.97180807
0.97181742
0.97180595
0.97177497
0.971738
0.97154335
0.97158463
0.97163912
0.97169129
0.97173285
0.97175941
0.97176881
0.9717609
0.971738
0.97171159
0.96824946
0.96827939
0.96832431
0.96837108
0.96841086
0.96843847
0.9684514
0.9684497
0.96843601
0.9684199
0.96827939
0.96831772
0.96837204
0.96842661
0.96847183
0.96850228
0.96851508
0.9685097
0.96848815
0.96846224
0.96832431
0.96837204
0.96843763
0.96850181
0.96855357
0.96858689
0.96859842
0.96858722
0.9685557
0.96851937
0.96837108
0.96842661
0.96850181
0.96857424
0.96863147
0.96866679
0.96867647
0.96865951
0.96861923
0.96857462
0.96841086
0.96847183
0.96855357
0.96863147
0.96869212
0.96872843
0.96873646
0.96871524
0.96866884
0.96861863
0.96843847
0.96850228
0.96858689
0.96866679
0.96872843
0.96876474
0.96877178
0.96874858
0.96869931
0.96864627
0.9684514
0.96851508
0.96859842
0.96867647
0.96873646
0.96877178
0.96877873
0.96875618
0.96870779
0.96865505
0.9684497
0.9685097
0.96858722
0.96865951
0.96871524
0.96874858
0.96875618
0.96873689
0.9686935
0.96864495
0.96843601
0.96848815
0.9685557
0.96861923
0.96866884
0.96869931
0.96870779
0.9686935
0.96865883
0.96861921
0.9684199
0.96846224
0.96851937
0.96857462
0.96861863
0.96864627
0.96865504
0.96864495
0.96861921
0.9685909
0.96504625
0.96507746
0.96512468
0.96517395
0.96521564
0.96524394
0.96525604
0.96525211
0.96523561
0.9652174
0.96507746
0.96511736
0.96517443
0.96523195
0.96527936
0.96531053
0.96532224
0.96531405
0.96528901
0.96526058
0.96512468
0.96517443
0.96524342
0.96531115
0.9653655
0.96539961
0.96540972
0.96539508
0.96535931
0.96531991
0.96517395
0.96523195
0.96531115
0.96538769
0.96544785
0.96548402
0.96549204
0.96547112
0.96542594
0.96537777
0.96521564
0.96527936
0.9653655
0.96544785
0.96551165
0.96554884
0.96555505
0.96552956
0.96547787
0.9654238
0.96524394
0.96531053
0.96539961
0.96548402
0.96554884
0.96558604
0.96559124
0.9655637
0.96550908
0.96545214
0.96525604
0.96532224
0.96540972
0.96549204
0.96555505
0.96559124
0.96559644
0.96556979
0.96551637
0.96546002
0.96525211
0.96531405
0.96539508
0.96547112
0.96552956
0.9655637
0.96556979
0.96554692
0.96549917
0.96544763
0.96523561
0.96528901
0.96535931
0.96542594
0.96547787
0.96550908
0.96551636
0.96549917
0.96546103
0.9654192
0.9652174
0.96526058
0.96531991
0.96537777
0.9654238
0.96545214
0.96546002
0.96544763
0.9654192
0.96538926
0.96176381
0.96179622
0.96184551
0.96189696
0.96194019
0.9619688
0.96197976
0.96197342
0.9619541
0.96193392
0.96179622
0.96183761
0.96189716
0.96195724
0.96200642
0.96203789
0.96204814
0.96203698
0.9620085
0.96197775
0.96184551
0.96189716
0.96196919
0.96204002
0.96209645
0.96213087
0.9621392
0.96212097
0.96208105
0.96203888
0.96189697
0.96195724
0.96204002
0.96212012
0.96218266
0.96221917
0.96222515
0.96220014
0.96215025
0.96209889
0.96194019
0.96200642
0.96209645
0.96218266
0.96224902
0.96228657
0.96229059
0.96226073
0.96220399
0.96214649
0.96196881
0.96203789
0.96213087
0.96221917
0.96228657
0.96232413
0.96232713
0.9622952
0.96223553
0.96217517
0.96197976
0.96204814
0.9621392
0.96222515
0.96229059
0.96232713
0.96233026
0.96229948
0.96224135
0.9621819
0.96197342
0.96203698
0.96212097
0.96220014
0.96226073
0.9622952
0.96229947
0.96227299
0.9622212
0.96216717
0.9619541
0.9620085
0.96208105
0.96215025
0.96220399
0.96223553
0.96224135
0.9622212
0.96217986
0.96213621
0.96193392
0.96197775
0.96203888
0.96209889
0.96214649
0.96217517
0.9621819
0.96216717
0.96213621
0.9621049
0.95839997
0.95843352
0.95848466
0.95853797
0.95858237
0.95861095
0.95862047
0.95861158
0.95858949
0.95856748
0.95843352
0.95847632
0.95853808
0.95860034
0.95865087
0.95868224
0.95869073
0.95867647
0.95864466
0.95861179
0.95848466
0.95853808
0.95861283
0.95868628
0.95874432
0.9587786
0.95878483
0.9587629
0.95871903
0.95867435
0.95853797
0.95860034
0.95868628
0.95876943
0.95883379
0.95887016
0.95887378
0.95884462
0.95879026
0.95873606
0.95858237
0.95865087
0.95874432
0.95883379
0.95890213
0.95893954
0.95894106
0.9589068
0.95884533
0.9587848
0.95861095
0.95868224
0.9587786
0.95887016
0.95893954
0.95897698
0.95897747
0.95894115
0.95887679
0.95881347
0.95862047
0.95869073
0.95878483
0.95887378
0.95894106
0.95897747
0.95897825
0.95894336
0.9588809
0.95881884
0.95861158
0.95867647
0.9587629
0.95884462
0.9589068
0.95894115
0.95894336
0.95891329
0.95885783
0.95880174
0.95858949
0.95864466
0.95871903
0.95879026
0.95884533
0.95887679
0.9588809
0.95885783
0.95881357
0.95876845
0.95856748
0.95861179
0.95867435
0.95873606
0.9587848
0.95881347
0.95881884
0.95880174
0.95876845
0.958736
0.95495252
0.95498712
0.95503989
0.95509475
0.95513997
0.95516819
0.95517605
0.95516452
0.95513972
0.95511601
0.95498712
0.95503126
0.95509498
0.95515905
0.95521051
0.95524142
0.95524791
0.95523048
0.95519546
0.95516066
0.9550399
0.95509498
0.95517212
0.95524776
0.95530692
0.95534066
0.95534452
0.95531888
0.95527124
0.95522432
0.95509475
0.95515905
0.95524776
0.95533342
0.95539909
0.95543488
0.95543587
0.95540258
0.95534403
0.95528731
0.95513997
0.95521051
0.95530692
0.95539909
0.95546883
0.95550566
0.95550442
0.95546582
0.95539995
0.95533678
0.95516819
0.95524142
0.95534066
0.95543488
0.95550566
0.95554251
0.95554027
0.95549964
0.95543096
0.9553651
0.95517605
0.95524791
0.95534452
0.95543587
0.95550442
0.95554027
0.95553847
0.95549958
0.95543319
0.95536893
0.95516452
0.95523048
0.95531888
0.95540258
0.95546582
0.95549964
0.95549958
0.95546602
0.95540724
0.95534949
0.95513972
0.95519546
0.95527124
0.95534403
0.95539995
0.95543095
0.95543319
0.95540724
0.95536034
0.95531406
0.95511601
0.95516066
0.95522432
0.95528731
0.95533678
0.9553651
0.95536893
0.95534949
0.95531406
0.95528066
0.95141915
0.95145473
0.95150893
0.95156502
0.95161073
0.9516383
0.95164431
0.9516301
0.95160268
0.9515774
0.95145473
0.95150011
0.95156555
0.95163108
0.9516831
0.95171322
0.95171751
0.95169691
0.95165883
0.95162226
0.95150893
0.95156555
0.95164478
0.95172219
0.95178203
0.95181486
0.95181617
0.95178683
0.95173566
0.95168671
0.95156503
0.95163108
0.95172219
0.95180988
0.95187636
0.95191118
0.95190935
0.95187198
0.95180953
0.95175059
0.95161073
0.9516831
0.95178203
0.95187636
0.95194699
0.95198281
0.95197864
0.95193579
0.95186586
0.9518004
0.9516383
0.95171322
0.95181487
0.95191118
0.95198281
0.95201866
0.95201351
0.95196872
0.9518961
0.95182809
0.95164431
0.95171751
0.95181617
0.95190935
0.95197864
0.95201351
0.95200899
0.95196624
0.9518963
0.95183024
0.9516301
0.95169691
0.95178683
0.95187198
0.95193579
0.95196872
0.95196624
0.95192931
0.95186757
0.95180851
0.95160268
0.95165883
0.95173565
0.95180953
0.95186586
0.9518961
0.9518963
0.95186757
0.95181831
0.95177112
0.9515774
0.95162226
0.95168671
0.95175058
0.9518004
0.95182809
0.95183024
0.95180851
0.95177112
0.95173694
0.94779752
0.94783399
0.94788941
0.94794646
0.94799235
0.94801901
0.94802301
0.94800612
0.94797619
0.94794946
0.94783399
0.94788051
0.94794744
0.9480141
0.94806634
0.94809538
0.94809731
0.94807358
0.94803261
0.94799444
0.94788941
0.94794744
0.94802848
0.94810726
0.94816738
0.948199
0.94819759
0.94816464
0.94811016
0.94805941
0.94794646
0.9480141
0.94810726
0.94819653
0.94826337
0.94829687
0.94829208
0.94825077
0.94818471
0.9481238
0.94799235
0.94806634
0.94816738
0.94826337
0.94833439
0.94836886
0.94836162
0.94831469
0.94824106
0.94817361
0.94801901
0.94809538
0.948199
0.94829687
0.94836886
0.94840336
0.94839519
0.94834641
0.94827023
0.9482004
0.94802302
0.94809732
0.94819759
0.94829208
0.94836162
0.94839519
0.94838784
0.94834141
0.9482683
0.94820077
0.94800612
0.94807358
0.94816464
0.94825077
0.94831469
0.94834641
0.94834141
0.94830129
0.94823692
0.94817681
0.9479762
0.94803261
0.94811016
0.94818471
0.94824106
0.94827023
0.9482683
0.94823692
0.94818555
0.94813765
0.94794946
0.94799444
0.94805941
0.9481238
0.94817361
0.9482004
0.94820076
0.94817681
0.94813765
0.94810284
0.9440852
0.94412247
0.94417892
0.94423666
0.94428246
0.94430799
0.94430989
0.94429035
0.94425804
0.94422996
0.94412247
0.94417004
0.94423823
0.94430572
0.94435786
0.9443856
0.94438508
0.94435828
0.94431459
0.94427495
0.94417892
0.94423823
0.94432081
0.9444006
0.94446066
0.94449079
0.94448659
0.94445014
0.94439258
0.9443402
0.94423666
0.94430573
0.9444006
0.94449103
0.94455784
0.94458974
0.94458192
0.94453682
0.94446744
0.9444048
0.94428246
0.94435786
0.94446066
0.94455784
0.94462881
0.94466165
0.94465128
0.94460045
0.94452345
0.9444543
0.94430799
0.9443856
0.94449079
0.94458975
0.94466165
0.9446945
0.94468326
0.9446307
0.94455133
0.94447997
0.94430989
0.94438509
0.94448659
0.94458192
0.94465128
0.94468326
0.94467303
0.94462313
0.94454721
0.94447848
0.94429035
0.94435828
0.94445014
0.94453682
0.94460045
0.9446307
0.94462313
0.94458
0.9445133
0.94445239
0.94425804
0.94431459
0.94439258
0.94446744
0.94452345
0.94455132
0.94454721
0.9445133
0.94446006
0.94441162
0.94422996
0.94427495
0.9443402
0.9444048
0.94445429
0.94447997
0.94447848
0.94445239
0.94441162
0.94437628
0.94027974
0.94031771
0.940375
0.94043319
0.94047866
0.94050288
0.94050262
0.94048049
0.94044592
0.9404166
0.94031771
0.94036621
0.94043546
0.94050351
0.94055528
0.94058152
0.94057851
0.94054874
0.94050251
0.94046153
0.940375
0.94043546
0.94051932
0.94059981
0.94065948
0.94068793
0.9406809
0.94064109
0.94058069
0.94052686
0.94043319
0.94050351
0.94059981
0.94069103
0.94075745
0.94078754
0.94077667
0.94072795
0.94065553
0.94059137
0.94047866
0.94055528
0.94065948
0.94075745
0.94082802
0.94085898
0.94084547
0.94079096
0.94071092
0.94064029
0.94050289
0.94058152
0.94068793
0.94078754
0.94085898
0.94088996
0.94087564
0.94081953
0.9407373
0.94066467
0.94050262
0.94057851
0.9406809
0.94077667
0.94084547
0.94087564
0.94086253
0.94080939
0.94073097
0.94066128
0.94048049
0.94054874
0.94064109
0.94072795
0.94079096
0.94081953
0.94080939
0.94076342
0.94069469
0.94063316
0.94044592
0.94050251
0.94058069
0.94065553
0.94071092
0.9407373
0.94073097
0.94069469
0.94063978
0.94059093
0.9404166
0.94046153
0.94052686
0.94059137
0.94064029
0.94066467
0.94066128
0.94063316
0.94059093
0.94055516
0.93637861
0.93641718
0.93647515
0.93653357
0.9365785
0.93660129
0.93659882
0.93657419
0.9365375
0.93650703
0.93641718
0.93646652
0.93653662
0.93660499
0.93665616
0.93668076
0.93667525
0.93664264
0.93659403
0.93655184
0.93647515
0.93653662
0.93662153
0.93670243
0.93676147
0.93678807
0.93677822
0.93673523
0.9366722
0.93661706
0.93653357
0.93660499
0.93670243
0.93679411
0.93685986
0.93688798
0.93687407
0.93682194
0.93674676
0.93668126
0.9365785
0.93665617
0.93676147
0.93685986
0.93692971
0.93695863
0.93694201
0.93688405
0.93680127
0.93672936
0.93660129
0.93668076
0.93678807
0.93688798
0.93695863
0.93698757
0.93697022
0.93691079
0.93682602
0.93675231
0.93659883
0.93667525
0.93677822
0.93687407
0.93694201
0.93697022
0.93695426
0.9368981
0.93681749
0.93674702
0.93657419
0.93664264
0.93673523
0.93682194
0.93688405
0.93691079
0.9368981
0.93684951
0.93677897
0.93671697
0.9365375
0.93659403
0.9366722
0.93674676
0.93680126
0.93682602
0.93681749
0.93677897
0.93672259
0.93667343
0.93650703
0.93655184
0.93661706
0.93668126
0.93672936
0.93675231
0.93674702
0.93671697
0.93667343
0.93663728
0.93237925
0.93241833
0.9324768
0.93253527
0.9325795
0.93260075
0.93259609
0.93256906
0.93253038
0.93249886
0.93241833
0.93246839
0.93253917
0.93260764
0.93265803
0.9326809
0.93267291
0.93263759
0.93258679
0.93254348
0.93247681
0.93253917
0.93262491
0.93270598
0.93276416
0.93278883
0.93277621
0.9327302
0.93266477
0.93260845
0.93253527
0.93260764
0.93270598
0.93279784
0.93286267
0.93288872
0.93287184
0.93281652
0.93273883
0.93267214
0.9325795
0.93265803
0.93276416
0.93286268
0.93293155
0.93295832
0.93293868
0.93287751
0.93279226
0.93271926
0.93260075
0.9326809
0.93278883
0.93288872
0.93295832
0.93298512
0.93296481
0.93290231
0.93281528
0.93274068
0.9325961
0.93267291
0.93277621
0.93287184
0.93293868
0.93296481
0.93294609
0.93288713
0.93280459
0.93273349
0.93256906
0.93263759
0.9327302
0.93281652
0.93287751
0.93290231
0.93288713
0.93283611
0.93276399
0.93270162
0.93253038
0.93258679
0.93266477
0.93273883
0.93279226
0.93281528
0.93280459
0.93276399
0.9327063
0.93265689
0.93249886
0.93254348
0.93260845
0.93267213
0.93271925
0.93274068
0.93273349
0.93270162
0.93265689
0.93262043
0.92827906
0.92831856
0.92837739
0.92843574
0.92847912
0.92849877
0.92849197
0.92846265
0.92842212
0.92838963
0.92831856
0.92836922
0.92844052
0.9285089
0.92855838
0.92857945
0.92856904
0.92853117
0.92847835
0.92843402
0.92837739
0.92844052
0.9285269
0.92860792
0.92866509
0.92868777
0.92867246
0.92862364
0.92855601
0.92849862
0.92843574
0.9285089
0.92860792
0.92869973
0.92876348
0.92878738
0.92876764
0.92870935
0.92862939
0.92856163
0.92847913
0.92855838
0.9286651
0.92876348
0.9288312
0.92885576
0.9288332
0.92876905
0.92868159
0.92860764
0.92849877
0.92857945
0.92868777
0.92878738
0.92885576
0.92888035
0.92885719
0.92879186
0.92870283
0.92862747
0.92849197
0.92856904
0.92867246
0.92876764
0.9288332
0.92885719
0.9288358
0.92877428
0.92869003
0.92861843
0.92846265
0.92853117
0.92862364
0.92870935
0.92876905
0.92879186
0.92877428
0.92872101
0.9286475
0.92858484
0.92842213
0.92847835
0.92855601
0.92862938
0.92868159
0.92870283
0.92869003
0.9286475
0.92858864
0.92853902
0.92838963
0.92843402
0.92849861
0.92856163
0.92860763
0.92862747
0.92861843
0.92858484
0.92853902
0.9285023
0.92407539
0.92411522
0.92417428
0.92423237
0.92427482
0.92429284
0.92428395
0.92425247
0.92421023
0.92417685
0.92411522
0.92416639
0.92423805
0.9243062
0.92435465
0.92437391
0.92436117
0.92432091
0.92426623
0.92422096
0.92417428
0.92423805
0.9243249
0.9244057
0.92446175
0.92448242
0.92446453
0.92441309
0.92434345
0.9242851
0.92423237
0.9243062
0.9244057
0.92449726
0.9245598
0.92458156
0.92455908
0.92449804
0.92441602
0.92434733
0.92427482
0.92435465
0.92446175
0.9245598
0.92462623
0.92464858
0.92462323
0.92455634
0.9244669
0.92439212
0.92429284
0.92437391
0.92448242
0.92458156
0.92464858
0.92467095
0.92464508
0.92457715
0.92448634
0.92441033
0.92428395
0.92436117
0.92446453
0.92455908
0.92462323
0.92464508
0.92462115
0.92455727
0.92447152
0.92439949
0.92425247
0.92432092
0.92441309
0.92449804
0.92455634
0.92457715
0.92455727
0.92450194
0.9244272
0.9243643
0.92421023
0.92426623
0.92434345
0.92441602
0.9244669
0.92448634
0.92447152
0.9244272
0.92436728
0.9243175
0.92417685
0.92422096
0.9242851
0.92434733
0.92439211
0.92441033
0.92439949
0.9243643
0.9243175
0.92428054
0.91976557
0.91980564
0.91986483
0.91992255
0.91996398
0.91998039
0.91996948
0.91993599
0.91989217
0.91985797
0.91980564
0.91985723
0.91992911
0.91999691
0.92004426
0.92006173
0.92004677
0.92000429
0.91994789
0.91990178
0.91986483
0.91992911
0.92001628
0.92009673
0.92015158
0.92017028
0.92014993
0.92009608
0.92002461
0.91996539
0.91992255
0.91999691
0.92009673
0.9201879
0.92024914
0.92026879
0.92024371
0.92018015
0.92009628
0.92002675
0.91996399
0.92004426
0.92015159
0.92024914
0.92031419
0.92033436
0.92030638
0.92023699
0.92014578
0.92007026
0.91998039
0.92006174
0.92017028
0.92026879
0.92033436
0.92035455
0.92032612
0.92025582
0.92016343
0.92008687
0.91996948
0.92004677
0.92014993
0.92024371
0.92030638
0.92032612
0.92029979
0.92023377
0.92014667
0.92007429
0.91993599
0.92000429
0.92009608
0.92018015
0.92023699
0.92025582
0.92023377
0.92017655
0.9201007
0.92003761
0.91989217
0.91994789
0.92002461
0.92009628
0.92014578
0.92016343
0.92014667
0.9201007
0.92003984
0.91998991
0.91985797
0.91990178
0.91996539
0.92002675
0.92007026
0.92008686
0.92007429
0.92003761
0.91998991
0.91995272
0.9153469
0.91538714
0.91544634
0.9155036
0.91554399
0.9155588
0.91554599
0.91551061
0.91546534
0.91543039
0.91538714
0.91543905
0.91551104
0.9155784
0.91562461
0.91564033
0.91562326
0.91557873
0.91552077
0.91547389
0.91544634
0.91551105
0.9155984
0.91567839
0.91573201
0.91574878
0.91572613
0.91567005
0.91559693
0.91553692
0.91550361
0.9155784
0.91567839
0.91576905
0.91582896
0.91584656
0.91581905
0.91575318
0.91566764
0.91559736
0.91554399
0.91562461
0.91573201
0.91582897
0.9158926
0.91591064
0.91588021
0.91580853
0.91571574
0.91563958
0.91555881
0.91564033
0.91574878
0.91584656
0.91591064
0.91592872
0.91589789
0.91582545
0.91573165
0.9156546
0.91554599
0.91562327
0.91572613
0.91581905
0.91588021
0.91589789
0.91586932
0.91580134
0.91571307
0.91564038
0.91551061
0.91557873
0.91567005
0.91575318
0.91580853
0.91582545
0.91580134
0.9157424
0.91566557
0.91560231
0.91546534
0.91552077
0.91559693
0.91566764
0.91571574
0.91573165
0.91571306
0.91566557
0.91560385
0.91555378
0.91543039
0.91547389
0.91553692
0.91559736
0.91563958
0.91565459
0.91564038
0.91560231
0.91555378
0.91551639
0.91081663
0.91085698
0.91091611
0.91097286
0.91101218
0.91102545
0.91101083
0.91097372
0.91092712
0.91089149
0.91085698
0.91090912
0.91098114
0.91104798
0.91109305
0.91110708
0.91108804
0.91104162
0.91098225
0.91093466
0.91091611
0.91098114
0.91106858
0.91114804
0.91120041
0.91121534
0.91119054
0.91113243
0.91105782
0.91099709
0.91097286
0.91104798
0.91114804
0.91123811
0.91129668
0.91131232
0.91128255
0.91121458
0.91112754
0.91105659
0.91101219
0.91109305
0.91120041
0.91129668
0.9113589
0.91137492
0.9113422
0.91126846
0.91117426
0.91109751
0.91102545
0.91110708
0.91121534
0.91131232
0.91137492
0.91139098
0.91135793
0.91128353
0.91118848
0.911111
0.91101083
0.91108805
0.91119054
0.91128255
0.9113422
0.91135793
0.91132727
0.91125752
0.91116819
0.91109523
0.91097372
0.91104163
0.91113243
0.91121458
0.91126846
0.91128353