/*--------------------------------*- C++ -*----------------------------------*\
| =========                 |                                                 |
| \\      /  F ield         | OpenFOAM: The Open Source CFD Toolbox           |
|  \\    /   O peration     | Version:  dev                                   |
|   \\  /    A nd           | Web:      www.OpenFOAM.org                      |
|    \\/     M anipulation  |                                                 |
\*---------------------------------------------------------------------------*/
FoamFile
{
    version     2.0;
    format      ascii;
    class       volScalarField;
    location    "2";
    object      A_0;
}
// * * * * * * * * * * * * * * * * * * * * * * * * * * * * * * * * * * * * * //

dimensions      [0 0 0 0 1 0 0];

internalField   nonuniform List<scalar> 
10000
(
0.99878954
0.99879202
0.99879452
0.99879681
0.99879873
0.9988002
0.9988012
0.9988018
0.99880217
0.99880271
0.99879202
0.9987951
0.99879805
0.99880066
0.9988028
0.9988044
0.99880544
0.99880599
0.99880614
0.99880626
0.99879452
0.99879805
0.99880148
0.99880447
0.99880687
0.9988086
0.99880964
0.99881001
0.99880981
0.99880951
0.99879681
0.99880066
0.99880447
0.99880779
0.99881041
0.99881223
0.99881322
0.99881339
0.99881288
0.99881225
0.99879873
0.9988028
0.99880687
0.99881041
0.99881316
0.99881503
0.99881596
0.99881598
0.99881523
0.99881438
0.9988002
0.9988044
0.9988086
0.99881223
0.99881503
0.99881689
0.99881777
0.9988177
0.99881682
0.99881584
0.9988012
0.99880544
0.99880964
0.99881322
0.99881596
0.99881777
0.99881863
0.99881855
0.99881764
0.99881662
0.9988018
0.99880599
0.99881001
0.99881339
0.99881598
0.9988177
0.99881855
0.99881852
0.99881772
0.99881675
0.99880217
0.99880614
0.99880981
0.99881288
0.99881523
0.99881682
0.99881764
0.99881772
0.99881713
0.99881636
0.99880271
0.99880626
0.99880951
0.99881225
0.99881438
0.99881584
0.99881662
0.99881675
0.99881636
0.99881583
0.99633475
0.99634195
0.99634944
0.99635636
0.99636219
0.99636663
0.99636964
0.99637143
0.99637244
0.99637377
0.99634195
0.99635096
0.99635984
0.99636774
0.99637421
0.99637904
0.9963822
0.99638381
0.99638416
0.9963842
0.99634944
0.99635984
0.99637017
0.99637924
0.99638651
0.99639174
0.99639487
0.99639597
0.99639525
0.99639395
0.99635636
0.99636774
0.99637924
0.9963893
0.99639723
0.99640274
0.99640572
0.99640622
0.99640453
0.99640224
0.99636219
0.99637421
0.99638651
0.99639723
0.99640558
0.99641122
0.99641402
0.99641405
0.99641164
0.99640869
0.99636663
0.99637904
0.99639174
0.99640274
0.99641122
0.99641685
0.99641952
0.99641926
0.99641645
0.99641311
0.99636964
0.9963822
0.99639487
0.99640572
0.99641402
0.99641952
0.99642211
0.99642181
0.99641894
0.99641545
0.99637143
0.99638381
0.99639597
0.99640622
0.99641405
0.99641926
0.99642181
0.9964217
0.99641914
0.99641582
0.99637244
0.99638416
0.99639525
0.99640453
0.99641164
0.99641645
0.99641894
0.99641914
0.99641725
0.99641453
0.99637377
0.9963842
0.99639395
0.99640224
0.99640869
0.99641311
0.99641545
0.99641582
0.99641453
0.99641261
0.99381809
0.99382942
0.99384184
0.99385344
0.99386322
0.99387066
0.99387568
0.99387859
0.99387998
0.99388138
0.99382942
0.99384373
0.99385852
0.9938718
0.9938827
0.99389082
0.99389607
0.99389869
0.99389892
0.99389807
0.99384184
0.99385852
0.99387579
0.99389107
0.99390332
0.99391212
0.99391733
0.99391906
0.99391745
0.99391431
0.99385344
0.9938718
0.99389107
0.99390802
0.99392139
0.99393066
0.99393562
0.99393633
0.99393305
0.99392821
0.99386322
0.9938827
0.99390332
0.99392139
0.99393548
0.99394497
0.99394963
0.99394952
0.99394502
0.99393904
0.99387066
0.99389082
0.99391212
0.99393066
0.99394497
0.99395446
0.99395889
0.9939583
0.99395311
0.99394645
0.99387568
0.99389607
0.99391733
0.99393562
0.99394963
0.99395889
0.99396319
0.99396254
0.99395725
0.99395034
0.99387859
0.99389869
0.99391906
0.99393633
0.99394952
0.9939583
0.99396254
0.99396222
0.99395748
0.99395088
0.99387998
0.99389892
0.99391745
0.99393305
0.99394502
0.99395311
0.99395725
0.99395748
0.99395391
0.99394841
0.99388138
0.99389807
0.99391431
0.99392821
0.99393904
0.99394645
0.99395034
0.99395088
0.99394841
0.99394442
0.99123889
0.99125368
0.99127085
0.99128712
0.99130087
0.99131131
0.99131827
0.99132213
0.99132347
0.99132421
0.99125368
0.99127254
0.99129308
0.99131176
0.99132713
0.99133855
0.99134585
0.99134926
0.99134887
0.99134634
0.99127085
0.99129308
0.99131718
0.99133872
0.99135603
0.99136843
0.99137565
0.99137777
0.99137473
0.99136888
0.99128712
0.99131176
0.99133872
0.99136267
0.99138158
0.99139464
0.9914015
0.99140216
0.99139669
0.99138839
0.99130087
0.99132713
0.99135603
0.99138158
0.99140151
0.99141488
0.99142132
0.9914208
0.99141357
0.99140363
0.99131131
0.99133855
0.99136843
0.99139464
0.99141488
0.99142826
0.99143436
0.99143316
0.99142496
0.99141404
0.99131827
0.99134585
0.99137565
0.9914015
0.99142132
0.99143436
0.99144027
0.991439
0.99143067
0.99141941
0.99132213
0.99134926
0.99137777
0.99140216
0.9914208
0.99143316
0.991439
0.99143823
0.99143072
0.99141993
0.99132347
0.99134887
0.99137473
0.99139669
0.99141357
0.99142496
0.99143067
0.99143072
0.99142496
0.99141587
0.99132421
0.99134634
0.99136888
0.99138839
0.99140364
0.99141404
0.99141941
0.99141993
0.99141587
0.99140924
0.98859604
0.98861371
0.98863538
0.98865624
0.98867392
0.98868731
0.98869607
0.9887006
0.98870141
0.98870083
0.98861371
0.98863641
0.98866243
0.98868646
0.98870629
0.98872096
0.98873015
0.98873403
0.98873246
0.98872758
0.98863538
0.98866242
0.9886931
0.9887209
0.98874328
0.98875923
0.9887683
0.98877045
0.98876534
0.9887561
0.98865624
0.98868646
0.9887209
0.98875185
0.98877634
0.98879315
0.98880173
0.98880194
0.98879363
0.98878114
0.98867392
0.98870629
0.98874328
0.98877634
0.98880215
0.98881938
0.98882739
0.98882605
0.98881542
0.98880076
0.98868731
0.98872096
0.98875923
0.98879315
0.98881938
0.9888366
0.98884419
0.98884196
0.98883005
0.9888141
0.98869607
0.98873015
0.9887683
0.98880173
0.98882739
0.98884419
0.98885154
0.98884924
0.98883719
0.98882082
0.9887006
0.98873403
0.98877045
0.98880194
0.98882605
0.98884196
0.98884924
0.98884764
0.98883674
0.98882108
0.98870141
0.98873246
0.98876534
0.98879363
0.98881542
0.98883005
0.98883719
0.98883674
0.98882825
0.988815
0.98870083
0.98872758
0.9887561
0.98878114
0.98880076
0.9888141
0.98882082
0.98882108
0.988815
0.98880536
0.98588822
0.98590832
0.98593419
0.9859595
0.98598103
0.98599724
0.98600759
0.98601243
0.98601222
0.98600984
0.98590832
0.98593423
0.98596539
0.98599464
0.98601886
0.98603666
0.9860475
0.98605145
0.98604812
0.98604042
0.98593419
0.98596539
0.98600231
0.98603624
0.98606364
0.98608303
0.98609368
0.98609541
0.98608762
0.98607451
0.9859595
0.98599464
0.98603624
0.98607411
0.98610413
0.98612458
0.9861346
0.98613388
0.98612208
0.98610492
0.98598103
0.98601886
0.98606364
0.98610413
0.98613579
0.98615676
0.98616607
0.98616341
0.9861487
0.98612882
0.98599724
0.98603666
0.98608303
0.98612458
0.98615676
0.98617772
0.9861865
0.98618275
0.98616646
0.98614498
0.98600759
0.9860475
0.98609368
0.9861346
0.98616607
0.9861865
0.98619502
0.98619121
0.9861748
0.98615285
0.98601243
0.98605145
0.98609541
0.98613388
0.98616341
0.98618275
0.98619121
0.98618834
0.98617347
0.98615253
0.98601222
0.98604812
0.98608762
0.98612208
0.9861487
0.98616646
0.9861748
0.98617347
0.98616175
0.98614406
0.98600984
0.98604042
0.98607451
0.98610492
0.98612882
0.98614498
0.98615285
0.98615253
0.98614406
0.98613126
0.98311395
0.98313613
0.98316589
0.98319547
0.9832207
0.98323956
0.98325122
0.98325597
0.98325427
0.98324976
0.98313613
0.98316476
0.98320069
0.98323497
0.98326343
0.98328418
0.98329636
0.98329989
0.98329429
0.98328348
0.98316589
0.98320069
0.98324347
0.98328334
0.98331562
0.98333824
0.98335015
0.98335093
0.98333991
0.98332269
0.98319547
0.98323497
0.98328334
0.98332794
0.98336335
0.98338724
0.98339835
0.98339615
0.98338029
0.9833582
0.9832207
0.98326343
0.98331562
0.98336335
0.98340073
0.98342523
0.98343548
0.98343094
0.98341158
0.98338622
0.98323955
0.98328418
0.98333824
0.98338724
0.98342523
0.98344972
0.98345935
0.98345352
0.98343229
0.98340503
0.98325122
0.98329636
0.98335015
0.98339835
0.98343548
0.98345935
0.98346869
0.98346284
0.98344155
0.98341382
0.98325597
0.98329989
0.98335093
0.98339615
0.98343094
0.98345352
0.98346285
0.98345822
0.9834389
0.98341257
0.98325427
0.98329429
0.98333991
0.98338029
0.98341158
0.98343229
0.98344155
0.9834389
0.98342358
0.98340143
0.98324976
0.98328348
0.98332269
0.9833582
0.98338623
0.98340503
0.98341382
0.98341257
0.98340143
0.98338547
0.98027163
0.98029565
0.98032901
0.98036261
0.98039135
0.98041261
0.98042527
0.9804295
0.98042591
0.98041909
0.98029565
0.98032664
0.98036697
0.980406
0.98043849
0.98046192
0.98047508
0.98047769
0.98046938
0.98045537
0.98032901
0.98036697
0.98041517
0.98046071
0.98049763
0.98052321
0.98053597
0.98053526
0.98052057
0.98049917
0.98036261
0.980406
0.98046071
0.98051174
0.98055232
0.98057935
0.98059114
0.98058691
0.98056653
0.98053948
0.98039135
0.98043849
0.98049763
0.98055232
0.98059519
0.98062293
0.9806337
0.98062672
0.98060226
0.9805714
0.98041261
0.98046192
0.98052321
0.98057935
0.98062293
0.98065066
0.98066071
0.98065226
0.98062565
0.98059262
0.98042527
0.98047508
0.98053596
0.98059114
0.9806337
0.98066071
0.98067047
0.98066207
0.98063549
0.98060203
0.9804295
0.98047769
0.98053526
0.98058691
0.98062672
0.98065226
0.98066207
0.98065521
0.98063113
0.98059953
0.98042591
0.98046938
0.98052057
0.98056653
0.98060226
0.98062565
0.98063549
0.98063113
0.98061195
0.98058551
0.98041909
0.98045537
0.98049918
0.98053948
0.9805714
0.98059262
0.98060203
0.98059953
0.98058551
0.98056654
0.97735959
0.97738526
0.97742193
0.9774593
0.97749129
0.97751467
0.97752797
0.97753126
0.97752544
0.97751623
0.97738526
0.97741835
0.9774627
0.97750619
0.97754242
0.97756821
0.97758193
0.97758315
0.97757179
0.97755458
0.97742193
0.9774627
0.9775159
0.97756676
0.97760803
0.97763621
0.97764936
0.97764667
0.97762797
0.97760248
0.9774593
0.97750618
0.97756676
0.97762387
0.97766929
0.97769911
0.9777111
0.97770431
0.97767909
0.97764721
0.97749129
0.97754242
0.97760803
0.97766929
0.97771732
0.97774793
0.97775874
0.9777488
0.97771894
0.97768273
0.97751467
0.97756821
0.97763621
0.97769911
0.97774793
0.97777852
0.97778854
0.97777696
0.9777447
0.97770608
0.97752796
0.97758193
0.97764936
0.9777111
0.97775874
0.97778854
0.97779828
0.97778684
0.97775476
0.97771581
0.97753126
0.97758315
0.97764667
0.97770431
0.9777488
0.97777696
0.97778684
0.97777733
0.97774831
0.97771175
0.97752544
0.97757179
0.97762797
0.97767909
0.97771894
0.9777447
0.97775476
0.97774831
0.97772515
0.97769475
0.97751623
0.97755458
0.97760248
0.97764721
0.97768273
0.97770608
0.97771581
0.97771175
0.97769475
0.977673
0.97437604
0.97440324
0.97444295
0.97448379
0.97451874
0.97454391
0.97455747
0.97455944
0.97455114
0.97453954
0.97440324
0.97443823
0.97448627
0.97453385
0.9745735
0.97460128
0.97461513
0.97461451
0.97459986
0.97457956
0.97444295
0.97448627
0.97454404
0.97459982
0.97464506
0.97467543
0.97468852
0.97468336
0.97466044
0.97463105
0.97448379
0.97453385
0.97459982
0.97466258
0.97471245
0.97474461
0.97475632
0.9747465
0.97471626
0.97467978
0.97451874
0.9745735
0.97464506
0.97471245
0.97476523
0.97479826
0.97480863
0.97479527
0.97475985
0.97471855
0.97454391
0.97460127
0.97467543
0.97474461
0.97479826
0.97483128
0.97484078
0.97482562
0.97478761
0.97474371
0.97455747
0.97461513
0.97468852
0.97475632
0.97480863
0.97484078
0.97485003
0.97483516
0.9747975
0.97475344
0.97455944
0.97461451
0.97468336
0.9747465
0.97479527
0.97482562
0.97483516
0.97482263
0.97478865
0.97474756
0.97455114
0.97459986
0.97466044
0.97471626
0.97475985
0.97478761
0.9747975
0.97478865
0.97476151
0.97472756
0.97453954
0.97457956
0.97463105
0.97467978
0.97471855
0.97474371
0.97475344
0.97474756
0.97472756
0.97470331
0.97131914
0.97134777
0.97139025
0.97143426
0.97147184
0.97149845
0.97151189
0.97151217
0.97150122
0.9714873
0.97134777
0.97138452
0.97143591
0.97148723
0.97152991
0.97155927
0.97157282
0.97156997
0.97155189
0.97152866
0.97139025
0.97143591
0.97149784
0.97155811
0.9716069
0.97163902
0.97165157
0.97164353
0.97161629
0.97158326
0.97143426
0.97148723
0.97155811
0.97162604
0.9716799
0.97171393
0.97172487
0.97171162
0.9716763
0.97163553
0.97147184
0.97152991
0.9716069
0.9716799
0.97173695
0.97177191
0.97178135
0.97176418
0.97172318
0.97167718
0.97149845
0.97155927
0.97163902
0.97171393
0.97177191
0.97180687
0.97181537
0.9717963
0.97175254
0.97170379
0.97151189
0.97157282
0.97165157
0.97172487
0.97178135
0.97181537
0.97182369
0.97180507
0.97176191
0.9717132
0.97151217
0.97156997
0.97164353
0.97171162
0.97176418
0.9717963
0.97180507
0.97178924
0.97175041
0.97170528
0.97150122
0.97155189
0.97161629
0.9716763
0.97172318
0.97175254
0.97176191
0.97175041
0.97171938
0.97168233
0.9714873
0.97152866
0.97158326
0.97163553
0.97167718
0.97170379
0.9717132
0.97170528
0.97168233
0.97165588
0.96818695
0.96821693
0.96826195
0.9683088
0.96834866
0.96837632
0.96838928
0.96838758
0.96837386
0.96835772
0.96821693
0.96825534
0.96830977
0.96836444
0.96840975
0.96844026
0.96845309
0.96844769
0.96842611
0.96840014
0.96826195
0.96830977
0.96837548
0.96843978
0.96849165
0.96852504
0.96853659
0.96852536
0.96849378
0.96845738
0.9683088
0.96836444
0.96843978
0.96851236
0.9685697
0.96860509
0.96861479
0.9685978
0.96855744
0.96851274
0.96834866
0.96840975
0.96849165
0.9685697
0.96863047
0.96866685
0.96867489
0.96865364
0.96860715
0.96855684
0.96837632
0.96844025
0.96852504
0.96860509
0.96866685
0.96870323
0.96871029
0.96868704
0.96863768
0.96858454
0.96838928
0.96845309
0.96853659
0.96861479
0.96867489
0.96871029
0.96871725
0.96869465
0.96864617
0.96859332
0.96838758
0.96844769
0.96852536
0.9685978
0.96865364
0.96868704
0.96869465
0.96867533
0.96863186
0.96858321
0.96837386
0.96842611
0.96849378
0.96855744
0.96860715
0.96863768
0.96864617
0.96863186
0.96859712
0.96855742
0.96835772
0.96840014
0.96845738
0.96851274
0.96855684
0.96858454
0.96859333
0.96858321
0.96855742
0.96852906
0.96497746
0.96500872
0.96505603
0.9651054
0.96514717
0.96517552
0.96518765
0.96518372
0.96516718
0.96514894
0.96500872
0.9650487
0.96510588
0.96516351
0.96521102
0.96524225
0.96525398
0.96524578
0.96522069
0.9651922
0.96505603
0.96510588
0.965175
0.96524287
0.96529733
0.9653315
0.96534163
0.96532697
0.96529112
0.96525164
0.9651054
0.96516351
0.96524287
0.96531956
0.96537983
0.96541607
0.96542411
0.96540315
0.96535788
0.96530962
0.96514717
0.96521102
0.96529732
0.96537983
0.96544376
0.96548102
0.96548724
0.96546171
0.96540991
0.96535574
0.96517552
0.96524225
0.9653315
0.96541607
0.96548102
0.96551829
0.9655235
0.96549591
0.96544118
0.96538414
0.96518765
0.96525397
0.96534163
0.96542411
0.96548724
0.9655235
0.96552872
0.96550202
0.96544848
0.96539203
0.96518372
0.96524578
0.96532697
0.96540315
0.96546171
0.96549591
0.96550202
0.9654791
0.96543126
0.96537962
0.96516718
0.96522069
0.96529112
0.96535788
0.96540991
0.96544118
0.96544848
0.96543126
0.96539304
0.96535113
0.96514894
0.9651922
0.96525164
0.96530962
0.96535574
0.96538414
0.96539203
0.96537962
0.96535113
0.96532113
0.96168858
0.96172105
0.96177044
0.96182199
0.9618653
0.96189397
0.96190495
0.96189859
0.96187924
0.96185902
0.96172105
0.96176252
0.96182219
0.96188238
0.96193166
0.96196319
0.96197346
0.96196228
0.96193375
0.96190293
0.96177044
0.96182219
0.96189436
0.96196532
0.96202187
0.96205635
0.9620647
0.96204643
0.96200644
0.96196418
0.96182199
0.96188238
0.96196532
0.96204558
0.96210824
0.96214482
0.96215081
0.96212576
0.96207577
0.96202431
0.9618653
0.96193166
0.96202187
0.96210824
0.96217473
0.96221236
0.96221639
0.96218647
0.96212962
0.962072
0.96189397
0.96196319
0.96205635
0.96214482
0.96221236
0.96224999
0.962253
0.962221
0.96216121
0.96210074
0.96190494
0.96197346
0.9620647
0.96215081
0.96221639
0.962253
0.96225613
0.96222529
0.96216704
0.96210748
0.96189859
0.96196228
0.96204643
0.96212576
0.96218647
0.962221
0.96222529
0.96219875
0.96214686
0.96209272
0.96187924
0.96193375
0.96200644
0.96207577
0.96212962
0.96216122
0.96216705
0.96214686
0.96210544
0.96206171
0.96185902
0.96190293
0.96196418
0.96202431
0.96207201
0.96210074
0.96210748
0.96209272
0.96206171
0.96203034
0.95831815
0.95835177
0.958403
0.95845642
0.9585009
0.95852954
0.95853908
0.95853018
0.95850804
0.95848599
0.95835177
0.95839465
0.95845653
0.95851891
0.95856954
0.95860097
0.95860948
0.95859519
0.95856331
0.95853038
0.958403
0.95845653
0.95853142
0.95860502
0.95866316
0.95869752
0.95870376
0.95868179
0.95863783
0.95859306
0.95845642
0.95851891
0.95860502
0.95868832
0.95875282
0.95878926
0.95879288
0.95876367
0.9587092
0.9586549
0.9585009
0.95856954
0.95866316
0.95875282
0.95882128
0.95885877
0.95886029
0.95882597
0.95876438
0.95870373
0.95852954
0.95860097
0.95869752
0.95878926
0.95885877
0.95889628
0.95889678
0.95886039
0.95879589
0.95873246
0.95853908
0.95860948
0.95870376
0.95879288
0.95886029
0.95889678
0.95889755
0.9588626
0.95880002
0.95873783
0.95853018
0.95859519
0.95868179
0.95876367
0.95882597
0.95886039
0.9588626
0.95883247
0.9587769
0.95872071
0.95850804
0.95856331
0.95863783
0.9587092
0.95876438
0.9587959
0.95880002
0.9587769
0.95873255
0.95868735
0.95848599
0.95853038
0.95859306
0.9586549
0.95870374
0.95873246
0.95873784
0.95872071
0.95868736
0.95865484
0.95486396
0.95489863
0.9549515
0.95500646
0.95505177
0.95508004
0.95508792
0.95507637
0.95505152
0.95502777
0.95489863
0.95494285
0.95500669
0.95507089
0.95512245
0.95515342
0.95515992
0.95514246
0.95510737
0.9550725
0.9549515
0.95500669
0.95508398
0.95515977
0.95521904
0.95525285
0.95525672
0.95523103
0.9551833
0.95513628
0.95500646
0.95507089
0.95515977
0.9552456
0.9553114
0.95534726
0.95534825
0.95531489
0.95525622
0.9551994
0.95505177
0.95512245
0.95521904
0.9553114
0.95538127
0.95541817
0.95541693
0.95537825
0.95531225
0.95524896
0.95508004
0.95515342
0.95525285
0.95534726
0.95541817
0.95545509
0.95545285
0.95541214
0.95534332
0.95527734
0.95508792
0.95515992
0.95525672
0.95534825
0.95541693
0.95545285
0.95545105
0.95541208
0.95534556
0.95528118
0.95507637
0.95514246
0.95523103
0.95531489
0.95537825
0.95541214
0.95541208
0.95537845
0.95531956
0.9552617
0.95505152
0.95510737
0.9551833
0.95525623
0.95531225
0.95534332
0.95534556
0.95531956
0.95527257
0.95522621
0.95502777
0.9550725
0.95513628
0.9551994
0.95524896
0.95527734
0.95528118
0.9552617
0.95522621
0.95519274
0.95132369
0.95135934
0.95141364
0.95146984
0.95151564
0.95154326
0.95154928
0.95153504
0.95150757
0.95148224
0.95135934
0.9514048
0.95147036
0.95153602
0.95158815
0.95161832
0.95162262
0.95160198
0.95156383
0.95152719
0.95141364
0.95147036
0.95154975
0.95162731
0.95168727
0.95172017
0.95172147
0.95169208
0.9516408
0.95159177
0.95146984
0.95153602
0.95162731
0.95171517
0.95178178
0.95181667
0.95181483
0.9517774
0.95171482
0.95165576
0.95151564
0.95158815
0.95168727
0.95178178
0.95185254
0.95188844
0.95188425
0.95184133
0.95177126
0.95170568
0.95154326
0.95161832
0.95172016
0.95181667
0.95188844
0.95192436
0.9519192
0.95187432
0.95180156
0.95173342
0.95154928
0.95162262
0.95172147
0.95181483
0.95188425
0.9519192
0.95191467
0.95187183
0.95180176
0.95173557
0.95153504
0.95160198
0.95169208
0.9517774
0.95184133
0.95187432
0.95187183
0.95183484
0.95177298
0.9517138
0.95150757
0.95156383
0.9516408
0.95171482
0.95177126
0.95180156
0.95180176
0.95177298
0.95172362
0.95167634
0.95148224
0.95152719
0.95159177
0.95165576
0.95170568
0.95173342
0.95173557
0.9517138
0.95167634
0.9516421
0.94769499
0.94773153
0.94778705
0.94784421
0.94789019
0.9479169
0.94792092
0.94790399
0.94787401
0.94784722
0.94773153
0.94777814
0.94784519
0.94791199
0.94796432
0.94799342
0.94799536
0.94797158
0.94793053
0.94789228
0.94778705
0.94784519
0.94792639
0.94800532
0.94806556
0.94809724
0.94809583
0.94806282
0.94800823
0.94795738
0.94784421
0.94791198
0.94800532
0.94809476
0.94816174
0.9481953
0.94819051
0.94814911
0.94808292
0.9480219
0.94789019
0.94796432
0.94806556
0.94816174
0.94823289
0.94826743
0.94826018
0.94821316
0.94813938
0.94807181
0.9479169
0.94799342
0.94809724
0.9481953
0.94826743
0.948302
0.94829381
0.94824494
0.94816861
0.94809865
0.94792092
0.94799536
0.94809583
0.94819051
0.94826018
0.94829381
0.94828645
0.94823993
0.94816668
0.94809901
0.94790399
0.94797158
0.94806282
0.94814911
0.94821316
0.94824494
0.94823993
0.94819973
0.94813524
0.94807502
0.94787401
0.94793053
0.94800823
0.94808292
0.94813938
0.94816861
0.94816668
0.94813524
0.94808377
0.94803578
0.94784722
0.94789229
0.94795738
0.9480219
0.94807181
0.94809865
0.94809901
0.94807502
0.94803578
0.9480009
0.94397544
0.94401277
0.94406933
0.94412718
0.94417307
0.94419865
0.94420056
0.94418098
0.9441486
0.94412047
0.94401277
0.94406043
0.94412875
0.94419638
0.94424862
0.94427641
0.94427589
0.94424904
0.94420527
0.94416555
0.94406933
0.94412875
0.94421149
0.94429144
0.94435161
0.9443818
0.94437759
0.94434107
0.9442834
0.94423093
0.94412718
0.94419638
0.94429144
0.94438205
0.94444898
0.94448095
0.94447311
0.94442792
0.94435841
0.94429565
0.94417307
0.94424862
0.94435161
0.94444898
0.94452009
0.94455299
0.9445426
0.94449168
0.94441453
0.94434524
0.94419865
0.9442764
0.9443818
0.94448095
0.94455299
0.94458591
0.94457465
0.94452198
0.94444246
0.94437096
0.94420056
0.94427589
0.94437759
0.94447311
0.9445426
0.94457465
0.9445644
0.9445144
0.94443833
0.94436947
0.94418098
0.94424904
0.94434107
0.94442792
0.94449168
0.94452198
0.9445144
0.94447118
0.94440436
0.94434334
0.9441486
0.94420527
0.9442834
0.94435841
0.94441453
0.94444246
0.94443833
0.94440436
0.94435102
0.94430249
0.94412047
0.94416555
0.94423093
0.94429565
0.94434524
0.94437097
0.94436947
0.94434334
0.94430249
0.94426708
0.94016257
0.94020061
0.94025801
0.94031631
0.94036187
0.94038614
0.94038587
0.9403637
0.94032907
0.94029969
0.94020061
0.9402492
0.94031858
0.94038677
0.94043864
0.94046493
0.94046191
0.94043208
0.94038576
0.94034471
0.94025801
0.94031858
0.9404026
0.94048325
0.94054304
0.94057154
0.94056449
0.94052461
0.94046409
0.94041016
0.94031631
0.94038677
0.94048325
0.94057465
0.94064119
0.94067135
0.94066045
0.94061164
0.94053908
0.9404748
0.94036187
0.94043864
0.94054304
0.94064119
0.9407119
0.94074292
0.94072939
0.94067477
0.94059457
0.94052381
0.94038614
0.94046492
0.94057154
0.94067135
0.94074292
0.94077397
0.94075962
0.94070339
0.94062101
0.94054823
0.94038587
0.94046191
0.94056449
0.94066045
0.94072939
0.94075962
0.94074648
0.94069323
0.94061467
0.94054484
0.9403637
0.94043208
0.94052461
0.94061164
0.94067477
0.94070339
0.94069323
0.94064718
0.94057832
0.94051667
0.94032907
0.94038576
0.94046409
0.94053908
0.94059457
0.94062101
0.94061467
0.94057832
0.94052331
0.94047436
0.94029969
0.94034471
0.94041016
0.9404748
0.94052381
0.94054824
0.94054484
0.94051667
0.94047436
0.94043852
0.93625386
0.9362925
0.93635057
0.93640911
0.93645413
0.93647696
0.93647449
0.93644981
0.93641305
0.93638253
0.9362925
0.93634193
0.93641217
0.93648067
0.93653194
0.93655659
0.93655107
0.93651839
0.93646969
0.93642742
0.93635057
0.93641217
0.93649724
0.9365783
0.93663744
0.9366641
0.93665423
0.93661115
0.93654801
0.93649276
0.93640911
0.93648067
0.9365783
0.93667015
0.93673603
0.9367642
0.93675027
0.93669804
0.93662271
0.93655708
0.93645413
0.93653194
0.93663744
0.93673603
0.93680601
0.93683499
0.93681834
0.93676027
0.93667732
0.93660528
0.93647696
0.93655659
0.9366641
0.9367642
0.93683499
0.93686399
0.9368466
0.93678705
0.93670212
0.93662828
0.93647449
0.93655106
0.93665423
0.93675027
0.93681834
0.9368466
0.93683062
0.93677434
0.93669358
0.93662297
0.93644981
0.93651839
0.93661115
0.93669804
0.93676027
0.93678705
0.93677434
0.93672566
0.93665499
0.93659286
0.93641305
0.93646969
0.93654801
0.93662272
0.93667732
0.93670213
0.93669358
0.93665499
0.9365985
0.93654924
0.93638253
0.93642742
0.93649276
0.93655709
0.93660528
0.93662828
0.93662298
0.93659287
0.93654924
0.93651303
0.93224674
0.93228589
0.93234447
0.93240305
0.93244737
0.93246865
0.932464
0.93243691
0.93239816
0.93236658
0.93228589
0.93233604
0.93240696
0.93247556
0.93252605
0.93254896
0.93254095
0.93250557
0.93245467
0.93241128
0.93234447
0.93240696
0.93249287
0.93257409
0.93263238
0.9326571
0.93264445
0.93259836
0.9325328
0.93247637
0.93240305
0.93247555
0.93257409
0.93266612
0.93273109
0.93275718
0.93274027
0.93268484
0.932607
0.93254018
0.93244737
0.93252605
0.93263238
0.93273109
0.9328001
0.93282692
0.93280724
0.93274595
0.93266053
0.93258739
0.93246865
0.93254896
0.9326571
0.93275718
0.93282692
0.93285377
0.93283342
0.9327708
0.9326836
0.93260886
0.93246399
0.93254095
0.93264445
0.93274027
0.93280724
0.93283342
0.93281466
0.93275559
0.93267289
0.93260166
0.93243691
0.93250557
0.93259836
0.93268484
0.93274595
0.9327708
0.93275559
0.93270447
0.93263222
0.93256972
0.93239816
0.93245467
0.9325328
0.932607
0.93266053
0.9326836
0.93267289
0.93263222
0.93257441
0.93252491
0.93236658
0.93241128
0.93247637
0.93254018
0.93258739
0.93260886
0.93260166
0.93256972
0.93252491
0.93248838
0.9281386
0.92817817
0.92823712
0.92829558
0.92833905
0.92835873
0.92835192
0.92832254
0.92828194
0.92824939
0.92817817
0.92822893
0.92830036
0.92836888
0.92841845
0.92843956
0.92842914
0.9283912
0.92833827
0.92829386
0.92823712
0.92830036
0.92838691
0.92846809
0.92852537
0.92854809
0.92853275
0.92848384
0.92841608
0.92835858
0.92829558
0.92836888
0.92846809
0.92856007
0.92862395
0.9286479
0.92862812
0.92856971
0.9284896
0.92842171
0.92833905
0.92841845
0.92852537
0.92862394
0.9286918
0.92871641
0.9286938
0.92862953
0.9285419
0.9284678
0.92835873
0.92843956
0.92854809
0.9286479
0.92871641
0.92874105
0.92871784
0.92865238
0.92856318
0.92848768
0.92835192
0.92842914
0.92853275
0.92862812
0.9286938
0.92871784
0.92869641
0.92863477
0.92855036
0.92847862
0.92832254
0.92839119
0.92848384
0.92856971
0.92862953
0.92865238
0.92863477
0.9285814
0.92850775
0.92844497
0.92828194
0.92833827
0.92841608
0.9284896
0.9285419
0.92856318
0.92855036
0.92850775
0.92844877
0.92839907
0.92824939
0.92829386
0.92835858
0.92842172
0.92846781
0.92848768
0.92847862
0.92844497
0.92839907
0.92836227
0.92392681
0.9239667
0.92402588
0.92408408
0.92412661
0.92414467
0.92413576
0.92410422
0.9240619
0.92402846
0.9239667
0.92401797
0.92408976
0.92415805
0.92420659
0.92422589
0.92421313
0.92417279
0.924118
0.92407265
0.92402588
0.92408976
0.92417678
0.92425774
0.9243139
0.92433461
0.92431668
0.92426515
0.92419538
0.92413691
0.92408408
0.92415805
0.92425774
0.92434948
0.92441214
0.92443394
0.92441141
0.92435026
0.92426808
0.92419926
0.92412661
0.92420659
0.9243139
0.92441214
0.92447869
0.92450108
0.92447569
0.92440867
0.92431906
0.92424413
0.92414467
0.92422589
0.92433461
0.92443394
0.92450108
0.9245235
0.92449758
0.92442952
0.92433854
0.92426238
0.92413576
0.92421313
0.92431668
0.92441141
0.92447569
0.92449758
0.9244736
0.92440961
0.92432368
0.92425152
0.92410422
0.92417279
0.92426515
0.92435026
0.92440867
0.92442952
0.92440961
0.92435417
0.92427928
0.92421627
0.9240619
0.924118
0.92419538
0.92426808
0.92431906
0.92433854
0.92432369
0.92427928
0.92421925
0.92416938
0.92402846
0.92407265
0.92413691
0.92419926
0.92424413
0.92426238
0.92425152
0.92421627
0.92416938
0.92413234
0.91960867
0.91964881
0.91970811
0.91976594
0.91980745
0.91982389
0.91981296
0.9197794
0.9197355
0.91970124
0.91964881
0.91970049
0.91977251
0.91984044
0.91988788
0.91990539
0.9198904
0.91984784
0.91979133
0.91974513
0.9197081
0.91977251
0.91985985
0.91994045
0.91999541
0.92001414
0.91999376
0.9199398
0.9198682
0.91980886
0.91976593
0.91984044
0.91994045
0.92003179
0.92009316
0.92011284
0.92008771
0.92002403
0.91994
0.91987033
0.91980745
0.91988788
0.91999541
0.92009316
0.92015833
0.92017853
0.9201505
0.92008098
0.9199896
0.91991393
0.91982389
0.91990539
0.92001414
0.92011284
0.92017853
0.92019877
0.92017028
0.92009985
0.92000728
0.91993057
0.91981296
0.9198904
0.91999376
0.92008771
0.9201505
0.92017028
0.9201439
0.92007775
0.91999049
0.91991797
0.9197794
0.91984783
0.9199398
0.92002403
0.92008098
0.92009985
0.92007775
0.92002042
0.91994443
0.91988122
0.9197355
0.91979133
0.9198682
0.91994
0.9199896
0.92000728
0.91999049
0.91994443
0.91988345
0.91983343
0.91970124
0.91974513
0.91980886
0.91987034
0.91991393
0.91993057
0.91991797
0.91988122
0.91983343
0.91979618
0.91518148
0.91522179
0.9152811
0.91533848
0.91537895
0.91539378
0.91538094
0.9153455
0.91530014
0.91526513
0.91522179
0.9152738
0.91534593
0.91541341
0.91545972
0.91547547
0.91545837
0.91541375
0.91535568
0.91530871
0.9152811
0.91534593
0.91543346
0.9155136
0.91556732
0.91558412
0.91556143
0.91550524
0.91543199
0.91537186
0.91533848
0.91541341
0.9155136
0.91560443
0.91566446
0.91568209
0.91565453
0.91558853
0.91550282
0.91543241
0.91537894
0.91545971
0.91556732
0.91566446
0.91572821
0.9157463
0.9157158
0.91564399
0.91555102
0.91547471
0.91539378
0.91547547
0.91558412
0.91568209
0.9157463
0.91576441
0.91573352
0.91566094
0.91556696
0.91548976
0.91538094
0.91545837
0.91556143
0.91565453
0.9157158
0.91573352
0.91570489
0.91563679
0.91554834
0.91547551
0.9153455
0.91541375
0.91550524
0.91558853
0.91564399
0.91566094
0.91563679
0.91557773
0.91550075
0.91543737
0.91530014
0.91535568
0.91543199
0.91550283
0.91555102
0.91556696
0.91554834
0.91550075
0.91543891
0.91538875
0.91526513
0.91530871
0.91537186
0.91543241
0.91547471
0.91548976
0.91547551
0.91543737
0.91538875
0.9153513
0.9106425
0.91068292
0.91074217
0.91079902
0.91083842
0.91085172
0.91083707
0.91079989
0.9107532
0.9107175
0.91068292
0.91073516
0.91080732
0.91087428
0.91091944
0.9109335
0.91091443
0.91086792
0.91080843
0.91076075
0.91074216
0.91080732
0.91089492
0.91097453
0.911027
0.91104196
0.91101712
0.91095889
0.91088414
0.9108233
0.91079902
0.91087428
0.91097453
0.91106477
0.91112346
0.91113913
0.9111093
0.9110412
0.91095399
0.91088291
0.91083842
0.91091944
0.911027
0.91112346
0.91118579
0.91120185
0.91116907
0.91109518
0.9110008
0.91092391
0.91085171
0.9109335
0.91104196
0.91113913
0.91120185
0.91121794
0.91118483
0.91111029
0.91101505
0.91093742
0.91083707
0.91091442
0.91101712
0.9111093
0.91116907
0.91118483
0.91115411
0.91108423
0.91099472
0.91092162
0.91079989
0.91086792
0.91095889
0.9110412
0.91109518
0.91111029
0.91108423