/*--------------------------------*- C++ -*----------------------------------*\
| =========                 |                                                 |
| \\      /  F ield         | OpenFOAM: The Open Source CFD Toolbox           |
|  \\    /   O peration     | Version:  dev                                   |
|   \\  /    A nd           | Web:      www.OpenFOAM.org                      |
|    \\/     M anipulation  |                                                 |
\*---------------------------------------------------------------------------*/
FoamFile
{
    version     2.0;
    format      ascii;
    class       volScalarField;
    location    "3";
    object      A;
}
// * * * * * * * * * * * * * * * * * * * * * * * * * * * * * * * * * * * * * //

dimensions      [0 0 0 0 1 0 0];

internalField   nonuniform List<scalar> 
10000
(
2.2223727e-106
2.2181077e-106
2.2175417e-106
2.2174883e-106
2.2174844e-106
2.2174842e-106
2.2174842e-106
2.2174842e-106
2.2174847e-106
2.2174894e-106
2.2181077e-106
2.2138529e-106
2.2132882e-106
2.2132349e-106
2.213231e-106
2.2132308e-106
2.2132308e-106
2.213231e-106
2.2132331e-106
2.2132508e-106
2.2175417e-106
2.2132882e-106
2.2127237e-106
2.2126704e-106
2.2126666e-106
2.2126663e-106
2.2126663e-106
2.2126666e-106
2.212669e-106
2.2126883e-106
2.2174883e-106
2.2132349e-106
2.2126704e-106
2.2126172e-106
2.2126133e-106
2.2126131e-106
2.2126131e-106
2.2126133e-106
2.2126157e-106
2.2126352e-106
2.2174844e-106
2.213231e-106
2.2126666e-106
2.2126133e-106
2.2126094e-106
2.2126092e-106
2.2126092e-106
2.2126094e-106
2.2126119e-106
2.2126313e-106
2.2174842e-106
2.2132308e-106
2.2126663e-106
2.2126131e-106
2.2126092e-106
2.212609e-106
2.212609e-106
2.2126092e-106
2.2126116e-106
2.2126311e-106
2.2174842e-106
2.2132308e-106
2.2126663e-106
2.2126131e-106
2.2126092e-106
2.212609e-106
2.212609e-106
2.2126092e-106
2.2126117e-106
2.2126311e-106
2.2174842e-106
2.213231e-106
2.2126666e-106
2.2126133e-106
2.2126094e-106
2.2126092e-106
2.2126092e-106
2.2126095e-106
2.2126119e-106
2.2126313e-106
2.2174847e-106
2.2132331e-106
2.212669e-106
2.2126157e-106
2.2126119e-106
2.2126116e-106
2.2126117e-106
2.2126119e-106
2.2126143e-106
2.2126338e-106
2.2174894e-106
2.2132508e-106
2.2126883e-106
2.2126352e-106
2.2126313e-106
2.2126311e-106
2.2126311e-106
2.2126313e-106
2.2126338e-106
2.2126532e-106
3.9605813e-105
3.9531768e-105
3.9521927e-105
3.9520998e-105
3.9520931e-105
3.9520927e-105
3.9520927e-105
3.9520927e-105
3.9520936e-105
3.952102e-105
3.9531768e-105
3.9457894e-105
3.9448076e-105
3.944715e-105
3.9447082e-105
3.9447078e-105
3.9447078e-105
3.9447082e-105
3.9447119e-105
3.9447433e-105
3.9521927e-105
3.9448076e-105
3.9438261e-105
3.9437335e-105
3.9437268e-105
3.9437264e-105
3.9437264e-105
3.9437268e-105
3.943731e-105
3.9437652e-105
3.9520998e-105
3.944715e-105
3.9437335e-105
3.9436409e-105
3.9436341e-105
3.9436337e-105
3.9436338e-105
3.9436341e-105
3.9436384e-105
3.9436728e-105
3.9520931e-105
3.9447082e-105
3.9437268e-105
3.9436341e-105
3.9436274e-105
3.943627e-105
3.943627e-105
3.9436274e-105
3.9436317e-105
3.9436661e-105
3.9520927e-105
3.9447078e-105
3.9437264e-105
3.9436337e-105
3.943627e-105
3.9436266e-105
3.9436266e-105
3.943627e-105
3.9436313e-105
3.9436658e-105
3.9520927e-105
3.9447078e-105
3.9437264e-105
3.9436338e-105
3.943627e-105
3.9436266e-105
3.9436266e-105
3.943627e-105
3.9436313e-105
3.9436658e-105
3.9520927e-105
3.9447082e-105
3.9437268e-105
3.9436341e-105
3.9436274e-105
3.943627e-105
3.943627e-105
3.9436274e-105
3.9436317e-105
3.9436662e-105
3.9520936e-105
3.9447119e-105
3.943731e-105
3.9436384e-105
3.9436317e-105
3.9436313e-105
3.9436313e-105
3.9436317e-105
3.943636e-105
3.9436704e-105
3.952102e-105
3.9447433e-105
3.9437652e-105
3.9436728e-105
3.9436661e-105
3.9436658e-105
3.9436658e-105
3.9436662e-105
3.9436704e-105
3.9437049e-105
6.8431673e-104
6.8307176e-104
6.8290622e-104
6.828906e-104
6.8288947e-104
6.828894e-104
6.828894e-104
6.8288941e-104
6.8288955e-104
6.8289094e-104
6.8307176e-104
6.8182962e-104
6.8166445e-104
6.8164886e-104
6.8164773e-104
6.8164766e-104
6.8164766e-104
6.8164772e-104
6.8164835e-104
6.8165367e-104
6.8290622e-104
6.8166445e-104
6.8149933e-104
6.8148375e-104
6.8148262e-104
6.8148255e-104
6.8148255e-104
6.8148262e-104
6.8148334e-104
6.8148913e-104
6.828906e-104
6.8164886e-104
6.8148375e-104
6.8146817e-104
6.8146704e-104
6.8146697e-104
6.8146697e-104
6.8146704e-104
6.8146776e-104
6.814736e-104
6.8288947e-104
6.8164773e-104
6.8148262e-104
6.8146704e-104
6.8146591e-104
6.8146584e-104
6.8146584e-104
6.8146591e-104
6.8146663e-104
6.8147247e-104
6.828894e-104
6.8164766e-104
6.8148255e-104
6.8146697e-104
6.8146584e-104
6.8146577e-104
6.8146577e-104
6.8146584e-104
6.8146657e-104
6.8147241e-104
6.828894e-104
6.8164766e-104
6.8148255e-104
6.8146697e-104
6.8146584e-104
6.8146577e-104
6.8146578e-104
6.8146584e-104
6.8146657e-104
6.8147241e-104
6.8288941e-104
6.8164772e-104
6.8148262e-104
6.8146704e-104
6.8146591e-104
6.8146584e-104
6.8146584e-104
6.8146591e-104
6.8146664e-104
6.8147248e-104
6.8288955e-104
6.8164835e-104
6.8148334e-104
6.8146776e-104
6.8146663e-104
6.8146657e-104
6.8146657e-104
6.8146664e-104
6.8146736e-104
6.814732e-104
6.8289094e-104
6.8165367e-104
6.8148913e-104
6.814736e-104
6.8147247e-104
6.8147241e-104
6.8147241e-104
6.8147248e-104
6.814732e-104
6.8147904e-104
1.2174938e-102
1.2153394e-102
1.2150528e-102
1.2150257e-102
1.2150237e-102
1.2150236e-102
1.2150236e-102
1.2150236e-102
1.2150239e-102
1.2150262e-102
1.2153394e-102
1.2131897e-102
1.2129037e-102
1.2128767e-102
1.2128748e-102
1.2128746e-102
1.2128746e-102
1.2128747e-102
1.2128758e-102
1.2128851e-102
1.2150528e-102
1.2129037e-102
1.2126178e-102
1.2125908e-102
1.2125889e-102
1.2125888e-102
1.2125888e-102
1.2125889e-102
1.2125901e-102
1.2126002e-102
1.2150257e-102
1.2128767e-102
1.2125908e-102
1.2125639e-102
1.2125619e-102
1.2125618e-102
1.2125618e-102
1.2125619e-102
1.2125632e-102
1.2125734e-102
1.2150237e-102
1.2128748e-102
1.2125889e-102
1.2125619e-102
1.2125599e-102
1.2125598e-102
1.2125598e-102
1.2125599e-102
1.2125612e-102
1.2125714e-102
1.2150236e-102
1.2128746e-102
1.2125888e-102
1.2125618e-102
1.2125598e-102
1.2125597e-102
1.2125597e-102
1.2125598e-102
1.2125611e-102
1.2125713e-102
1.2150236e-102
1.2128746e-102
1.2125888e-102
1.2125618e-102
1.2125598e-102
1.2125597e-102
1.2125597e-102
1.2125598e-102
1.2125611e-102
1.2125713e-102
1.2150236e-102
1.2128747e-102
1.2125889e-102
1.2125619e-102
1.2125599e-102
1.2125598e-102
1.2125598e-102
1.21256e-102
1.2125612e-102
1.2125714e-102
1.2150239e-102
1.2128758e-102
1.2125901e-102
1.2125632e-102
1.2125612e-102
1.2125611e-102
1.2125611e-102
1.2125612e-102
1.2125625e-102
1.2125727e-102
1.2150262e-102
1.2128851e-102
1.2126002e-102
1.2125734e-102
1.2125714e-102
1.2125713e-102
1.2125713e-102
1.2125714e-102
1.2125727e-102
1.2125829e-102
2.2306255e-101
2.2267878e-101
2.2262771e-101
2.2262289e-101
2.2262254e-101
2.2262251e-101
2.2262251e-101
2.2262252e-101
2.2262256e-101
2.2262297e-101
2.2267878e-101
2.2229585e-101
2.2224488e-101
2.2224007e-101
2.2223972e-101
2.222397e-101
2.222397e-101
2.2223972e-101
2.2223992e-101
2.2224158e-101
2.2262771e-101
2.2224488e-101
2.2219393e-101
2.2218912e-101
2.2218877e-101
2.2218875e-101
2.2218875e-101
2.2218877e-101
2.22189e-101
2.2219081e-101
2.2262289e-101
2.2224007e-101
2.2218912e-101
2.2218431e-101
2.2218396e-101
2.2218394e-101
2.2218394e-101
2.2218396e-101
2.2218419e-101
2.2218602e-101
2.2262254e-101
2.2223972e-101
2.2218877e-101
2.2218396e-101
2.2218361e-101
2.2218359e-101
2.2218359e-101
2.2218362e-101
2.2218385e-101
2.2218567e-101
2.2262251e-101
2.222397e-101
2.2218875e-101
2.2218394e-101
2.2218359e-101
2.2218357e-101
2.2218357e-101
2.221836e-101
2.2218383e-101
2.2218565e-101
2.2262251e-101
2.222397e-101
2.2218875e-101
2.2218394e-101
2.2218359e-101
2.2218357e-101
2.2218357e-101
2.221836e-101
2.2218383e-101
2.2218565e-101
2.2262252e-101
2.2223972e-101
2.2218877e-101
2.2218396e-101
2.2218362e-101
2.221836e-101
2.221836e-101
2.2218362e-101
2.2218385e-101
2.2218568e-101
2.2262256e-101
2.2223992e-101
2.22189e-101
2.2218419e-101
2.2218385e-101
2.2218383e-101
2.2218383e-101
2.2218385e-101
2.2218408e-101
2.2218591e-101
2.2262297e-101
2.2224158e-101
2.2219081e-101
2.2218602e-101
2.2218567e-101
2.2218565e-101
2.2218565e-101
2.2218568e-101
2.2218591e-101
2.2218773e-101
4.2080919e-100
4.2010564e-100
4.2001197e-100
4.2000312e-100
4.2000248e-100
4.2000244e-100
4.2000244e-100
4.2000245e-100
4.2000253e-100
4.2000327e-100
4.2010564e-100
4.1940358e-100
4.193101e-100
4.1930128e-100
4.1930064e-100
4.193006e-100
4.193006e-100
4.1930063e-100
4.19301e-100
4.1930408e-100
4.2001197e-100
4.193101e-100
4.1921665e-100
4.1920783e-100
4.1920719e-100
4.1920715e-100
4.1920715e-100
4.1920719e-100
4.1920761e-100
4.1921097e-100
4.2000312e-100
4.1930128e-100
4.1920783e-100
4.1919901e-100
4.1919837e-100
4.1919833e-100
4.1919833e-100
4.1919837e-100
4.191988e-100
4.1920218e-100
4.2000248e-100
4.1930064e-100
4.1920719e-100
4.1919837e-100
4.1919773e-100
4.1919769e-100
4.1919769e-100
4.1919773e-100
4.1919816e-100
4.1920154e-100
4.2000244e-100
4.193006e-100
4.1920715e-100
4.1919833e-100
4.1919769e-100
4.1919765e-100
4.1919765e-100
4.1919769e-100
4.1919812e-100
4.192015e-100
4.2000244e-100
4.193006e-100
4.1920715e-100
4.1919833e-100
4.1919769e-100
4.1919765e-100
4.1919766e-100
4.191977e-100
4.1919812e-100
4.192015e-100
4.2000245e-100
4.1930063e-100
4.1920719e-100
4.1919837e-100
4.1919773e-100
4.1919769e-100
4.191977e-100
4.1919774e-100
4.1919816e-100
4.1920154e-100
4.2000253e-100
4.19301e-100
4.1920761e-100
4.191988e-100
4.1919816e-100
4.1919812e-100
4.1919812e-100
4.1919816e-100
4.1919859e-100
4.1920197e-100
4.2000327e-100
4.1930408e-100
4.1921097e-100
4.1920218e-100
4.1920154e-100
4.192015e-100
4.192015e-100
4.1920154e-100
4.1920197e-100
4.1920535e-100
8.1730898e-99
8.159817e-99
8.1580491e-99
8.1578822e-99
8.1578701e-99
8.1578694e-99
8.1578694e-99
8.1578695e-99
8.1578711e-99
8.1578849e-99
8.159817e-99
8.1465719e-99
8.1448076e-99
8.144641e-99
8.144629e-99
8.1446283e-99
8.1446283e-99
8.1446289e-99
8.144636e-99
8.1446945e-99
8.1580491e-99
8.1448076e-99
8.1430439e-99
8.1428773e-99
8.1428653e-99
8.1428646e-99
8.1428646e-99
8.1428653e-99
8.1428734e-99
8.1429373e-99
8.1578822e-99
8.144641e-99
8.1428773e-99
8.1427108e-99
8.1426987e-99
8.142698e-99
8.1426981e-99
8.1426988e-99
8.142707e-99
8.1427714e-99
8.1578701e-99
8.144629e-99
8.1428653e-99
8.1426987e-99
8.1426867e-99
8.142686e-99
8.142686e-99
8.1426867e-99
8.1426949e-99
8.1427593e-99
8.1578694e-99
8.1446283e-99
8.1428646e-99
8.142698e-99
8.142686e-99
8.1426853e-99
8.1426853e-99
8.142686e-99
8.1426942e-99
8.1427586e-99
8.1578694e-99
8.1446283e-99
8.1428646e-99
8.1426981e-99
8.142686e-99
8.1426853e-99
8.1426853e-99
8.1426861e-99
8.1426942e-99
8.1427587e-99
8.1578695e-99
8.1446289e-99
8.1428653e-99
8.1426988e-99
8.1426867e-99
8.142686e-99
8.1426861e-99
8.1426868e-99
8.142695e-99
8.1427594e-99
8.1578711e-99
8.144636e-99
8.1428734e-99
8.142707e-99
8.1426949e-99
8.1426942e-99
8.1426942e-99
8.142695e-99
8.1427032e-99
8.1427676e-99
8.1578849e-99
8.1446945e-99
8.1429373e-99
8.1427714e-99
8.1427593e-99
8.1427586e-99
8.1427587e-99
8.1427594e-99
8.1427676e-99
8.142832e-99
1.6340649e-97
1.6314886e-97
1.6311453e-97
1.6311129e-97
1.6311106e-97
1.6311104e-97
1.6311104e-97
1.6311105e-97
1.6311108e-97
1.6311134e-97
1.6314886e-97
1.6289176e-97
1.628575e-97
1.6285427e-97
1.6285403e-97
1.6285402e-97
1.6285402e-97
1.6285403e-97
1.6285417e-97
1.6285532e-97
1.6311453e-97
1.628575e-97
1.6282325e-97
1.6282002e-97
1.6281978e-97
1.6281977e-97
1.6281977e-97
1.6281978e-97
1.6281994e-97
1.628212e-97
1.6311129e-97
1.6285427e-97
1.6282002e-97
1.6281678e-97
1.6281655e-97
1.6281653e-97
1.6281654e-97
1.6281655e-97
1.6281671e-97
1.6281797e-97
1.6311106e-97
1.6285403e-97
1.6281978e-97
1.6281655e-97
1.6281631e-97
1.628163e-97
1.628163e-97
1.6281632e-97
1.6281648e-97
1.6281774e-97
1.6311104e-97
1.6285402e-97
1.6281977e-97
1.6281653e-97
1.628163e-97
1.6281629e-97
1.6281629e-97
1.628163e-97
1.6281646e-97
1.6281773e-97
1.6311104e-97
1.6285402e-97
1.6281977e-97
1.6281654e-97
1.628163e-97
1.6281629e-97
1.6281629e-97
1.628163e-97
1.6281646e-97
1.6281773e-97
1.6311105e-97
1.6285403e-97
1.6281978e-97
1.6281655e-97
1.6281632e-97
1.628163e-97
1.628163e-97
1.6281632e-97
1.6281648e-97
1.6281774e-97
1.6311108e-97
1.6285417e-97
1.6281994e-97
1.6281671e-97
1.6281648e-97
1.6281646e-97
1.6281646e-97
1.6281648e-97
1.6281664e-97
1.628179e-97
1.6311134e-97
1.6285532e-97
1.628212e-97
1.6281797e-97
1.6281774e-97
1.6281773e-97
1.6281773e-97
1.6281774e-97
1.628179e-97
1.6281917e-97
3.3625546e-96
3.3574104e-96
3.3567247e-96
3.3566599e-96
3.3566552e-96
3.356655e-96
3.356655e-96
3.356655e-96
3.3566556e-96
3.3566608e-96
3.3574104e-96
3.3522765e-96
3.3515921e-96
3.3515275e-96
3.3515228e-96
3.3515225e-96
3.3515225e-96
3.3515228e-96
3.3515256e-96
3.3515487e-96
3.3567247e-96
3.3515921e-96
3.3509079e-96
3.3508433e-96
3.3508386e-96
3.3508383e-96
3.3508383e-96
3.3508386e-96
3.3508419e-96
3.3508672e-96
3.3566599e-96
3.3515275e-96
3.3508433e-96
3.3507787e-96
3.350774e-96
3.3507737e-96
3.3507737e-96
3.350774e-96
3.3507773e-96
3.3508028e-96
3.3566552e-96
3.3515228e-96
3.3508386e-96
3.350774e-96
3.3507693e-96
3.350769e-96
3.3507691e-96
3.3507694e-96
3.3507726e-96
3.3507981e-96
3.356655e-96
3.3515225e-96
3.3508383e-96
3.3507737e-96
3.350769e-96
3.3507688e-96
3.3507688e-96
3.3507691e-96
3.3507724e-96
3.3507978e-96
3.356655e-96
3.3515225e-96
3.3508383e-96
3.3507737e-96
3.3507691e-96
3.3507688e-96
3.3507688e-96
3.3507691e-96
3.3507724e-96
3.3507979e-96
3.356655e-96
3.3515228e-96
3.3508386e-96
3.350774e-96
3.3507694e-96
3.3507691e-96
3.3507691e-96
3.3507694e-96
3.3507727e-96
3.3507982e-96
3.3566556e-96
3.3515256e-96
3.3508419e-96
3.3507773e-96
3.3507726e-96
3.3507724e-96
3.3507724e-96
3.3507727e-96
3.3507759e-96
3.3508014e-96
3.3566608e-96
3.3515487e-96
3.3508672e-96
3.3508028e-96
3.3507981e-96
3.3507978e-96
3.3507979e-96
3.3507982e-96
3.3508014e-96
3.3508269e-96
7.1206046e-95
7.1100399e-95
7.1086311e-95
7.1084981e-95
7.1084884e-95
7.1084879e-95
7.1084878e-95
7.108488e-95
7.1084892e-95
7.1084998e-95
7.1100399e-95
7.0994957e-95
7.0980896e-95
7.0979568e-95
7.0979472e-95
7.0979466e-95
7.0979466e-95
7.0979472e-95
7.0979531e-95
7.0980011e-95
7.1086311e-95
7.0980896e-95
7.0966839e-95
7.0965511e-95
7.0965415e-95
7.0965409e-95
7.0965409e-95
7.0965416e-95
7.0965483e-95
7.0966008e-95
7.1084981e-95
7.0979568e-95
7.0965511e-95
7.0964184e-95
7.0964087e-95
7.0964082e-95
7.0964082e-95
7.0964088e-95
7.0964156e-95
7.0964686e-95
7.1084884e-95
7.0979472e-95
7.0965415e-95
7.0964087e-95
7.0963991e-95
7.0963985e-95
7.0963986e-95
7.0963992e-95
7.096406e-95
7.096459e-95
7.1084879e-95
7.0979466e-95
7.0965409e-95
7.0964082e-95
7.0963985e-95
7.096398e-95
7.096398e-95
7.0963986e-95
7.0964054e-95
7.0964584e-95
7.1084878e-95
7.0979466e-95
7.0965409e-95
7.0964082e-95
7.0963986e-95
7.096398e-95
7.096398e-95
7.0963987e-95
7.0964055e-95
7.0964584e-95
7.108488e-95
7.0979472e-95
7.0965416e-95
7.0964088e-95
7.0963992e-95
7.0963986e-95
7.0963987e-95
7.0963993e-95
7.0964061e-95
7.0964591e-95
7.1084892e-95
7.0979531e-95
7.0965483e-95
7.0964156e-95
7.096406e-95
7.0964054e-95
7.0964055e-95
7.0964061e-95
7.0964129e-95
7.0964659e-95
7.1084998e-95
7.0980011e-95
7.0966008e-95
7.0964686e-95
7.096459e-95
7.0964584e-95
7.0964584e-95
7.0964591e-95
7.0964659e-95
7.0965188e-95
1.5514497e-93
1.5492185e-93
1.5489209e-93
1.5488928e-93
1.5488907e-93
1.5488906e-93
1.5488906e-93
1.5488906e-93
1.5488909e-93
1.5488931e-93
1.5492185e-93
1.5469915e-93
1.5466944e-93
1.5466664e-93
1.5466644e-93
1.5466642e-93
1.5466642e-93
1.5466644e-93
1.5466656e-93
1.5466759e-93
1.5489209e-93
1.5466944e-93
1.5463974e-93
1.5463694e-93
1.5463674e-93
1.5463672e-93
1.5463672e-93
1.5463674e-93
1.5463688e-93
1.54638e-93
1.5488928e-93
1.5466664e-93
1.5463694e-93
1.5463413e-93
1.5463393e-93
1.5463392e-93
1.5463392e-93
1.5463393e-93
1.5463408e-93
1.5463521e-93
1.5488907e-93
1.5466644e-93
1.5463674e-93
1.5463393e-93
1.5463373e-93
1.5463372e-93
1.5463372e-93
1.5463373e-93
1.5463388e-93
1.5463501e-93
1.5488906e-93
1.5466642e-93
1.5463672e-93
1.5463392e-93
1.5463372e-93
1.546337e-93
1.546337e-93
1.5463372e-93
1.5463386e-93
1.54635e-93
1.5488906e-93
1.5466642e-93
1.5463672e-93
1.5463392e-93
1.5463372e-93
1.546337e-93
1.546337e-93
1.5463372e-93
1.5463386e-93
1.54635e-93
1.5488906e-93
1.5466644e-93
1.5463674e-93
1.5463393e-93
1.5463373e-93
1.5463372e-93
1.5463372e-93
1.5463373e-93
1.5463388e-93
1.5463501e-93
1.5488909e-93
1.5466656e-93
1.5463688e-93
1.5463408e-93
1.5463388e-93
1.5463386e-93
1.5463386e-93
1.5463388e-93
1.5463402e-93
1.5463516e-93
1.5488931e-93
1.5466759e-93
1.54638e-93
1.5463521e-93
1.5463501e-93
1.54635e-93
1.54635e-93
1.5463501e-93
1.5463516e-93
1.5463629e-93
3.4773853e-92
3.4725405e-92
3.471894e-92
3.471833e-92
3.4718285e-92
3.4718283e-92
3.4718283e-92
3.4718283e-92
3.4718289e-92
3.4718337e-92
3.4725405e-92
3.4677048e-92
3.4670594e-92
3.4669985e-92
3.4669941e-92
3.4669938e-92
3.4669938e-92
3.4669941e-92
3.4669968e-92
3.4670194e-92
3.471894e-92
3.4670594e-92
3.4664143e-92
3.4663533e-92
3.4663489e-92
3.4663486e-92
3.4663487e-92
3.4663489e-92
3.4663521e-92
3.4663768e-92
3.471833e-92
3.4669985e-92
3.4663533e-92
3.4662924e-92
3.466288e-92
3.4662877e-92
3.4662877e-92
3.466288e-92
3.4662912e-92
3.4663161e-92
3.4718285e-92
3.4669941e-92
3.4663489e-92
3.466288e-92
3.4662835e-92
3.4662833e-92
3.4662833e-92
3.4662836e-92
3.4662868e-92
3.4663117e-92
3.4718283e-92
3.4669938e-92
3.4663486e-92
3.4662877e-92
3.4662833e-92
3.466283e-92
3.466283e-92
3.4662833e-92
3.4662866e-92
3.4663115e-92
3.4718283e-92
3.4669938e-92
3.4663487e-92
3.4662877e-92
3.4662833e-92
3.466283e-92
3.4662831e-92
3.4662834e-92
3.4662866e-92
3.4663115e-92
3.4718283e-92
3.4669941e-92
3.4663489e-92
3.466288e-92
3.4662836e-92
3.4662833e-92
3.4662834e-92
3.4662837e-92
3.4662869e-92
3.4663118e-92
3.4718289e-92
3.4669968e-92
3.4663521e-92
3.4662912e-92
3.4662868e-92
3.4662866e-92
3.4662866e-92
3.4662869e-92
3.4662901e-92
3.466315e-92
3.4718337e-92
3.4670194e-92
3.4663768e-92
3.4663161e-92
3.4663117e-92
3.4663115e-92
3.4663115e-92
3.4663118e-92
3.466315e-92
3.4663399e-92
8.0163793e-91
8.0055659e-91
8.0041224e-91
8.003986e-91
8.0039761e-91
8.0039755e-91
8.0039755e-91
8.0039757e-91
8.003977e-91
8.0039875e-91
8.0055659e-91
7.9947719e-91
7.993331e-91
7.9931949e-91
7.993185e-91
7.9931845e-91
7.9931845e-91
7.993185e-91
7.9931914e-91
7.9932423e-91
8.0041224e-91
7.993331e-91
7.9918904e-91
7.9917544e-91
7.9917445e-91
7.9917439e-91
7.9917439e-91
7.9917446e-91
7.9917518e-91
7.9918077e-91
8.003986e-91
7.9931949e-91
7.9917544e-91
7.9916183e-91
7.9916084e-91
7.9916079e-91
7.9916079e-91
7.9916086e-91
7.9916159e-91
7.9916721e-91
8.0039761e-91
7.993185e-91
7.9917445e-91
7.9916084e-91
7.9915986e-91
7.991598e-91
7.991598e-91
7.9915987e-91
7.991606e-91
7.9916623e-91
8.0039755e-91
7.9931845e-91
7.9917439e-91
7.9916079e-91
7.991598e-91
7.9915974e-91
7.9915974e-91
7.9915981e-91
7.9916054e-91
7.9916617e-91
8.0039755e-91
7.9931845e-91
7.9917439e-91
7.9916079e-91
7.991598e-91
7.9915974e-91
7.9915975e-91
7.9915982e-91
7.9916055e-91
7.9916618e-91
8.0039757e-91
7.993185e-91
7.9917446e-91
7.9916086e-91
7.9915987e-91
7.9915981e-91
7.9915982e-91
7.9915988e-91
7.9916061e-91
7.9916624e-91
8.003977e-91
7.9931914e-91
7.9917518e-91
7.9916159e-91
7.991606e-91
7.9916054e-91
7.9916055e-91
7.9916061e-91
7.9916135e-91
7.9916698e-91
8.0039875e-91
7.9932423e-91
7.9918077e-91
7.9916721e-91
7.9916623e-91
7.9916617e-91
7.9916618e-91
7.9916624e-91
7.9916698e-91
7.9917261e-91
1.9003123e-89
1.8978319e-89
1.8975007e-89
1.8974694e-89
1.8974671e-89
1.897467e-89
1.897467e-89
1.897467e-89
1.8974673e-89
1.8974697e-89
1.8978319e-89
1.8953559e-89
1.8950253e-89
1.894994e-89
1.8949918e-89
1.8949916e-89
1.8949916e-89
1.8949918e-89
1.8949932e-89
1.8950051e-89
1.8975007e-89
1.8950253e-89
1.8946947e-89
1.8946635e-89
1.8946612e-89
1.8946611e-89
1.8946611e-89
1.8946612e-89
1.8946629e-89
1.8946759e-89
1.8974694e-89
1.894994e-89
1.8946635e-89
1.8946322e-89
1.89463e-89
1.8946299e-89
1.8946299e-89
1.89463e-89
1.8946317e-89
1.8946448e-89
1.8974671e-89
1.8949918e-89
1.8946612e-89
1.89463e-89
1.8946277e-89
1.8946276e-89
1.8946276e-89
1.8946278e-89
1.8946295e-89
1.8946425e-89
1.897467e-89
1.8949916e-89
1.8946611e-89
1.8946299e-89
1.8946276e-89
1.8946275e-89
1.8946275e-89
1.8946276e-89
1.8946293e-89
1.8946424e-89
1.897467e-89
1.8949916e-89
1.8946611e-89
1.8946299e-89
1.8946276e-89
1.8946275e-89
1.8946275e-89
1.8946276e-89
1.8946293e-89
1.8946424e-89
1.897467e-89
1.8949918e-89
1.8946612e-89
1.89463e-89
1.8946278e-89
1.8946276e-89
1.8946276e-89
1.8946278e-89
1.8946295e-89
1.8946426e-89
1.8974673e-89
1.8949932e-89
1.8946629e-89
1.8946317e-89
1.8946295e-89
1.8946293e-89
1.8946293e-89
1.8946295e-89
1.8946312e-89
1.8946443e-89
1.8974697e-89
1.8950051e-89
1.8946759e-89
1.8946448e-89
1.8946425e-89
1.8946424e-89
1.8946424e-89
1.8946426e-89
1.8946443e-89
1.8946574e-89
4.6312546e-88
4.6254089e-88
4.624628e-88
4.6245543e-88
4.6245489e-88
4.6245486e-88
4.6245486e-88
4.6245487e-88
4.6245494e-88
4.624555e-88
4.6254089e-88
4.6195733e-88
4.6187937e-88
4.6187201e-88
4.6187148e-88
4.6187145e-88
4.6187145e-88
4.6187148e-88
4.6187183e-88
4.6187466e-88
4.624628e-88
4.6187937e-88
4.6180144e-88
4.6179408e-88
4.6179355e-88
4.6179351e-88
4.6179352e-88
4.6179355e-88
4.6179396e-88
4.6179706e-88
4.6245543e-88
4.6187201e-88
4.6179408e-88
4.6178672e-88
4.6178618e-88
4.6178615e-88
4.6178615e-88
4.6178619e-88
4.617866e-88
4.6178973e-88
4.6245489e-88
4.6187148e-88
4.6179355e-88
4.6178618e-88
4.6178565e-88
4.6178562e-88
4.6178562e-88
4.6178566e-88
4.6178607e-88
4.617892e-88
4.6245486e-88
4.6187145e-88
4.6179351e-88
4.6178615e-88
4.6178562e-88
4.6178559e-88
4.6178559e-88
4.6178563e-88
4.6178604e-88
4.6178917e-88
4.6245486e-88
4.6187145e-88
4.6179352e-88
4.6178615e-88
4.6178562e-88
4.6178559e-88
4.6178559e-88
4.6178563e-88
4.6178604e-88
4.6178917e-88
4.6245487e-88
4.6187148e-88
4.6179355e-88
4.6178619e-88
4.6178566e-88
4.6178563e-88
4.6178563e-88
4.6178567e-88
4.6178608e-88
4.6178921e-88
4.6245494e-88
4.6187183e-88
4.6179396e-88
4.617866e-88
4.6178607e-88
4.6178604e-88
4.6178604e-88
4.6178608e-88
4.6178648e-88
4.6178961e-88
4.624555e-88
4.6187466e-88
4.6179706e-88
4.6178973e-88
4.617892e-88
4.6178917e-88
4.6178917e-88
4.6178921e-88
4.6178961e-88
4.6179274e-88
1.1601109e-86
1.1586957e-86
1.1585066e-86
1.1584888e-86
1.1584875e-86
1.1584874e-86
1.1584874e-86
1.1584874e-86
1.1584876e-86
1.158489e-86
1.1586957e-86
1.157283e-86
1.1570942e-86
1.1570764e-86
1.1570751e-86
1.157075e-86
1.157075e-86
1.1570751e-86
1.1570759e-86
1.1570829e-86
1.1585066e-86
1.1570942e-86
1.1569055e-86
1.1568876e-86
1.1568863e-86
1.1568863e-86
1.1568863e-86
1.1568864e-86
1.1568874e-86
1.156895e-86
1.1584888e-86
1.1570764e-86
1.1568876e-86
1.1568698e-86
1.1568685e-86
1.1568684e-86
1.1568684e-86
1.1568685e-86
1.1568695e-86
1.1568772e-86
1.1584875e-86
1.1570751e-86
1.1568863e-86
1.1568685e-86
1.1568672e-86
1.1568671e-86
1.1568672e-86
1.1568672e-86
1.1568683e-86
1.1568759e-86
1.1584874e-86
1.157075e-86
1.1568863e-86
1.1568684e-86
1.1568671e-86
1.1568671e-86
1.1568671e-86
1.1568672e-86
1.1568682e-86
1.1568759e-86
1.1584874e-86
1.157075e-86
1.1568863e-86
1.1568684e-86
1.1568672e-86
1.1568671e-86
1.1568671e-86
1.1568672e-86
1.1568682e-86
1.1568759e-86
1.1584874e-86
1.1570751e-86
1.1568864e-86
1.1568685e-86
1.1568672e-86
1.1568672e-86
1.1568672e-86
1.1568673e-86
1.1568683e-86
1.156876e-86
1.1584876e-86
1.1570759e-86
1.1568874e-86
1.1568695e-86
1.1568683e-86
1.1568682e-86
1.1568682e-86
1.1568683e-86
1.1568693e-86
1.156877e-86
1.158489e-86
1.1570829e-86
1.156895e-86
1.1568772e-86
1.1568759e-86
1.1568759e-86
1.1568759e-86
1.156876e-86
1.156877e-86
1.1568847e-86
2.9862221e-85
2.982704e-85
2.9822338e-85
2.9821894e-85
2.9821862e-85
2.982186e-85
2.982186e-85
2.982186e-85
2.9821865e-85
2.9821898e-85
2.982704e-85
2.9791918e-85
2.9787223e-85
2.978678e-85
2.9786747e-85
2.9786746e-85
2.9786746e-85
2.9786748e-85
2.978677e-85
2.9786945e-85
2.9822338e-85
2.9787223e-85
2.978253e-85
2.9782086e-85
2.9782054e-85
2.9782052e-85
2.9782052e-85
2.9782055e-85
2.978208e-85
2.9782272e-85
2.9821894e-85
2.978678e-85
2.9782086e-85
2.9781643e-85
2.9781611e-85
2.9781609e-85
2.9781609e-85
2.9781611e-85
2.9781637e-85
2.9781831e-85
2.9821862e-85
2.9786747e-85
2.9782054e-85
2.9781611e-85
2.9781579e-85
2.9781577e-85
2.9781577e-85
2.9781579e-85
2.9781605e-85
2.9781799e-85
2.982186e-85
2.9786746e-85
2.9782052e-85
2.9781609e-85
2.9781577e-85
2.9781575e-85
2.9781575e-85
2.9781577e-85
2.9781603e-85
2.9781797e-85
2.982186e-85
2.9786746e-85
2.9782052e-85
2.9781609e-85
2.9781577e-85
2.9781575e-85
2.9781575e-85
2.9781577e-85
2.9781603e-85
2.9781797e-85
2.982186e-85
2.9786748e-85
2.9782055e-85
2.9781611e-85
2.9781579e-85
2.9781577e-85
2.9781577e-85
2.978158e-85
2.9781605e-85
2.97818e-85
2.9821865e-85
2.978677e-85
2.978208e-85
2.9781637e-85
2.9781605e-85
2.9781603e-85
2.9781603e-85
2.9781605e-85
2.9781631e-85
2.9781825e-85
2.9821898e-85
2.9786945e-85
2.9782272e-85
2.9781831e-85
2.9781799e-85
2.9781797e-85
2.9781797e-85
2.97818e-85
2.9781825e-85
2.9782019e-85
7.8968733e-84
7.8878946e-84
7.8866942e-84
7.8865808e-84
7.8865725e-84
7.886572e-84
7.886572e-84
7.8865722e-84
7.8865733e-84
7.8865819e-84
7.8878946e-84
7.8789303e-84
7.8777317e-84
7.8776185e-84
7.8776103e-84
7.8776098e-84
7.8776098e-84
7.8776104e-84
7.8776161e-84
7.8776615e-84
7.8866942e-84
7.8777317e-84
7.8765335e-84
7.8764203e-84
7.8764121e-84
7.8764116e-84
7.8764116e-84
7.8764122e-84
7.8764188e-84
7.8764687e-84
7.8865808e-84
7.8776185e-84
7.8764203e-84
7.8763071e-84
7.8762989e-84
7.8762984e-84
7.8762984e-84
7.876299e-84
7.8763056e-84
7.876356e-84
7.8865725e-84
7.8776103e-84
7.8764121e-84
7.8762989e-84
7.8762907e-84
7.8762902e-84
7.8762902e-84
7.8762908e-84
7.8762974e-84
7.8763478e-84
7.886572e-84
7.8776098e-84
7.8764116e-84
7.8762984e-84
7.8762902e-84
7.8762897e-84
7.8762897e-84
7.8762903e-84
7.876297e-84
7.8763473e-84
7.886572e-84
7.8776098e-84
7.8764116e-84
7.8762984e-84
7.8762902e-84
7.8762897e-84
7.8762897e-84
7.8762904e-84
7.876297e-84
7.8763474e-84
7.8865722e-84
7.8776104e-84
7.8764122e-84
7.876299e-84
7.8762908e-84
7.8762903e-84
7.8762904e-84
7.876291e-84
7.8762976e-84
7.876348e-84
7.8865733e-84
7.8776161e-84
7.8764188e-84
7.8763056e-84
7.8762974e-84
7.876297e-84
7.876297e-84
7.8762976e-84
7.8763042e-84
7.8763546e-84
7.8865819e-84
7.8776615e-84
7.8764687e-84
7.876356e-84
7.8763478e-84
7.8763473e-84
7.8763474e-84
7.876348e-84
7.8763546e-84
7.876405e-84
2.144773e-82
2.1424211e-82
2.1421066e-82
2.1420769e-82
2.1420747e-82
2.1420746e-82
2.1420746e-82
2.1420746e-82
2.142075e-82
2.1420772e-82
2.1424211e-82
2.1400729e-82
2.1397589e-82
2.1397292e-82
2.1397271e-82
2.139727e-82
2.139727e-82
2.1397271e-82
2.1397286e-82
2.1397407e-82
2.1421066e-82
2.1397589e-82
2.1394449e-82
2.1394153e-82
2.1394131e-82
2.139413e-82
2.139413e-82
2.1394132e-82
2.1394149e-82
2.1394282e-82
2.1420769e-82
2.1397292e-82
2.1394153e-82
2.1393856e-82
2.1393835e-82
2.1393833e-82
2.1393833e-82
2.1393835e-82
2.1393853e-82
2.1393987e-82
2.1420747e-82
2.1397271e-82
2.1394131e-82
2.1393835e-82
2.1393813e-82
2.1393812e-82
2.1393812e-82
2.1393814e-82
2.1393831e-82
2.1393965e-82
2.1420746e-82
2.139727e-82
2.139413e-82
2.1393833e-82
2.1393812e-82
2.1393811e-82
2.1393811e-82
2.1393812e-82
2.139383e-82
2.1393964e-82
2.1420746e-82
2.139727e-82
2.139413e-82
2.1393833e-82
2.1393812e-82
2.1393811e-82
2.1393811e-82
2.1393812e-82
2.139383e-82
2.1393964e-82
2.1420746e-82
2.1397271e-82
2.1394132e-82
2.1393835e-82
2.1393814e-82
2.1393812e-82
2.1393812e-82
2.1393814e-82
2.1393832e-82
2.1393966e-82
2.142075e-82
2.1397286e-82
2.1394149e-82
2.1393853e-82
2.1393831e-82
2.139383e-82
2.139383e-82
2.1393832e-82
2.1393849e-82
2.1393983e-82
2.1420772e-82
2.1397407e-82
2.1394282e-82
2.1393987e-82
2.1393965e-82
2.1393964e-82
2.1393964e-82
2.1393966e-82
2.1393983e-82
2.1394118e-82
5.9810421e-81
5.9747215e-81
5.973876e-81
5.9737961e-81
5.9737903e-81
5.97379e-81
5.97379e-81
5.9737901e-81
5.9737909e-81
5.9737969e-81
5.9747215e-81
5.9684105e-81
5.9675663e-81
5.9674865e-81
5.9674807e-81
5.9674804e-81
5.9674804e-81
5.9674808e-81
5.9674849e-81
5.967518e-81
5.973876e-81
5.9675663e-81
5.9667222e-81
5.9666425e-81
5.9666367e-81
5.9666363e-81
5.9666364e-81
5.9666368e-81
5.9666416e-81
5.9666779e-81
5.9737961e-81
5.9674865e-81
5.9666425e-81
5.9665627e-81
5.9665569e-81
5.9665566e-81
5.9665566e-81
5.9665571e-81
5.9665619e-81
5.9665985e-81
5.9737903e-81
5.9674807e-81
5.9666367e-81
5.9665569e-81
5.9665511e-81
5.9665508e-81
5.9665508e-81
5.9665513e-81
5.9665561e-81
5.9665928e-81
5.97379e-81
5.9674804e-81
5.9666363e-81
5.9665566e-81
5.9665508e-81
5.9665505e-81
5.9665505e-81
5.9665509e-81
5.9665558e-81
5.9665924e-81
5.97379e-81
5.9674804e-81
5.9666364e-81
5.9665566e-81
5.9665508e-81
5.9665505e-81
5.9665505e-81
5.966551e-81
5.9665558e-81
5.9665925e-81
5.9737901e-81
5.9674808e-81
5.9666368e-81
5.9665571e-81
5.9665513e-81
5.9665509e-81
5.966551e-81
5.9665514e-81
5.9665563e-81
5.9665929e-81
5.9737909e-81
5.9674849e-81
5.9666416e-81
5.9665619e-81
5.9665561e-81
5.9665558e-81
5.9665558e-81
5.9665563e-81
5.9665611e-81
5.9665978e-81
5.9737969e-81
5.967518e-81
5.9666779e-81
5.9665985e-81
5.9665928e-81
5.9665924e-81
5.9665925e-81
5.9665929e-81
5.9665978e-81
5.9666344e-81
1.7120301e-79
1.7102879e-79
1.7100547e-79
1.7100327e-79
1.7100311e-79
1.710031e-79
1.710031e-79
1.710031e-79
1.7100313e-79
1.7100329e-79
1.7102879e-79
1.7085482e-79
1.7083154e-79
1.7082934e-79
1.7082918e-79
1.7082917e-79
1.7082917e-79
1.7082918e-79
1.708293e-79
1.7083023e-79
1.7100547e-79
1.7083154e-79
1.7080827e-79
1.7080607e-79
1.7080591e-79
1.708059e-79
1.708059e-79
1.7080591e-79
1.7080605e-79
1.7080707e-79
1.7100327e-79
1.7082934e-79
1.7080607e-79
1.7080387e-79
1.7080371e-79
1.708037e-79
1.708037e-79
1.7080371e-79
1.7080385e-79
1.7080488e-79
1.7100311e-79
1.7082918e-79
1.7080591e-79
1.7080371e-79
1.7080355e-79
1.7080354e-79
1.7080354e-79
1.7080355e-79
1.7080369e-79
1.7080472e-79
1.710031e-79
1.7082917e-79
1.708059e-79
1.708037e-79
1.7080354e-79
1.7080353e-79
1.7080353e-79
1.7080354e-79
1.7080368e-79