/*--------------------------------*- C++ -*----------------------------------*\
| =========                 |                                                 |
| \\      /  F ield         | OpenFOAM: The Open Source CFD Toolbox           |
|  \\    /   O peration     | Version:  dev                                   |
|   \\  /    A nd           | Web:      www.OpenFOAM.org                      |
|    \\/     M anipulation  |                                                 |
\*---------------------------------------------------------------------------*/
FoamFile
{
    version     2.0;
    format      ascii;
    class       volScalarField;
    location    "3";
    object      A_0;
}
// * * * * * * * * * * * * * * * * * * * * * * * * * * * * * * * * * * * * * //

dimensions      [0 0 0 0 1 0 0];

internalField   nonuniform List<scalar> 
10000
(
1.9845882e-106
1.980772e-106
1.9802663e-106
1.9802187e-106
1.9802152e-106
1.980215e-106
1.980215e-106
1.980215e-106
1.9802155e-106
1.9802196e-106
1.980772e-106
1.9769649e-106
1.9764603e-106
1.9764128e-106
1.9764094e-106
1.9764092e-106
1.9764092e-106
1.9764093e-106
1.9764112e-106
1.976427e-106
1.9802663e-106
1.9764603e-106
1.975956e-106
1.9759085e-106
1.975905e-106
1.9759048e-106
1.9759048e-106
1.975905e-106
1.9759072e-106
1.9759244e-106
1.9802187e-106
1.9764128e-106
1.9759085e-106
1.975861e-106
1.9758575e-106
1.9758573e-106
1.9758573e-106
1.9758575e-106
1.9758597e-106
1.975877e-106
1.9802152e-106
1.9764094e-106
1.975905e-106
1.9758575e-106
1.9758541e-106
1.9758539e-106
1.9758539e-106
1.9758541e-106
1.9758562e-106
1.9758736e-106
1.980215e-106
1.9764092e-106
1.9759048e-106
1.9758573e-106
1.9758539e-106
1.9758537e-106
1.9758537e-106
1.9758539e-106
1.975856e-106
1.9758734e-106
1.980215e-106
1.9764092e-106
1.9759048e-106
1.9758573e-106
1.9758539e-106
1.9758537e-106
1.9758537e-106
1.9758539e-106
1.975856e-106
1.9758734e-106
1.980215e-106
1.9764093e-106
1.975905e-106
1.9758575e-106
1.9758541e-106
1.9758539e-106
1.9758539e-106
1.9758541e-106
1.9758562e-106
1.9758736e-106
1.9802155e-106
1.9764112e-106
1.9759072e-106
1.9758597e-106
1.9758562e-106
1.975856e-106
1.975856e-106
1.9758562e-106
1.9758584e-106
1.9758758e-106
1.9802196e-106
1.976427e-106
1.9759244e-106
1.975877e-106
1.9758736e-106
1.9758734e-106
1.9758734e-106
1.9758736e-106
1.9758758e-106
1.9758932e-106
3.5417854e-105
3.5351507e-105
3.5342702e-105
3.5341872e-105
3.5341812e-105
3.5341808e-105
3.5341808e-105
3.5341809e-105
3.5341817e-105
3.5341891e-105
3.5351507e-105
3.5285314e-105
3.5276529e-105
3.5275701e-105
3.5275641e-105
3.5275638e-105
3.5275638e-105
3.5275641e-105
3.5275674e-105
3.5275954e-105
3.5342702e-105
3.5276529e-105
3.5267747e-105
3.5266919e-105
3.5266859e-105
3.5266856e-105
3.5266856e-105
3.5266859e-105
3.5266897e-105
3.5267203e-105
3.5341872e-105
3.5275701e-105
3.5266919e-105
3.5266092e-105
3.5266032e-105
3.5266028e-105
3.5266029e-105
3.5266032e-105
3.526607e-105
3.5266378e-105
3.5341812e-105
3.5275641e-105
3.5266859e-105
3.5266032e-105
3.5265972e-105
3.5265969e-105
3.5265969e-105
3.5265972e-105
3.526601e-105
3.5266318e-105
3.5341808e-105
3.5275638e-105
3.5266856e-105
3.5266028e-105
3.5265969e-105
3.5265965e-105
3.5265965e-105
3.5265969e-105
3.5266007e-105
3.5266315e-105
3.5341808e-105
3.5275638e-105
3.5266856e-105
3.5266029e-105
3.5265969e-105
3.5265965e-105
3.5265965e-105
3.5265969e-105
3.5266007e-105
3.5266315e-105
3.5341809e-105
3.5275641e-105
3.5266859e-105
3.5266032e-105
3.5265972e-105
3.5265969e-105
3.5265969e-105
3.5265972e-105
3.526601e-105
3.5266318e-105
3.5341817e-105
3.5275674e-105
3.5266897e-105
3.526607e-105
3.526601e-105
3.5266007e-105
3.5266007e-105
3.526601e-105
3.5266048e-105
3.5266357e-105
3.5341891e-105
3.5275954e-105
3.5267203e-105
3.5266378e-105
3.5266318e-105
3.5266315e-105
3.5266315e-105
3.5266318e-105
3.5266357e-105
3.5266665e-105
6.1287622e-104
6.11759e-104
6.1161066e-104
6.1159668e-104
6.1159567e-104
6.1159561e-104
6.1159561e-104
6.1159562e-104
6.1159575e-104
6.1159699e-104
6.11759e-104
6.1064432e-104
6.1049631e-104
6.1048237e-104
6.1048136e-104
6.104813e-104
6.104813e-104
6.1048135e-104
6.1048191e-104
6.1048667e-104
6.1161066e-104
6.1049631e-104
6.1034836e-104
6.1033441e-104
6.103334e-104
6.1033334e-104
6.1033335e-104
6.1033341e-104
6.1033405e-104
6.1033923e-104
6.1159668e-104
6.1048237e-104
6.1033441e-104
6.1032047e-104
6.1031946e-104
6.103194e-104
6.103194e-104
6.1031946e-104
6.1032011e-104
6.1032534e-104
6.1159567e-104
6.1048136e-104
6.103334e-104
6.1031946e-104
6.1031845e-104
6.1031839e-104
6.1031839e-104
6.1031845e-104
6.103191e-104
6.1032433e-104
6.1159561e-104
6.104813e-104
6.1033334e-104
6.103194e-104
6.1031839e-104
6.1031833e-104
6.1031834e-104
6.103184e-104
6.1031905e-104
6.1032427e-104
6.1159561e-104
6.104813e-104
6.1033335e-104
6.103194e-104
6.1031839e-104
6.1031834e-104
6.1031834e-104
6.103184e-104
6.1031905e-104
6.1032428e-104
6.1159562e-104
6.1048135e-104
6.1033341e-104
6.1031946e-104
6.1031845e-104
6.103184e-104
6.103184e-104
6.1031846e-104
6.1031911e-104
6.1032434e-104
6.1159575e-104
6.1048191e-104
6.1033405e-104
6.1032011e-104
6.103191e-104
6.1031905e-104
6.1031905e-104
6.1031911e-104
6.1031976e-104
6.1032499e-104
6.1159699e-104
6.1048667e-104
6.1033923e-104
6.1032534e-104
6.1032433e-104
6.1032427e-104
6.1032428e-104
6.1032434e-104
6.1032499e-104
6.1033021e-104
1.0920368e-102
1.0901005e-102
1.0898433e-102
1.0898191e-102
1.0898173e-102
1.0898172e-102
1.0898172e-102
1.0898172e-102
1.0898175e-102
1.0898196e-102
1.0901005e-102
1.0881685e-102
1.0879119e-102
1.0878877e-102
1.0878859e-102
1.0878858e-102
1.0878858e-102
1.0878859e-102
1.0878869e-102
1.0878952e-102
1.0898433e-102
1.0879119e-102
1.0876553e-102
1.0876311e-102
1.0876294e-102
1.0876293e-102
1.0876293e-102
1.0876294e-102
1.0876305e-102
1.0876396e-102
1.0898191e-102
1.0878877e-102
1.0876311e-102
1.087607e-102
1.0876052e-102
1.0876051e-102
1.0876051e-102
1.0876052e-102
1.0876063e-102
1.0876155e-102
1.0898173e-102
1.0878859e-102
1.0876294e-102
1.0876052e-102
1.0876035e-102
1.0876033e-102
1.0876034e-102
1.0876035e-102
1.0876046e-102
1.0876137e-102
1.0898172e-102
1.0878858e-102
1.0876293e-102
1.0876051e-102
1.0876033e-102
1.0876032e-102
1.0876033e-102
1.0876034e-102
1.0876045e-102
1.0876136e-102
1.0898172e-102
1.0878858e-102
1.0876293e-102
1.0876051e-102
1.0876034e-102
1.0876033e-102
1.0876033e-102
1.0876034e-102
1.0876045e-102
1.0876136e-102
1.0898172e-102
1.0878859e-102
1.0876294e-102
1.0876052e-102
1.0876035e-102
1.0876034e-102
1.0876034e-102
1.0876035e-102
1.0876046e-102
1.0876137e-102
1.0898175e-102
1.0878869e-102
1.0876305e-102
1.0876063e-102
1.0876046e-102
1.0876045e-102
1.0876045e-102
1.0876046e-102
1.0876057e-102
1.0876149e-102
1.0898196e-102
1.0878952e-102
1.0876396e-102
1.0876155e-102
1.0876137e-102
1.0876136e-102
1.0876136e-102
1.0876137e-102
1.0876149e-102
1.087624e-102
2.0037994e-101
2.0003451e-101
1.999886e-101
1.9998428e-101
1.9998396e-101
1.9998395e-101
1.9998394e-101
1.9998395e-101
1.9998399e-101
1.9998436e-101
2.0003451e-101
1.9968983e-101
1.9964402e-101
1.996397e-101
1.9963939e-101
1.9963937e-101
1.9963937e-101
1.9963939e-101
1.9963957e-101
1.9964106e-101
1.999886e-101
1.9964402e-101
1.9959823e-101
1.9959391e-101
1.995936e-101
1.9959358e-101
1.9959358e-101
1.995936e-101
1.995938e-101
1.9959543e-101
1.9998428e-101
1.996397e-101
1.9959391e-101
1.995896e-101
1.9958928e-101
1.9958927e-101
1.9958927e-101
1.9958929e-101
1.9958949e-101
1.9959113e-101
1.9998396e-101
1.9963939e-101
1.995936e-101
1.9958928e-101
1.9958897e-101
1.9958895e-101
1.9958895e-101
1.9958897e-101
1.9958918e-101
1.9959082e-101
1.9998395e-101
1.9963937e-101
1.9959358e-101
1.9958927e-101
1.9958895e-101
1.9958893e-101
1.9958894e-101
1.9958895e-101
1.9958916e-101
1.995908e-101
1.9998394e-101
1.9963937e-101
1.9959358e-101
1.9958927e-101
1.9958895e-101
1.9958894e-101
1.9958894e-101
1.9958896e-101
1.9958916e-101
1.995908e-101
1.9998395e-101
1.9963939e-101
1.995936e-101
1.9958929e-101
1.9958897e-101
1.9958895e-101
1.9958896e-101
1.9958897e-101
1.9958918e-101
1.9959082e-101
1.9998399e-101
1.9963957e-101
1.995938e-101
1.9958949e-101
1.9958918e-101
1.9958916e-101
1.9958916e-101
1.9958918e-101
1.9958939e-101
1.9959103e-101
1.9998436e-101
1.9964106e-101
1.9959543e-101
1.9959113e-101
1.9959082e-101
1.995908e-101
1.995908e-101
1.9959082e-101
1.9959103e-101
1.9959267e-101
3.7859247e-100
3.7795823e-100
3.7787391e-100
3.7786596e-100
3.7786539e-100
3.7786535e-100
3.7786535e-100
3.7786536e-100
3.7786543e-100
3.778661e-100
3.7795823e-100
3.7732535e-100
3.772412e-100
3.7723327e-100
3.772327e-100
3.7723266e-100
3.7723266e-100
3.7723269e-100
3.7723303e-100
3.7723579e-100
3.7787391e-100
3.772412e-100
3.7715708e-100
3.7714915e-100
3.7714858e-100
3.7714855e-100
3.7714855e-100
3.7714858e-100
3.7714896e-100
3.7715198e-100
3.7786596e-100
3.7723327e-100
3.7714915e-100
3.7714123e-100
3.7714065e-100
3.7714062e-100
3.7714062e-100
3.7714065e-100
3.7714104e-100
3.7714408e-100
3.7786539e-100
3.772327e-100
3.7714858e-100
3.7714065e-100
3.7714008e-100
3.7714004e-100
3.7714004e-100
3.7714008e-100
3.7714046e-100
3.7714351e-100
3.7786535e-100
3.7723266e-100
3.7714855e-100
3.7714062e-100
3.7714004e-100
3.7714001e-100
3.7714001e-100
3.7714005e-100
3.7714043e-100
3.7714347e-100
3.7786535e-100
3.7723266e-100
3.7714855e-100
3.7714062e-100
3.7714004e-100
3.7714001e-100
3.7714001e-100
3.7714005e-100
3.7714043e-100
3.7714347e-100
3.7786536e-100
3.7723269e-100
3.7714858e-100
3.7714065e-100
3.7714008e-100
3.7714005e-100
3.7714005e-100
3.7714008e-100
3.7714047e-100
3.7714351e-100
3.7786543e-100
3.7723303e-100
3.7714896e-100
3.7714104e-100
3.7714046e-100
3.7714043e-100
3.7714043e-100
3.7714047e-100
3.7714085e-100
3.7714389e-100
3.778661e-100
3.7723579e-100
3.7715198e-100
3.7714408e-100
3.7714351e-100
3.7714347e-100
3.7714347e-100
3.7714351e-100
3.7714389e-100
3.7714694e-100
7.3643468e-99
7.3523636e-99
7.3507698e-99
7.3506195e-99
7.3506086e-99
7.350608e-99
7.350608e-99
7.3506081e-99
7.3506095e-99
7.3506219e-99
7.3523636e-99
7.3404053e-99
7.3388147e-99
7.3386648e-99
7.3386539e-99
7.3386533e-99
7.3386533e-99
7.3386539e-99
7.3386602e-99
7.3387129e-99
7.3507698e-99
7.3388147e-99
7.3372246e-99
7.3370747e-99
7.3370639e-99
7.3370632e-99
7.3370633e-99
7.3370639e-99
7.3370712e-99
7.3371288e-99
7.3506195e-99
7.3386648e-99
7.3370747e-99
7.3369248e-99
7.336914e-99
7.3369134e-99
7.3369134e-99
7.3369141e-99
7.3369214e-99
7.3369794e-99
7.3506086e-99
7.3386539e-99
7.3370639e-99
7.336914e-99
7.3369031e-99
7.3369025e-99
7.3369025e-99
7.3369032e-99
7.3369106e-99
7.3369686e-99
7.350608e-99
7.3386533e-99
7.3370632e-99
7.3369134e-99
7.3369025e-99
7.3369019e-99
7.3369019e-99
7.3369026e-99
7.3369099e-99
7.336968e-99
7.350608e-99
7.3386533e-99
7.3370633e-99
7.3369134e-99
7.3369025e-99
7.3369019e-99
7.3369019e-99
7.3369026e-99
7.33691e-99
7.336968e-99
7.3506081e-99
7.3386539e-99
7.3370639e-99
7.3369141e-99
7.3369032e-99
7.3369026e-99
7.3369026e-99
7.3369033e-99
7.3369106e-99
7.3369687e-99
7.3506095e-99
7.3386602e-99
7.3370712e-99
7.3369214e-99
7.3369106e-99
7.3369099e-99
7.33691e-99
7.3369106e-99
7.336918e-99
7.336976e-99
7.3506219e-99
7.3387129e-99
7.3371288e-99
7.3369794e-99
7.3369686e-99
7.336968e-99
7.336968e-99
7.3369687e-99
7.336976e-99
7.3370341e-99
1.4746212e-97
1.4722917e-97
1.4719817e-97
1.4719525e-97
1.4719504e-97
1.4719502e-97
1.4719502e-97
1.4719503e-97
1.4719505e-97
1.4719529e-97
1.4722917e-97
1.4699669e-97
1.4696575e-97
1.4696284e-97
1.4696263e-97
1.4696261e-97
1.4696261e-97
1.4696262e-97
1.4696275e-97
1.4696378e-97
1.4719817e-97
1.4696575e-97
1.4693483e-97
1.4693191e-97
1.469317e-97
1.4693169e-97
1.4693169e-97
1.469317e-97
1.4693185e-97
1.4693298e-97
1.4719525e-97
1.4696284e-97
1.4693191e-97
1.46929e-97
1.4692879e-97
1.4692877e-97
1.4692877e-97
1.4692879e-97
1.4692893e-97
1.4693007e-97
1.4719504e-97
1.4696263e-97
1.469317e-97
1.4692879e-97
1.4692857e-97
1.4692856e-97
1.4692856e-97
1.4692858e-97
1.4692872e-97
1.4692986e-97
1.4719502e-97
1.4696261e-97
1.4693169e-97
1.4692877e-97
1.4692856e-97
1.4692855e-97
1.4692855e-97
1.4692856e-97
1.4692871e-97
1.4692985e-97
1.4719502e-97
1.4696261e-97
1.4693169e-97
1.4692877e-97
1.4692856e-97
1.4692855e-97
1.4692855e-97
1.4692856e-97
1.4692871e-97
1.4692985e-97
1.4719503e-97
1.4696262e-97
1.469317e-97
1.4692879e-97
1.4692858e-97
1.4692856e-97
1.4692856e-97
1.4692858e-97
1.4692872e-97
1.4692986e-97
1.4719505e-97
1.4696275e-97
1.4693185e-97
1.4692893e-97
1.4692872e-97
1.4692871e-97
1.4692871e-97
1.4692872e-97
1.4692887e-97
1.4693001e-97
1.4719529e-97
1.4696378e-97
1.4693298e-97
1.4693007e-97
1.4692986e-97
1.4692985e-97
1.4692985e-97
1.4692986e-97
1.4693001e-97
1.4693115e-97
3.0391046e-96
3.034446e-96
3.0338259e-96
3.0337674e-96
3.0337632e-96
3.0337629e-96
3.0337629e-96
3.033763e-96
3.0337635e-96
3.0337682e-96
3.034446e-96
3.0297966e-96
3.0291777e-96
3.0291194e-96
3.0291152e-96
3.0291149e-96
3.0291149e-96
3.0291151e-96
3.0291177e-96
3.0291386e-96
3.0338259e-96
3.0291777e-96
3.028559e-96
3.0285007e-96
3.0284965e-96
3.0284962e-96
3.0284962e-96
3.0284965e-96
3.0284994e-96
3.0285223e-96
3.0337674e-96
3.0291194e-96
3.0285007e-96
3.0284424e-96
3.0284381e-96
3.0284379e-96
3.0284379e-96
3.0284382e-96
3.0284411e-96
3.0284641e-96
3.0337632e-96
3.0291152e-96
3.0284965e-96
3.0284381e-96
3.0284339e-96
3.0284337e-96
3.0284337e-96
3.0284339e-96
3.0284369e-96
3.0284599e-96
3.0337629e-96
3.0291149e-96
3.0284962e-96
3.0284379e-96
3.0284337e-96
3.0284334e-96
3.0284334e-96
3.0284337e-96
3.0284366e-96
3.0284597e-96
3.0337629e-96
3.0291149e-96
3.0284962e-96
3.0284379e-96
3.0284337e-96
3.0284334e-96
3.0284334e-96
3.0284337e-96
3.0284367e-96
3.0284597e-96
3.033763e-96
3.0291151e-96
3.0284965e-96
3.0284382e-96
3.0284339e-96
3.0284337e-96
3.0284337e-96
3.028434e-96
3.0284369e-96
3.02846e-96
3.0337635e-96
3.0291177e-96
3.0284994e-96
3.0284411e-96
3.0284369e-96
3.0284366e-96
3.0284367e-96
3.0284369e-96
3.0284399e-96
3.0284629e-96
3.0337682e-96
3.0291386e-96
3.0285223e-96
3.0284641e-96
3.0284599e-96
3.0284597e-96
3.0284597e-96
3.02846e-96
3.0284629e-96
3.028486e-96
6.4455533e-95
6.435971e-95
6.4346951e-95
6.4345748e-95
6.4345661e-95
6.4345656e-95
6.4345655e-95
6.4345656e-95
6.4345668e-95
6.4345763e-95
6.435971e-95
6.4264074e-95
6.4251339e-95
6.4250138e-95
6.4250051e-95
6.4250046e-95
6.4250046e-95
6.4250051e-95
6.4250104e-95
6.4250539e-95
6.4346951e-95
6.4251339e-95
6.4238607e-95
6.4237407e-95
6.423732e-95
6.4237315e-95
6.4237315e-95
6.423732e-95
6.4237381e-95
6.4237857e-95
6.4345748e-95
6.4250138e-95
6.4237407e-95
6.4236206e-95
6.4236119e-95
6.4236114e-95
6.4236114e-95
6.423612e-95
6.4236182e-95
6.4236661e-95
6.4345661e-95
6.4250051e-95
6.423732e-95
6.4236119e-95
6.4236032e-95
6.4236027e-95
6.4236027e-95
6.4236033e-95
6.4236095e-95
6.4236574e-95
6.4345656e-95
6.4250046e-95
6.4237315e-95
6.4236114e-95
6.4236027e-95
6.4236022e-95
6.4236022e-95
6.4236028e-95
6.423609e-95
6.4236569e-95
6.4345655e-95
6.4250046e-95
6.4237315e-95
6.4236114e-95
6.4236027e-95
6.4236022e-95
6.4236023e-95
6.4236028e-95
6.423609e-95
6.4236569e-95
6.4345656e-95
6.4250051e-95
6.423732e-95
6.423612e-95
6.4236033e-95
6.4236028e-95
6.4236028e-95
6.4236034e-95
6.4236096e-95
6.4236575e-95
6.4345668e-95
6.4250104e-95
6.4237381e-95
6.4236182e-95
6.4236095e-95
6.423609e-95
6.423609e-95
6.4236096e-95
6.4236157e-95
6.4236637e-95
6.4345763e-95
6.4250539e-95
6.4237857e-95
6.4236661e-95
6.4236574e-95
6.4236569e-95
6.4236569e-95
6.4236575e-95
6.4236637e-95
6.4237116e-95
1.4065329e-93
1.404506e-93
1.4042361e-93
1.4042106e-93
1.4042088e-93
1.4042086e-93
1.4042086e-93
1.4042087e-93
1.4042089e-93
1.4042109e-93
1.404506e-93
1.402483e-93
1.4022136e-93
1.4021882e-93
1.4021863e-93
1.4021862e-93
1.4021862e-93
1.4021863e-93
1.4021875e-93
1.4021968e-93
1.4042361e-93
1.4022136e-93
1.4019442e-93
1.4019188e-93
1.4019169e-93
1.4019168e-93
1.4019168e-93
1.4019169e-93
1.4019182e-93
1.4019284e-93
1.4042106e-93
1.4021882e-93
1.4019188e-93
1.4018934e-93
1.4018915e-93
1.4018914e-93
1.4018914e-93
1.4018915e-93
1.4018929e-93
1.4019031e-93
1.4042088e-93
1.4021863e-93
1.4019169e-93
1.4018915e-93
1.4018897e-93
1.4018896e-93
1.4018896e-93
1.4018897e-93
1.401891e-93
1.4019013e-93
1.4042086e-93
1.4021862e-93
1.4019168e-93
1.4018914e-93
1.4018896e-93
1.4018895e-93
1.4018895e-93
1.4018896e-93
1.4018909e-93
1.4019012e-93
1.4042086e-93
1.4021862e-93
1.4019168e-93
1.4018914e-93
1.4018896e-93
1.4018895e-93
1.4018895e-93
1.4018896e-93
1.4018909e-93
1.4019012e-93
1.4042087e-93
1.4021863e-93
1.4019169e-93
1.4018915e-93
1.4018897e-93
1.4018896e-93
1.4018896e-93
1.4018897e-93
1.401891e-93
1.4019013e-93
1.4042089e-93
1.4021875e-93
1.4019182e-93
1.4018929e-93
1.401891e-93
1.4018909e-93
1.4018909e-93
1.401891e-93
1.4018924e-93
1.4019026e-93
1.4042109e-93
1.4021968e-93
1.4019284e-93
1.4019031e-93
1.4019013e-93
1.4019012e-93
1.4019012e-93
1.4019013e-93
1.4019026e-93
1.4019129e-93
3.1574439e-92
3.1530361e-92
3.1524487e-92
3.1523933e-92
3.1523893e-92
3.1523891e-92
3.1523891e-92
3.1523891e-92
3.1523897e-92
3.152394e-92
3.1530361e-92
3.1486364e-92
3.1480501e-92
3.1479949e-92
3.1479909e-92
3.1479906e-92
3.1479906e-92
3.1479909e-92
3.1479934e-92
3.1480138e-92
3.1524487e-92
3.1480501e-92
3.147464e-92
3.1474088e-92
3.1474047e-92
3.1474045e-92
3.1474045e-92
3.1474048e-92
3.1474077e-92
3.1474301e-92
3.1523933e-92
3.1479949e-92
3.1474088e-92
3.1473535e-92
3.1473495e-92
3.1473492e-92
3.1473493e-92
3.1473495e-92
3.1473524e-92
3.147375e-92
3.1523893e-92
3.1479909e-92
3.1474047e-92
3.1473495e-92
3.1473455e-92
3.1473452e-92
3.1473453e-92
3.1473455e-92
3.1473484e-92
3.1473711e-92
3.1523891e-92
3.1479906e-92
3.1474045e-92
3.1473492e-92
3.1473452e-92
3.147345e-92
3.147345e-92
3.1473453e-92
3.1473482e-92
3.1473708e-92
3.1523891e-92
3.1479906e-92
3.1474045e-92
3.1473493e-92
3.1473453e-92
3.147345e-92
3.147345e-92
3.1473453e-92
3.1473482e-92
3.1473708e-92
3.1523891e-92
3.1479909e-92
3.1474048e-92
3.1473495e-92
3.1473455e-92
3.1473453e-92
3.1473453e-92
3.1473456e-92
3.1473485e-92
3.1473711e-92
3.1523897e-92
3.1479934e-92
3.1474077e-92
3.1473524e-92
3.1473484e-92
3.1473482e-92
3.1473482e-92
3.1473485e-92
3.1473514e-92
3.147374e-92
3.152394e-92
3.1480138e-92
3.1474301e-92
3.147375e-92
3.1473711e-92
3.1473708e-92
3.1473708e-92
3.1473711e-92
3.147374e-92
3.1473966e-92
7.2900996e-91
7.2802461e-91
7.2789327e-91
7.2788088e-91
7.2787998e-91
7.2787993e-91
7.2787993e-91
7.2787994e-91
7.2788006e-91
7.2788101e-91
7.2802461e-91
7.2704104e-91
7.2690993e-91
7.2689757e-91
7.2689667e-91
7.2689662e-91
7.2689662e-91
7.2689668e-91
7.2689725e-91
7.2690188e-91
7.2789327e-91
7.2690993e-91
7.2677886e-91
7.267665e-91
7.267656e-91
7.2676555e-91
7.2676555e-91
7.2676561e-91
7.2676627e-91
7.2677135e-91
7.2788088e-91
7.2689757e-91
7.267665e-91
7.2675414e-91
7.2675324e-91
7.2675319e-91
7.2675319e-91
7.2675325e-91
7.2675392e-91
7.2675903e-91
7.2787998e-91
7.2689667e-91
7.267656e-91
7.2675324e-91
7.2675235e-91
7.2675229e-91
7.267523e-91
7.2675236e-91
7.2675302e-91
7.2675814e-91
7.2787993e-91
7.2689662e-91
7.2676555e-91
7.2675319e-91
7.2675229e-91
7.2675224e-91
7.2675224e-91
7.2675231e-91
7.2675297e-91
7.2675809e-91
7.2787993e-91
7.2689662e-91
7.2676555e-91
7.2675319e-91
7.267523e-91
7.2675224e-91
7.2675225e-91
7.2675231e-91
7.2675297e-91
7.2675809e-91
7.2787994e-91
7.2689668e-91
7.2676561e-91
7.2675325e-91
7.2675236e-91
7.2675231e-91
7.2675231e-91
7.2675237e-91
7.2675303e-91
7.2675815e-91
7.2788006e-91
7.2689725e-91
7.2676627e-91
7.2675392e-91
7.2675302e-91
7.2675297e-91
7.2675297e-91
7.2675303e-91
7.267537e-91
7.2675882e-91
7.2788101e-91
7.2690188e-91
7.2677135e-91
7.2675903e-91
7.2675814e-91
7.2675809e-91
7.2675809e-91
7.2675815e-91
7.2675882e-91
7.2676394e-91
1.7308293e-89
1.7285656e-89
1.7282638e-89
1.7282353e-89
1.7282332e-89
1.7282331e-89
1.7282331e-89
1.7282331e-89
1.7282334e-89
1.7282356e-89
1.7285656e-89
1.7263059e-89
1.7260046e-89
1.7259762e-89
1.7259741e-89
1.725974e-89
1.725974e-89
1.7259741e-89
1.7259755e-89
1.7259862e-89
1.7282638e-89
1.7260046e-89
1.7257033e-89
1.7256749e-89
1.7256729e-89
1.7256728e-89
1.7256728e-89
1.7256729e-89
1.7256744e-89
1.7256863e-89
1.7282353e-89
1.7259762e-89
1.7256749e-89
1.7256465e-89
1.7256445e-89
1.7256443e-89
1.7256443e-89
1.7256445e-89
1.725646e-89
1.725658e-89
1.7282332e-89
1.7259741e-89
1.7256729e-89
1.7256445e-89
1.7256424e-89
1.7256423e-89
1.7256423e-89
1.7256424e-89
1.725644e-89
1.7256559e-89
1.7282331e-89
1.725974e-89
1.7256728e-89
1.7256443e-89
1.7256423e-89
1.7256422e-89
1.7256422e-89
1.7256423e-89
1.7256439e-89
1.7256558e-89
1.7282331e-89
1.725974e-89
1.7256728e-89
1.7256443e-89
1.7256423e-89
1.7256422e-89
1.7256422e-89
1.7256423e-89
1.7256439e-89
1.7256558e-89
1.7282331e-89
1.7259741e-89
1.7256729e-89
1.7256445e-89
1.7256424e-89
1.7256423e-89
1.7256423e-89
1.7256425e-89
1.725644e-89
1.7256559e-89
1.7282334e-89
1.7259755e-89
1.7256744e-89
1.725646e-89
1.725644e-89
1.7256439e-89
1.7256439e-89
1.725644e-89
1.7256456e-89
1.7256575e-89
1.7282356e-89
1.7259862e-89
1.7256863e-89
1.725658e-89
1.7256559e-89
1.7256558e-89
1.7256558e-89
1.7256559e-89
1.7256575e-89
1.7256694e-89
4.2247752e-88
4.2194319e-88
4.2187192e-88
4.218652e-88
4.2186471e-88
4.2186468e-88
4.2186468e-88
4.2186469e-88
4.2186476e-88
4.2186527e-88
4.2194319e-88
4.2140978e-88
4.2133863e-88
4.2133192e-88
4.2133144e-88
4.2133141e-88
4.2133141e-88
4.2133144e-88
4.2133176e-88
4.2133434e-88
4.2187192e-88
4.2133863e-88
4.212675e-88
4.2126079e-88
4.2126031e-88
4.2126028e-88
4.2126028e-88
4.2126031e-88
4.2126068e-88
4.2126351e-88
4.218652e-88
4.2133192e-88
4.2126079e-88
4.2125408e-88
4.212536e-88
4.2125357e-88
4.2125357e-88
4.2125361e-88
4.2125398e-88
4.2125683e-88
4.2186471e-88
4.2133144e-88
4.2126031e-88
4.212536e-88
4.2125311e-88
4.2125308e-88
4.2125309e-88
4.2125312e-88
4.2125349e-88
4.2125635e-88
4.2186468e-88
4.2133141e-88
4.2126028e-88
4.2125357e-88
4.2125308e-88
4.2125306e-88
4.2125306e-88
4.2125309e-88
4.2125346e-88
4.2125632e-88
4.2186468e-88
4.2133141e-88
4.2126028e-88
4.2125357e-88
4.2125309e-88
4.2125306e-88
4.2125306e-88
4.2125309e-88
4.2125347e-88
4.2125632e-88
4.2186469e-88
4.2133144e-88
4.2126031e-88
4.2125361e-88
4.2125312e-88
4.2125309e-88
4.2125309e-88
4.2125313e-88
4.212535e-88
4.2125636e-88
4.2186476e-88
4.2133176e-88
4.2126068e-88
4.2125398e-88
4.2125349e-88
4.2125346e-88
4.2125347e-88
4.212535e-88
4.2125387e-88
4.2125673e-88
4.2186527e-88
4.2133434e-88
4.2126351e-88
4.2125683e-88
4.2125635e-88
4.2125632e-88
4.2125632e-88
4.2125636e-88
4.2125673e-88
4.2125958e-88
1.0599411e-86
1.0586456e-86
1.0584727e-86
1.0584564e-86
1.0584552e-86
1.0584552e-86
1.0584552e-86
1.0584552e-86
1.0584554e-86
1.0584566e-86
1.0586456e-86
1.0573522e-86
1.0571796e-86
1.0571634e-86
1.0571622e-86
1.0571621e-86
1.0571621e-86
1.0571622e-86
1.057163e-86
1.0571693e-86
1.0584727e-86
1.0571796e-86
1.0570071e-86
1.0569908e-86
1.0569897e-86
1.0569896e-86
1.0569896e-86
1.0569897e-86
1.0569906e-86
1.0569976e-86
1.0584564e-86
1.0571634e-86
1.0569908e-86
1.0569746e-86
1.0569734e-86
1.0569733e-86
1.0569733e-86
1.0569734e-86
1.0569743e-86
1.0569814e-86
1.0584552e-86
1.0571622e-86
1.0569897e-86
1.0569734e-86
1.0569722e-86
1.0569721e-86
1.0569722e-86
1.0569722e-86
1.0569732e-86
1.0569802e-86
1.0584552e-86
1.0571621e-86
1.0569896e-86
1.0569733e-86
1.0569721e-86
1.0569721e-86
1.0569721e-86
1.0569722e-86
1.0569731e-86
1.0569801e-86
1.0584552e-86
1.0571621e-86
1.0569896e-86
1.0569733e-86
1.0569722e-86
1.0569721e-86
1.0569721e-86
1.0569722e-86
1.0569731e-86
1.0569801e-86
1.0584552e-86
1.0571622e-86
1.0569897e-86
1.0569734e-86
1.0569722e-86
1.0569722e-86
1.0569722e-86
1.0569723e-86
1.0569732e-86
1.0569802e-86
1.0584554e-86
1.057163e-86
1.0569906e-86
1.0569743e-86
1.0569732e-86
1.0569731e-86
1.0569731e-86
1.0569732e-86
1.0569741e-86
1.0569811e-86
1.0584566e-86
1.0571693e-86
1.0569976e-86
1.0569814e-86
1.0569802e-86
1.0569801e-86
1.0569801e-86
1.0569802e-86
1.0569811e-86
1.0569882e-86
2.7326448e-85
2.729419e-85
2.7289885e-85
2.7289479e-85
2.728945e-85
2.7289448e-85
2.7289448e-85
2.7289448e-85
2.7289452e-85
2.7289483e-85
2.729419e-85
2.7261986e-85
2.7257687e-85
2.7257282e-85
2.7257253e-85
2.7257251e-85
2.7257251e-85
2.7257253e-85
2.7257273e-85
2.7257433e-85
2.7289885e-85
2.7257687e-85
2.725339e-85
2.7252985e-85
2.7252956e-85
2.7252954e-85
2.7252954e-85
2.7252956e-85
2.7252979e-85
2.7253155e-85
2.7289479e-85
2.7257282e-85
2.7252985e-85
2.725258e-85
2.725255e-85
2.7252549e-85
2.7252549e-85
2.7252551e-85
2.7252574e-85
2.7252752e-85
2.728945e-85
2.7257253e-85
2.7252956e-85
2.725255e-85
2.7252521e-85
2.7252519e-85
2.7252519e-85
2.7252521e-85
2.7252545e-85
2.7252722e-85
2.7289448e-85
2.7257251e-85
2.7252954e-85
2.7252549e-85
2.7252519e-85
2.7252517e-85
2.7252518e-85
2.725252e-85
2.7252543e-85
2.7252721e-85
2.7289448e-85
2.7257251e-85
2.7252954e-85
2.7252549e-85
2.7252519e-85
2.7252518e-85
2.7252518e-85
2.725252e-85
2.7252543e-85
2.7252721e-85
2.7289448e-85
2.7257253e-85
2.7252956e-85
2.7252551e-85
2.7252521e-85
2.725252e-85
2.725252e-85
2.7252522e-85
2.7252545e-85
2.7252723e-85
2.7289452e-85
2.7257273e-85
2.7252979e-85
2.7252574e-85
2.7252545e-85
2.7252543e-85
2.7252543e-85
2.7252545e-85
2.7252569e-85
2.7252746e-85
2.7289483e-85
2.7257433e-85
2.7253155e-85
2.7252752e-85
2.7252722e-85
2.7252721e-85
2.7252721e-85
2.7252723e-85
2.7252746e-85
2.7252924e-85
7.2376336e-84
7.2293879e-84
7.2282872e-84
7.2281833e-84
7.2281758e-84
7.2281754e-84
7.2281753e-84
7.2281754e-84
7.2281765e-84
7.2281843e-84
7.2293879e-84
7.2211555e-84
7.2200564e-84
7.2199527e-84
7.2199452e-84
7.2199448e-84
7.2199448e-84
7.2199453e-84
7.2199505e-84
7.2199922e-84
7.2282872e-84
7.2200564e-84
7.2189576e-84
7.2188539e-84
7.2188464e-84
7.218846e-84
7.218846e-84
7.2188466e-84
7.2188526e-84
7.2188983e-84
7.2281833e-84
7.2199527e-84
7.2188539e-84
7.2187503e-84
7.2187428e-84
7.2187424e-84
7.2187424e-84
7.2187429e-84
7.218749e-84
7.2187951e-84
7.2281758e-84
7.2199452e-84
7.2188464e-84
7.2187428e-84
7.2187353e-84
7.2187348e-84
7.2187349e-84
7.2187354e-84
7.2187415e-84
7.2187877e-84
7.2281754e-84
7.2199448e-84
7.218846e-84
7.2187424e-84
7.2187348e-84
7.2187344e-84
7.2187344e-84
7.218735e-84
7.2187411e-84
7.2187872e-84
7.2281753e-84
7.2199448e-84
7.218846e-84
7.2187424e-84
7.2187349e-84
7.2187344e-84
7.2187344e-84
7.218735e-84
7.2187411e-84
7.2187872e-84
7.2281754e-84
7.2199453e-84
7.2188466e-84
7.2187429e-84
7.2187354e-84
7.218735e-84
7.218735e-84
7.2187356e-84
7.2187417e-84
7.2187878e-84
7.2281765e-84
7.2199505e-84
7.2188526e-84
7.218749e-84
7.2187415e-84
7.2187411e-84
7.2187411e-84
7.2187417e-84
7.2187477e-84
7.2187939e-84
7.2281843e-84
7.2199922e-84
7.2188983e-84
7.2187951e-84
7.2187877e-84
7.2187872e-84
7.2187872e-84
7.2187878e-84
7.2187939e-84
7.21884e-84
1.9688134e-82
1.9666502e-82
1.9663613e-82
1.9663341e-82
1.9663321e-82
1.966332e-82
1.966332e-82
1.966332e-82
1.9663323e-82
1.9663343e-82
1.9666502e-82
1.9644903e-82
1.9642019e-82
1.9641747e-82
1.9641727e-82
1.9641726e-82
1.9641726e-82
1.9641727e-82
1.9641741e-82
1.9641852e-82
1.9663613e-82
1.9642019e-82
1.9639135e-82
1.9638863e-82
1.9638843e-82
1.9638842e-82
1.9638842e-82
1.9638844e-82
1.963886e-82
1.9638982e-82
1.9663341e-82
1.9641747e-82
1.9638863e-82
1.9638591e-82
1.9638571e-82
1.963857e-82
1.963857e-82
1.9638572e-82
1.9638588e-82
1.9638711e-82
1.9663321e-82
1.9641727e-82
1.9638843e-82
1.9638571e-82
1.9638552e-82
1.963855e-82
1.963855e-82
1.9638552e-82
1.9638568e-82
1.9638691e-82
1.966332e-82
1.9641726e-82
1.9638842e-82
1.963857e-82
1.963855e-82
1.9638549e-82
1.9638549e-82
1.9638551e-82
1.9638567e-82
1.963869e-82
1.966332e-82
1.9641726e-82
1.9638842e-82
1.963857e-82
1.963855e-82
1.9638549e-82
1.9638549e-82
1.9638551e-82
1.9638567e-82
1.963869e-82
1.966332e-82
1.9641727e-82
1.9638844e-82
1.9638572e-82
1.9638552e-82
1.9638551e-82
1.9638551e-82
1.9638552e-82
1.9638569e-82
1.9638692e-82
1.9663323e-82
1.9641741e-82
1.963886e-82
1.9638588e-82
1.9638568e-82
1.9638567e-82
1.9638567e-82
1.9638569e-82
1.9638585e-82
1.9638708e-82
1.9663343e-82
1.9641852e-82
1.9638982e-82
1.9638711e-82
1.9638691e-82
1.963869e-82
1.963869e-82
1.9638692e-82
1.9638708e-82
1.9638831e-82
5.4989949e-81
5.493172e-81
5.4923942e-81
5.4923209e-81
5.4923155e-81
5.4923152e-81
5.4923152e-81
5.4923153e-81
5.4923161e-81
5.4923216e-81
5.493172e-81
5.487358e-81
5.4865813e-81
5.4865081e-81
5.4865028e-81
5.4865025e-81
5.4865025e-81
5.4865028e-81
5.4865067e-81
5.4865371e-81
5.4923942e-81
5.4865813e-81
5.4858049e-81
5.4857317e-81
5.4857264e-81
5.485726e-81
5.4857261e-81
5.4857265e-81
5.4857309e-81
5.4857643e-81
5.4923209e-81
5.4865081e-81
5.4857317e-81
5.4856584e-81
5.4856531e-81
5.4856528e-81
5.4856528e-81
5.4856532e-81
5.4856577e-81
5.4856914e-81
5.4923155e-81
5.4865028e-81
5.4857264e-81
5.4856531e-81
5.4856478e-81
5.4856475e-81
5.4856475e-81
5.4856479e-81
5.4856524e-81
5.4856861e-81
5.4923152e-81
5.4865025e-81
5.485726e-81
5.4856528e-81
5.4856475e-81
5.4856472e-81
5.4856472e-81
5.4856476e-81
5.4856521e-81
5.4856858e-81
5.4923152e-81
5.4865025e-81
5.4857261e-81
5.4856528e-81
5.4856475e-81
5.4856472e-81
5.4856472e-81
5.4856476e-81
5.4856521e-81
5.4856858e-81
5.4923153e-81
5.4865028e-81
5.4857265e-81
5.4856532e-81
5.4856479e-81
5.4856476e-81
5.4856476e-81
5.4856481e-81
5.4856525e-81
5.4856862e-81
5.4923161e-81
5.4865067e-81
5.4857309e-81
5.4856577e-81
5.4856524e-81
5.4856521e-81
5.4856521e-81
5.4856525e-81
5.4856569e-81
5.4856907e-81
5.4923216e-81
5.4865371e-81
5.4857643e-81
5.4856914e-81
5.4856861e-81
5.4856858e-81
5.4856858e-81
5.4856862e-81
5.4856907e-81
5.4857244e-81
1.5765308e-79
1.5749232e-79
1.5747084e-79
1.5746882e-79
1.5746867e-79
1.5746866e-79
1.5746866e-79
1.5746866e-79
1.5746869e-79
1.5746884e-79
1.5749232e-79
1.573318e-79
1.5731035e-79
1.5730833e-79
1.5730818e-79
1.5730817e-79
1.5730817e-79
1.5730818e-79
1.5730829e-79
1.5730915e-79
1.5747084e-79
1.5731035e-79
1.5728891e-79
1.5728689e-79
1.5728674e-79
1.5728673e-79
1.5728673e-79
1.5728674e-79
1.5728687e-79
1.5728781e-79
1.5746882e-79
1.5730833e-79
1.5728689e-79
1.5728486e-79
1.5728472e-79
1.5728471e-79
1.5728471e-79
1.5728472e-79
1.5728484e-79
1.5728579e-79
1.5746867e-79
1.5730818e-79
1.5728674e-79
1.5728472e-79
1.5728457e-79
1.5728456e-79
1.5728456e-79
1.5728457e-79
1.572847e-79
1.5728565e-79
1.5746866e-79
1.5730817e-79
1.5728673e-79
1.5728471e-79