/*--------------------------------*- C++ -*----------------------------------*\
| =========                 |                                                 |
| \\      /  F ield         | OpenFOAM: The Open Source CFD Toolbox           |
|  \\    /   O peration     | Version:  dev                                   |
|   \\  /    A nd           | Web:      www.OpenFOAM.org                      |
|    \\/     M anipulation  |                                                 |
\*---------------------------------------------------------------------------*/
FoamFile
{
    version     2.0;
    format      ascii;
    class       volScalarField;
    location    "65.995";
    object      A_0;
}
// * * * * * * * * * * * * * * * * * * * * * * * * * * * * * * * * * * * * * //

dimensions      [0 0 0 0 1 0 0];

internalField   nonuniform List<scalar> 
10000
(
1.063468e-27
1.0618943e-27
1.0611091e-27
1.0607216e-27
1.0605458e-27
1.060479e-27
1.0604724e-27
1.0605169e-27
1.0606397e-27
1.0609037e-27
1.0618943e-27
1.0603275e-27
1.0595448e-27
1.0591583e-27
1.0589831e-27
1.0589169e-27
1.0589116e-27
1.0589593e-27
1.0590913e-27
1.059382e-27
1.0611091e-27
1.0595448e-27
1.0587633e-27
1.0583776e-27
1.0582029e-27
1.0581373e-27
1.0581334e-27
1.0581843e-27
1.0583223e-27
1.058622e-27
1.0607216e-27
1.0591583e-27
1.0583776e-27
1.0579923e-27
1.057818e-27
1.0577529e-27
1.05775e-27
1.0578028e-27
1.0579439e-27
1.0582468e-27
1.0605458e-27
1.0589831e-27
1.0582029e-27
1.057818e-27
1.057644e-27
1.0575793e-27
1.057577e-27
1.0576307e-27
1.0577731e-27
1.0580772e-27
1.060479e-27
1.0589169e-27
1.0581373e-27
1.0577529e-27
1.0575793e-27
1.0575149e-27
1.0575129e-27
1.0575671e-27
1.0577101e-27
1.0580146e-27
1.0604724e-27
1.0589116e-27
1.0581334e-27
1.05775e-27
1.057577e-27
1.0575129e-27
1.0575111e-27
1.0575656e-27
1.0577088e-27
1.0580135e-27
1.0605169e-27
1.0589593e-27
1.0581843e-27
1.0578028e-27
1.0576307e-27
1.0575671e-27
1.0575656e-27
1.0576201e-27
1.0577635e-27
1.0580683e-27
1.0606397e-27
1.0590913e-27
1.0583223e-27
1.0579439e-27
1.0577731e-27
1.0577101e-27
1.0577088e-27
1.0577635e-27
1.057907e-27
1.0582121e-27
1.0609037e-27
1.059382e-27
1.058622e-27
1.0582468e-27
1.0580772e-27
1.0580146e-27
1.0580135e-27
1.0580683e-27
1.0582121e-27
1.0585181e-27
3.6522367e-27
3.6470338e-27
3.6443689e-27
3.6430509e-27
3.6424528e-27
3.6422251e-27
3.6422025e-27
3.6423531e-27
3.6427702e-27
3.6437001e-27
3.6470338e-27
3.6418536e-27
3.6391968e-27
3.6378822e-27
3.6372859e-27
3.6370603e-27
3.637042e-27
3.637204e-27
3.6376524e-27
3.6386745e-27
3.6443689e-27
3.6391968e-27
3.6365445e-27
3.6352324e-27
3.6346378e-27
3.6344145e-27
3.6344011e-27
3.6345736e-27
3.6350426e-27
3.6360956e-27
3.6430509e-27
3.6378822e-27
3.6352324e-27
3.6339219e-27
3.6333286e-27
3.633107e-27
3.6330971e-27
3.6332761e-27
3.6337556e-27
3.6348196e-27
3.6424528e-27
3.6372859e-27
3.6346378e-27
3.6333286e-27
3.6327363e-27
3.632516e-27
3.632508e-27
3.6326904e-27
3.6331745e-27
3.6342426e-27
3.6422251e-27
3.6370603e-27
3.6344145e-27
3.633107e-27
3.632516e-27
3.6322966e-27
3.6322897e-27
3.6324737e-27
3.6329597e-27
3.6340293e-27
3.6422025e-27
3.637042e-27
3.6344011e-27
3.6330971e-27
3.632508e-27
3.6322897e-27
3.6322836e-27
3.6324684e-27
3.6329552e-27
3.6340253e-27
3.6423531e-27
3.637204e-27
3.6345736e-27
3.6332761e-27
3.6326904e-27
3.6324737e-27
3.6324684e-27
3.6326536e-27
3.6331409e-27
3.6342115e-27
3.6427702e-27
3.6376524e-27
3.6350426e-27
3.6337556e-27
3.6331745e-27
3.6329597e-27
3.6329552e-27
3.6331409e-27
3.6336288e-27
3.6347004e-27
3.6437001e-27
3.6386745e-27
3.6360956e-27
3.6348196e-27
3.6342426e-27
3.6340293e-27
3.6340253e-27
3.6342115e-27
3.6347004e-27
3.635775e-27
7.8722496e-27
7.8613966e-27
7.8557672e-27
7.8529758e-27
7.8517073e-27
7.851224e-27
7.851175e-27
7.8514917e-27
7.8523698e-27
7.8543875e-27
7.8613966e-27
7.8505902e-27
7.8449777e-27
7.8421933e-27
7.8409288e-27
7.8404497e-27
7.8404102e-27
7.8407512e-27
7.8416965e-27
7.8439126e-27
7.8557672e-27
7.8449777e-27
7.8393748e-27
7.8365955e-27
7.8353345e-27
7.8348605e-27
7.8348313e-27
7.8351949e-27
7.8361845e-27
7.8384667e-27
7.8529758e-27
7.8421933e-27
7.8365955e-27
7.8338195e-27
7.8325613e-27
7.8320911e-27
7.8320693e-27
7.832447e-27
7.8334589e-27
7.8357648e-27
7.8517073e-27
7.8409288e-27
7.8353345e-27
7.8325613e-27
7.8313053e-27
7.8308376e-27
7.8308201e-27
7.831205e-27
7.8322269e-27
7.8345415e-27
7.851224e-27
7.8404497e-27
7.8348605e-27
7.8320911e-27
7.8308376e-27
7.830372e-27
7.8303569e-27
7.8307451e-27
7.8317711e-27
7.8340889e-27
7.851175e-27
7.8404102e-27
7.8348313e-27
7.8320693e-27
7.8308201e-27
7.8303569e-27
7.8303434e-27
7.8307333e-27
7.831761e-27
7.83408e-27
7.8514917e-27
7.8407512e-27
7.8351949e-27
7.832447e-27
7.831205e-27
7.8307451e-27
7.8307333e-27
7.8311242e-27
7.832153e-27
7.8344729e-27
7.8523698e-27
7.8416965e-27
7.8361845e-27
7.8334589e-27
7.8322269e-27
7.8317711e-27
7.831761e-27
7.832153e-27
7.8331829e-27
7.835505e-27
7.8543875e-27
7.8439126e-27
7.8384667e-27
7.8357648e-27
7.8345415e-27
7.8340889e-27
7.83408e-27
7.8344729e-27
7.835505e-27
7.837834e-27
1.57111e-26
1.5690132e-26
1.5679176e-26
1.5673728e-26
1.5671249e-26
1.5670303e-26
1.5670205e-26
1.5670817e-26
1.5672513e-26
1.5676437e-26
1.5690132e-26
1.5669254e-26
1.565833e-26
1.5652896e-26
1.5650424e-26
1.5649487e-26
1.5649407e-26
1.5650068e-26
1.5651897e-26
1.5656215e-26
1.5679176e-26
1.565833e-26
1.5647424e-26
1.5642e-26
1.5639535e-26
1.5638608e-26
1.5638549e-26
1.5639254e-26
1.5641171e-26
1.5645621e-26
1.5673728e-26
1.5652896e-26
1.5642e-26
1.5636582e-26
1.5634123e-26
1.5633203e-26
1.5633159e-26
1.5633892e-26
1.5635853e-26
1.5640349e-26
1.5671249e-26
1.5650424e-26
1.5639535e-26
1.5634123e-26
1.5631668e-26
1.5630753e-26
1.5630717e-26
1.5631465e-26
1.5633445e-26
1.5637959e-26
1.5670303e-26
1.5649487e-26
1.5638608e-26
1.5633203e-26
1.5630753e-26
1.5629842e-26
1.5629811e-26
1.5630565e-26
1.5632554e-26
1.5637074e-26
1.5670205e-26
1.5649407e-26
1.5638549e-26
1.5633159e-26
1.5630717e-26
1.5629811e-26
1.5629783e-26
1.5630541e-26
1.5632533e-26
1.5637056e-26
1.5670817e-26
1.5650068e-26
1.5639254e-26
1.5633892e-26
1.5631465e-26
1.5630565e-26
1.5630541e-26
1.56313e-26
1.5633294e-26
1.5637819e-26
1.5672513e-26
1.5651897e-26
1.5641171e-26
1.5635853e-26
1.5633445e-26
1.5632554e-26
1.5632533e-26
1.5633294e-26
1.5635291e-26
1.5639819e-26
1.5676437e-26
1.5656215e-26
1.5645621e-26
1.5640349e-26
1.5637959e-26
1.5637074e-26
1.5637056e-26
1.5637819e-26
1.5639819e-26
1.5644361e-26
3.1021548e-26
3.0981484e-26
3.0960439e-26
3.0949948e-26
3.0945166e-26
3.0943339e-26
3.0943145e-26
3.0944311e-26
3.0947532e-26
3.0954963e-26
3.0981484e-26
3.0941589e-26
3.0920605e-26
3.0910139e-26
3.0905371e-26
3.0903561e-26
3.0903404e-26
3.0904665e-26
3.0908147e-26
3.0916354e-26
3.0960439e-26
3.0920605e-26
3.0899656e-26
3.0889209e-26
3.0884455e-26
3.0882663e-26
3.0882547e-26
3.0883895e-26
3.0887549e-26
3.0896014e-26
3.0949948e-26
3.0910139e-26
3.0889209e-26
3.0878774e-26
3.0874031e-26
3.0872254e-26
3.0872166e-26
3.0873569e-26
3.087731e-26
3.0885867e-26
3.0945166e-26
3.0905371e-26
3.0884455e-26
3.0874031e-26
3.0869296e-26
3.0867529e-26
3.0867457e-26
3.0868888e-26
3.0872668e-26
3.0881259e-26
3.0943339e-26
3.0903561e-26
3.0882663e-26
3.0872254e-26
3.0867529e-26
3.086577e-26
3.0865707e-26
3.0867151e-26
3.0870947e-26
3.087955e-26
3.0943145e-26
3.0903404e-26
3.0882547e-26
3.0872166e-26
3.0867457e-26
3.0865707e-26
3.0865651e-26
3.0867101e-26
3.0870904e-26
3.0879512e-26
3.0944311e-26
3.0904665e-26
3.0883895e-26
3.0873569e-26
3.0868888e-26
3.0867151e-26
3.0867101e-26
3.0868556e-26
3.0872362e-26
3.0880974e-26
3.0947532e-26
3.0908147e-26
3.0887549e-26
3.087731e-26
3.0872668e-26
3.0870947e-26
3.0870904e-26
3.0872362e-26
3.0876173e-26
3.0884792e-26
3.0954963e-26
3.0916354e-26
3.0896014e-26
3.0885867e-26
3.0881259e-26
3.087955e-26
3.0879512e-26
3.0880974e-26
3.0884792e-26
3.0893437e-26
6.1602351e-26
6.1525391e-26
6.1484787e-26
6.1464493e-26
6.1455229e-26
6.1451683e-26
6.14513e-26
6.145353e-26
6.1459665e-26
6.1473728e-26
6.1525391e-26
6.144875e-26
6.1408262e-26
6.1388017e-26
6.1378781e-26
6.1375268e-26
6.1374956e-26
6.1377373e-26
6.1384025e-26
6.139962e-26
6.1484787e-26
6.1408262e-26
6.1367842e-26
6.1347633e-26
6.1338423e-26
6.1334947e-26
6.1334714e-26
6.1337303e-26
6.1344295e-26
6.1360399e-26
6.1464493e-26
6.1388017e-26
6.1347633e-26
6.1327448e-26
6.1318258e-26
6.1314812e-26
6.1314635e-26
6.1317331e-26
6.1324494e-26
6.1340779e-26
6.1455229e-26
6.1378781e-26
6.1338423e-26
6.1318258e-26
6.1309084e-26
6.1305657e-26
6.1305513e-26
6.1308265e-26
6.1315503e-26
6.1331855e-26
6.1451683e-26
6.1375268e-26
6.1334947e-26
6.1314812e-26
6.1305657e-26
6.1302246e-26
6.1302119e-26
6.1304897e-26
6.1312167e-26
6.1328543e-26
6.14513e-26
6.1374956e-26
6.1334714e-26
6.1314635e-26
6.1305513e-26
6.1302119e-26
6.1302006e-26
6.1304795e-26
6.1312078e-26
6.1328465e-26
6.145353e-26
6.1377373e-26
6.1337303e-26
6.1317331e-26
6.1308265e-26
6.1304897e-26
6.1304795e-26
6.1307593e-26
6.1314884e-26
6.1331277e-26
6.1459665e-26
6.1384025e-26
6.1344295e-26
6.1324494e-26
6.1315503e-26
6.1312167e-26
6.1312078e-26
6.1314884e-26
6.1322183e-26
6.133859e-26
6.1473728e-26
6.139962e-26
6.1360399e-26
6.1340779e-26
6.1331855e-26
6.1328543e-26
6.1328465e-26
6.1331277e-26
6.133859e-26
6.1355046e-26
1.2356509e-25
1.2341582e-25
1.2333675e-25
1.2329713e-25
1.2327902e-25
1.2327207e-25
1.2327131e-25
1.2327561e-25
1.232874e-25
1.2331422e-25
1.2341582e-25
1.2326717e-25
1.2318832e-25
1.2314879e-25
1.2313073e-25
1.2312385e-25
1.2312323e-25
1.2312791e-25
1.2314073e-25
1.231706e-25
1.2333675e-25
1.2318832e-25
1.231096e-25
1.2307014e-25
1.2305213e-25
1.2304533e-25
1.2304486e-25
1.2304988e-25
1.2306338e-25
1.2309426e-25
1.2329713e-25
1.2314879e-25
1.2307014e-25
1.2303073e-25
1.2301276e-25
1.2300602e-25
1.2300566e-25
1.2301089e-25
1.2302473e-25
1.2305597e-25
1.2327902e-25
1.2313073e-25
1.2305213e-25
1.2301276e-25
1.2299483e-25
1.2298812e-25
1.2298783e-25
1.2299317e-25
1.2300716e-25
1.2303853e-25
1.2327207e-25
1.2312385e-25
1.2304533e-25
1.2300602e-25
1.2298812e-25
1.2298144e-25
1.2298118e-25
1.2298658e-25
1.2300063e-25
1.2303205e-25
1.2327131e-25
1.2312323e-25
1.2304486e-25
1.2300566e-25
1.2298783e-25
1.2298118e-25
1.2298095e-25
1.2298637e-25
1.2300045e-25
1.2303189e-25
1.2327561e-25
1.2312791e-25
1.2304988e-25
1.2301089e-25
1.2299317e-25
1.2298658e-25
1.2298637e-25
1.229918e-25
1.2300589e-25
1.2303735e-25
1.232874e-25
1.2314073e-25
1.2306338e-25
1.2302473e-25
1.2300716e-25
1.2300063e-25
1.2300045e-25
1.2300589e-25
1.2302e-25
1.2305149e-25
1.2331422e-25
1.231706e-25
1.2309426e-25
1.2305597e-25
1.2303853e-25
1.2303205e-25
1.2303189e-25
1.2303735e-25
1.2305149e-25
1.2308306e-25
2.5065285e-25
2.5036019e-25
2.5020455e-25
2.5012637e-25
2.5009057e-25
2.5007683e-25
2.5007528e-25
2.5008368e-25
2.501066e-25
2.5015824e-25
2.5036019e-25
2.5006873e-25
2.4991352e-25
2.4983552e-25
2.4979983e-25
2.4978622e-25
2.4978495e-25
2.497941e-25
2.4981909e-25
2.4987689e-25
2.5020455e-25
2.4991352e-25
2.4975856e-25
2.496807e-25
2.4964511e-25
2.4963165e-25
2.496307e-25
2.4964053e-25
2.4966688e-25
2.4972672e-25
2.5012637e-25
2.4983552e-25
2.496807e-25
2.4960294e-25
2.4956742e-25
2.4955407e-25
2.4955335e-25
2.4956361e-25
2.4959064e-25
2.4965121e-25
2.5009057e-25
2.4979983e-25
2.4964511e-25
2.4956742e-25
2.4953197e-25
2.495187e-25
2.4951811e-25
2.4952859e-25
2.4955592e-25
2.4961676e-25
2.5007683e-25
2.4978622e-25
2.4963165e-25
2.4955407e-25
2.495187e-25
2.4950549e-25
2.4950497e-25
2.4951555e-25
2.4954301e-25
2.4960394e-25
2.5007528e-25
2.4978495e-25
2.496307e-25
2.4955335e-25
2.4951811e-25
2.4950497e-25
2.4950449e-25
2.4951513e-25
2.4954264e-25
2.4960361e-25
2.5008368e-25
2.497941e-25
2.4964053e-25
2.4956361e-25
2.4952859e-25
2.4951555e-25
2.4951513e-25
2.4952579e-25
2.4955333e-25
2.4961433e-25
2.501066e-25
2.4981909e-25
2.4966688e-25
2.4959064e-25
2.4955592e-25
2.4954301e-25
2.4954264e-25
2.4955333e-25
2.495809e-25
2.4964195e-25
2.5015824e-25
2.4987689e-25
2.4972672e-25
2.4965121e-25
2.4961676e-25
2.4960394e-25
2.4960361e-25
2.4961433e-25
2.4964195e-25
2.4970318e-25
5.1437586e-25
5.1379564e-25
5.1348586e-25
5.1332989e-25
5.1325836e-25
5.1323087e-25
5.1322771e-25
5.1324429e-25
5.1328931e-25
5.1338988e-25
5.1379564e-25
5.1321777e-25
5.1290884e-25
5.1275323e-25
5.126819e-25
5.1265467e-25
5.1265209e-25
5.1267018e-25
5.1271942e-25
5.1283254e-25
5.1348586e-25
5.1290884e-25
5.126004e-25
5.1244507e-25
5.1237394e-25
5.1234701e-25
5.1234507e-25
5.1236456e-25
5.1241656e-25
5.1253384e-25
5.1332989e-25
5.1275323e-25
5.1244507e-25
5.1228991e-25
5.1221895e-25
5.1219225e-25
5.1219076e-25
5.1221112e-25
5.1226451e-25
5.1238327e-25
5.1325836e-25
5.126819e-25
5.1237394e-25
5.1221895e-25
5.1214811e-25
5.1212157e-25
5.1212035e-25
5.1214116e-25
5.1219516e-25
5.1231446e-25
5.1323087e-25
5.1265467e-25
5.1234701e-25
5.1219225e-25
5.1212157e-25
5.1209515e-25
5.1209407e-25
5.1211509e-25
5.1216935e-25
5.1228885e-25
5.1322771e-25
5.1265209e-25
5.1234507e-25
5.1219076e-25
5.1212035e-25
5.1209407e-25
5.120931e-25
5.1211421e-25
5.1216858e-25
5.1228816e-25
5.1324429e-25
5.1267018e-25
5.1236456e-25
5.1221112e-25
5.1214116e-25
5.1211509e-25
5.1211421e-25
5.121354e-25
5.1218982e-25
5.1230945e-25
5.1328931e-25
5.1271942e-25
5.1241656e-25
5.1226451e-25
5.1219516e-25
5.1216935e-25
5.1216858e-25
5.1218982e-25
5.1224431e-25
5.1236404e-25
5.1338988e-25
5.1283254e-25
5.1253384e-25
5.1238327e-25
5.1231446e-25
5.1228885e-25
5.1228816e-25
5.1230945e-25
5.1236404e-25
5.1248411e-25
1.0680168e-24
1.0668534e-24
1.0662299e-24
1.0659153e-24
1.0657707e-24
1.0657151e-24
1.0657086e-24
1.0657417e-24
1.0658312e-24
1.0660293e-24
1.0668534e-24
1.0656947e-24
1.0650729e-24
1.0647589e-24
1.0646148e-24
1.0645597e-24
1.0645544e-24
1.0645906e-24
1.0646888e-24
1.0649127e-24
1.0662299e-24
1.0650729e-24
1.0644521e-24
1.0641387e-24
1.0639949e-24
1.0639405e-24
1.0639365e-24
1.0639756e-24
1.0640794e-24
1.0643119e-24
1.0659153e-24
1.0647589e-24
1.0641387e-24
1.0638256e-24
1.0636822e-24
1.0636282e-24
1.0636251e-24
1.063666e-24
1.0637727e-24
1.0640083e-24
1.0657707e-24
1.0646148e-24
1.0639949e-24
1.0636822e-24
1.0635391e-24
1.0634854e-24
1.0634829e-24
1.0635247e-24
1.0636326e-24
1.0638693e-24
1.0657151e-24
1.0645597e-24
1.0639405e-24
1.0636282e-24
1.0634854e-24
1.063432e-24
1.0634298e-24
1.063472e-24
1.0635805e-24
1.0638175e-24
1.0657086e-24
1.0645544e-24
1.0639365e-24
1.0636251e-24
1.0634829e-24
1.0634298e-24
1.0634277e-24
1.0634702e-24
1.0635789e-24
1.0638161e-24
1.0657417e-24
1.0645906e-24
1.0639756e-24
1.063666e-24
1.0635247e-24
1.063472e-24
1.0634702e-24
1.0635127e-24
1.0636215e-24
1.0638589e-24
1.0658312e-24
1.0646888e-24
1.0640794e-24
1.0637727e-24
1.0636326e-24
1.0635805e-24
1.0635789e-24
1.0636215e-24
1.0637305e-24
1.063968e-24
1.0660293e-24
1.0649127e-24
1.0643119e-24
1.0640083e-24
1.0638693e-24
1.0638175e-24
1.0638161e-24
1.0638589e-24
1.063968e-24
1.0642062e-24
2.2438714e-24
2.2415121e-24
2.2402429e-24
2.2396009e-24
2.2393055e-24
2.2391917e-24
2.2391782e-24
2.239245e-24
2.2394249e-24
2.2398196e-24
2.2415121e-24
2.2391622e-24
2.2378964e-24
2.2372558e-24
2.2369613e-24
2.2368486e-24
2.2368375e-24
2.2369108e-24
2.2371088e-24
2.2375573e-24
2.2402429e-24
2.2378964e-24
2.2366326e-24
2.235993e-24
2.2356994e-24
2.2355879e-24
2.2355796e-24
2.2356589e-24
2.2358687e-24
2.2363351e-24
2.2396009e-24
2.2372558e-24
2.235993e-24
2.2353543e-24
2.2350613e-24
2.2349508e-24
2.2349444e-24
2.2350275e-24
2.2352432e-24
2.2357159e-24
2.2393055e-24
2.2369613e-24
2.2356994e-24
2.2350613e-24
2.2347688e-24
2.234659e-24
2.2346538e-24
2.2347387e-24
2.2349571e-24
2.2354321e-24
2.2391917e-24
2.2368486e-24
2.2355879e-24
2.2349508e-24
2.234659e-24
2.2345498e-24
2.2345451e-24
2.234631e-24
2.2348504e-24
2.2353263e-24
2.2391782e-24
2.2368375e-24
2.2355796e-24
2.2349444e-24
2.2346538e-24
2.2345451e-24
2.2345409e-24
2.2346272e-24
2.2348471e-24
2.2353233e-24
2.239245e-24
2.2369108e-24
2.2356589e-24
2.2350275e-24
2.2347387e-24
2.234631e-24
2.2346272e-24
2.2347137e-24
2.2349338e-24
2.2354103e-24
2.2394249e-24
2.2371088e-24
2.2358687e-24
2.2352432e-24
2.2349571e-24
2.2348504e-24
2.2348471e-24
2.2349338e-24
2.2351542e-24
2.235631e-24
2.2398196e-24
2.2375573e-24
2.2363351e-24
2.2357159e-24
2.2354321e-24
2.2353263e-24
2.2353233e-24
2.2354103e-24
2.235631e-24
2.2361092e-24
4.7705025e-24
4.7656633e-24
4.7630503e-24
4.7617255e-24
4.7611151e-24
4.7608797e-24
4.7608513e-24
4.7609879e-24
4.7613538e-24
4.7621491e-24
4.7656633e-24
4.7608432e-24
4.758237e-24
4.756915e-24
4.7563064e-24
4.7560732e-24
4.75605e-24
4.7562003e-24
4.7566043e-24
4.7575132e-24
4.7630503e-24
4.758237e-24
4.755635e-24
4.7543153e-24
4.7537084e-24
4.7534778e-24
4.7534604e-24
4.7536232e-24
4.754052e-24
4.7549985e-24
4.7617255e-24
4.756915e-24
4.7543153e-24
4.7529971e-24
4.7523916e-24
4.7521631e-24
4.7521497e-24
4.7523203e-24
4.7527617e-24
4.7537215e-24
4.7611151e-24
4.7563064e-24
4.7537084e-24
4.7523916e-24
4.7517872e-24
4.7515601e-24
4.7515491e-24
4.7517237e-24
4.7521706e-24
4.7531354e-24
4.7608797e-24
4.7560732e-24
4.7534778e-24
4.7521631e-24
4.7515601e-24
4.7513342e-24
4.7513245e-24
4.7515009e-24
4.7519501e-24
4.7529167e-24
4.7608513e-24
4.75605e-24
4.7534604e-24
4.7521497e-24
4.7515491e-24
4.7513245e-24
4.7513156e-24
4.751493e-24
4.7519431e-24
4.7529104e-24
4.7609879e-24
4.7562003e-24
4.7536232e-24
4.7523203e-24
4.7517237e-24
4.7515009e-24
4.751493e-24
4.7516709e-24
4.7521216e-24
4.7530893e-24
4.7613538e-24
4.7566043e-24
4.754052e-24
4.7527617e-24
4.7521706e-24
4.7519501e-24
4.7519431e-24
4.7521216e-24
4.7525727e-24
4.7535412e-24
4.7621491e-24
4.7575132e-24
4.7549985e-24
4.7537215e-24
4.7531354e-24
4.7529167e-24
4.7529104e-24
4.7530893e-24
4.7535412e-24
4.7545123e-24
1.0263505e-23
1.0253465e-23
1.0248024e-23
1.0245259e-23
1.0243984e-23
1.0243491e-23
1.0243431e-23
1.0243713e-23
1.0244466e-23
1.0246088e-23
1.0253465e-23
1.0243465e-23
1.0238038e-23
1.0235279e-23
1.0234007e-23
1.0233519e-23
1.023347e-23
1.0233781e-23
1.0234615e-23
1.0236479e-23
1.0248024e-23
1.0238038e-23
1.0232619e-23
1.0229865e-23
1.0228596e-23
1.0228114e-23
1.0228077e-23
1.0228415e-23
1.0229302e-23
1.0231246e-23
1.0245259e-23
1.0235279e-23
1.0229865e-23
1.0227114e-23
1.0225848e-23
1.022537e-23
1.0225342e-23
1.0225697e-23
1.022661e-23
1.0228583e-23
1.0243984e-23
1.0234007e-23
1.0228596e-23
1.0225848e-23
1.0224585e-23
1.022411e-23
1.0224087e-23
1.022445e-23
1.0225375e-23
1.0227358e-23
1.0243491e-23
1.0233519e-23
1.0228114e-23
1.022537e-23
1.022411e-23
1.0223638e-23
1.0223617e-23
1.0223984e-23
1.0224915e-23
1.0226901e-23
1.0243431e-23
1.023347e-23
1.0228077e-23
1.0225342e-23
1.0224087e-23
1.0223617e-23
1.0223598e-23
1.0223967e-23
1.02249e-23
1.0226888e-23
1.0243713e-23
1.0233781e-23
1.0228415e-23
1.0225697e-23
1.022445e-23
1.0223984e-23
1.0223967e-23
1.0224338e-23
1.0225271e-23
1.022726e-23
1.0244466e-23
1.0234615e-23
1.0229302e-23
1.022661e-23
1.0225375e-23
1.0224915e-23
1.02249e-23
1.0225271e-23
1.0226206e-23
1.0228196e-23
1.0246088e-23
1.0236479e-23
1.0231246e-23
1.0228583e-23
1.0227358e-23
1.0226901e-23
1.0226888e-23
1.022726e-23
1.0228196e-23
1.0230192e-23
2.2346404e-23
2.2325335e-23
2.2313876e-23
2.2308039e-23
2.2305342e-23
2.23043e-23
2.2304171e-23
2.2304762e-23
2.230633e-23
2.2309675e-23
2.2325335e-23
2.2304348e-23
2.2292917e-23
2.2287093e-23
2.2284404e-23
2.2283372e-23
2.2283267e-23
2.228392e-23
2.2285663e-23
2.228953e-23
2.2313876e-23
2.2292917e-23
2.2281505e-23
2.227569e-23
2.2273009e-23
2.2271989e-23
2.227191e-23
2.2272621e-23
2.2274478e-23
2.2278517e-23
2.2308039e-23
2.2287093e-23
2.227569e-23
2.2269883e-23
2.2267208e-23
2.2266197e-23
2.2266136e-23
2.2266883e-23
2.2268797e-23
2.2272898e-23
2.2305342e-23
2.2284404e-23
2.2273009e-23
2.2267208e-23
2.2264538e-23
2.2263533e-23
2.2263484e-23
2.2264249e-23
2.2266188e-23
2.2270311e-23
2.23043e-23
2.2283372e-23
2.2271989e-23
2.2266197e-23
2.2263533e-23
2.2262534e-23
2.226249e-23
2.2263264e-23
2.2265213e-23
2.2269345e-23
2.2304171e-23
2.2283267e-23
2.227191e-23
2.2266136e-23
2.2263484e-23
2.226249e-23
2.226245e-23
2.2263228e-23
2.2265182e-23
2.2269317e-23
2.2304762e-23
2.228392e-23
2.2272621e-23
2.2266883e-23
2.2264249e-23
2.2263264e-23
2.2263228e-23
2.2264008e-23
2.2265964e-23
2.2270101e-23
2.230633e-23
2.2285663e-23
2.2274478e-23
2.2268797e-23
2.2266188e-23
2.2265213e-23
2.2265182e-23
2.2265964e-23
2.2267923e-23
2.2272063e-23
2.2309675e-23
2.228953e-23
2.2278517e-23
2.2272898e-23
2.2270311e-23
2.2269345e-23
2.2269317e-23
2.2270101e-23
2.2272063e-23
2.2276214e-23
4.9239172e-23
4.919445e-23
4.9170039e-23
4.9157578e-23
4.9151813e-23
4.9149582e-23
4.9149303e-23
4.9150554e-23
4.9153858e-23
4.9160839e-23
4.919445e-23
4.9149899e-23
4.912555e-23
4.9113115e-23
4.9107366e-23
4.9105157e-23
4.910493e-23
4.9106317e-23
4.9110001e-23
4.9118121e-23
4.9170039e-23
4.912555e-23
4.9101237e-23
4.9088823e-23
4.9083091e-23
4.9080908e-23
4.9080737e-23
4.908225e-23
4.9086183e-23
4.9094678e-23
4.9157578e-23
4.9113115e-23
4.9088823e-23
4.9076424e-23
4.9070705e-23
4.9068542e-23
4.9068412e-23
4.9070003e-23
4.9074059e-23
4.9082689e-23
4.9151813e-23
4.9107366e-23
4.9083091e-23
4.9070705e-23
4.9064997e-23
4.9062849e-23
4.9062742e-23
4.9064372e-23
4.9068484e-23
4.9077162e-23
4.9149582e-23
4.9105157e-23
4.9080908e-23
4.9068542e-23
4.9062849e-23
4.9060711e-23
4.9060617e-23
4.9062265e-23
4.90664e-23
4.9075096e-23
4.9149303e-23
4.910493e-23
4.9080737e-23
4.9068412e-23
4.9062742e-23
4.9060617e-23
4.9060532e-23
4.9062189e-23
4.9066333e-23
4.9075036e-23
4.9150554e-23
4.9106317e-23
4.908225e-23
4.9070003e-23
4.9064372e-23
4.9062265e-23
4.9062189e-23
4.9063852e-23
4.9068001e-23
4.9076708e-23
4.9153858e-23
4.9110001e-23
4.9086183e-23
4.9074059e-23
4.9068484e-23
4.90664e-23
4.9066333e-23
4.9068001e-23
4.9072155e-23
4.9080869e-23
4.9160839e-23
4.9118121e-23
4.9094678e-23
4.9082689e-23
4.9077162e-23
4.9075096e-23
4.9075036e-23
4.9076708e-23
4.9080869e-23
4.9089606e-23
1.098023e-22
1.0970628e-22
1.0965369e-22
1.0962678e-22
1.0961431e-22
1.0960949e-22
1.0960888e-22
1.0961156e-22
1.096186e-22
1.0963334e-22
1.0970628e-22
1.0961062e-22
1.0955816e-22
1.0953131e-22
1.0951888e-22
1.095141e-22
1.095136e-22
1.0951658e-22
1.0952446e-22
1.0954172e-22
1.0965369e-22
1.0955816e-22
1.0950577e-22
1.0947897e-22
1.0946657e-22
1.0946185e-22
1.0946148e-22
1.0946473e-22
1.0947316e-22
1.0949124e-22
1.0962678e-22
1.0953131e-22
1.0947897e-22
1.0945219e-22
1.0943983e-22
1.0943515e-22
1.0943487e-22
1.0943829e-22
1.09447e-22
1.0946537e-22
1.0961431e-22
1.0951888e-22
1.0946657e-22
1.0943983e-22
1.0942749e-22
1.0942284e-22
1.0942261e-22
1.0942612e-22
1.0943495e-22
1.0945343e-22
1.0960949e-22
1.095141e-22
1.0946185e-22
1.0943515e-22
1.0942284e-22
1.0941821e-22
1.0941801e-22
1.0942157e-22
1.0943044e-22
1.0944896e-22
1.0960888e-22
1.095136e-22
1.0946148e-22
1.0943487e-22
1.0942261e-22
1.0941801e-22
1.0941783e-22
1.094214e-22
1.094303e-22
1.0944884e-22
1.0961156e-22
1.0951658e-22
1.0946473e-22
1.0943829e-22
1.0942612e-22
1.0942157e-22
1.094214e-22
1.0942499e-22
1.0943389e-22
1.0945244e-22
1.096186e-22
1.0952446e-22
1.0947316e-22
1.09447e-22
1.0943495e-22
1.0943044e-22
1.094303e-22
1.0943389e-22
1.0944281e-22
1.0946137e-22
1.0963334e-22
1.0954172e-22
1.0949124e-22
1.0946537e-22
1.0945343e-22
1.0944896e-22
1.0944884e-22
1.0945244e-22
1.0946137e-22
1.0947998e-22
2.4780587e-22
2.4759734e-22
2.4748272e-22
2.4742396e-22
2.4739671e-22
2.4738614e-22
2.4738479e-22
2.473906e-22
2.474058e-22
2.4743729e-22
2.4759734e-22
2.4738959e-22
2.4727526e-22
2.4721661e-22
2.4718943e-22
2.4717897e-22
2.4717788e-22
2.4718436e-22
2.4720142e-22
2.4723852e-22
2.4748272e-22
2.4727526e-22
2.4716109e-22
2.4710255e-22
2.4707544e-22
2.4706511e-22
2.4706429e-22
2.4707139e-22
2.4708967e-22
2.4712861e-22
2.4742396e-22
2.4721661e-22
2.4710255e-22
2.4704407e-22
2.4701703e-22
2.470068e-22
2.4700618e-22
2.4701365e-22
2.4703254e-22
2.4707215e-22
2.4739671e-22
2.4718943e-22
2.4707544e-22
2.4701703e-22
2.4699005e-22
2.4697988e-22
2.4697937e-22
2.4698704e-22
2.4700621e-22
2.4704605e-22
2.4738614e-22
2.4717897e-22
2.4706511e-22
2.470068e-22
2.4697988e-22
2.4696976e-22
2.4696932e-22
2.4697708e-22
2.4699635e-22
2.4703629e-22
2.4738479e-22
2.4717788e-22
2.4706429e-22
2.4700618e-22
2.4697937e-22
2.4696932e-22
2.4696892e-22
2.4697673e-22
2.4699605e-22
2.4703601e-22
2.473906e-22
2.4718436e-22
2.4707139e-22
2.4701365e-22
2.4698704e-22
2.4697708e-22
2.4697673e-22
2.4698456e-22
2.470039e-22
2.4704388e-22
2.474058e-22
2.4720142e-22
2.4708967e-22
2.4703254e-22
2.4700621e-22
2.4699635e-22
2.4699605e-22
2.470039e-22
2.4702327e-22
2.4706328e-22
2.4743729e-22
2.4723852e-22
2.4712861e-22
2.4707215e-22
2.4704605e-22
2.4703629e-22
2.4703601e-22
2.4704388e-22
2.4706328e-22
2.471034e-22
5.6598916e-22
5.655311e-22
5.6527848e-22
5.6514869e-22
5.6508841e-22
5.6506502e-22
5.6506201e-22
5.6507476e-22
5.6510793e-22
5.65176e-22
5.655311e-22
5.6507474e-22
5.6482273e-22
5.6469321e-22
5.6463309e-22
5.6460994e-22
5.646075e-22
5.6462176e-22
5.6465914e-22
5.6473987e-22
5.6527848e-22
5.6482273e-22
5.645711e-22
5.6444179e-22
5.6438184e-22
5.6435897e-22
5.6435716e-22
5.6437281e-22
5.6441293e-22
5.6449782e-22
5.6514869e-22
5.6469321e-22
5.6444179e-22
5.6431263e-22
5.6425283e-22
5.6423018e-22
5.6422882e-22
5.6424531e-22
5.6428682e-22
5.6437319e-22
5.6508841e-22
5.6463309e-22
5.6438184e-22
5.6425283e-22
5.6419315e-22
5.6417065e-22
5.6416955e-22
5.6418648e-22
5.6422859e-22
5.6431551e-22
5.6506502e-22
5.6460994e-22
5.6435897e-22
5.6423018e-22
5.6417065e-22
5.6414828e-22
5.6414731e-22
5.6416445e-22
5.6420681e-22
5.6429393e-22
5.6506201e-22
5.646075e-22
5.6435716e-22
5.6422882e-22
5.6416955e-22
5.6414731e-22
5.6414645e-22
5.6416368e-22
5.6420615e-22
5.6429334e-22
5.6507476e-22
5.6462176e-22
5.6437281e-22
5.6424531e-22
5.6418648e-22
5.6416445e-22
5.6416368e-22
5.6418098e-22
5.642235e-22
5.6431073e-22
5.6510793e-22
5.6465914e-22
5.6441293e-22
5.6428682e-22
5.6422859e-22
5.6420681e-22
5.6420615e-22
5.642235e-22
5.6426606e-22
5.6435336e-22
5.65176e-22
5.6473987e-22
5.6449782e-22
5.6437319e-22
5.6431551e-22
5.6429393e-22
5.6429334e-22
5.6431073e-22
5.6435336e-22
5.6444088e-22
1.3082561e-21
1.3072384e-21
1.3066753e-21
1.3063854e-21
1.3062506e-21
1.3061982e-21
1.3061914e-21
1.3062197e-21
1.306293e-21
1.3064419e-21
1.3072384e-21
1.3062245e-21
1.3056627e-21
1.3053734e-21
1.3052389e-21
1.3051871e-21
1.3051816e-21
1.3052134e-21
1.3052963e-21
1.305474e-21
1.3066753e-21
1.3056627e-21
1.3051018e-21
1.3048129e-21
1.3046789e-21
1.3046277e-21
1.3046236e-21
1.3046585e-21
1.3047477e-21
1.3049349e-21
1.3063854e-21
1.3053734e-21
1.3048129e-21
1.3045244e-21
1.3043907e-21
1.30434e-21
1.304337e-21
1.3043738e-21
1.3044661e-21
1.3046567e-21
1.3062506e-21
1.3052389e-21
1.3046789e-21
1.3043907e-21
1.3042572e-21
1.3042069e-21
1.3042044e-21
1.3042423e-21
1.3043359e-21
1.3045278e-21
1.3061982e-21
1.3051871e-21
1.3046277e-21
1.30434e-21
1.3042069e-21
1.3041568e-21
1.3041547e-21
1.304193e-21
1.3042872e-21
1.3044796e-21
1.3061914e-21
1.3051816e-21
1.3046236e-21
1.304337e-21
1.3042044e-21
1.3041547e-21
1.3041528e-21
1.3041913e-21
1.3042858e-21
1.3044783e-21
1.3062197e-21
1.3052134e-21
1.3046585e-21
1.3043738e-21
1.3042423e-21
1.304193e-21
1.3041913e-21
1.30423e-21
1.3043246e-21
1.3045172e-21
1.306293e-21
1.3052963e-21
1.3047477e-21
1.3044661e-21
1.3043359e-21
1.3042872e-21
1.3042858e-21
1.3043246e-21
1.3044193e-21
1.304612e-21
1.3064419e-21
1.305474e-21
1.3049349e-21
1.3046567e-21
1.3045278e-21
1.3044796e-21
1.3044783e-21
1.3045172e-21
1.304612e-21
1.3048052e-21
3.0602137e-21
3.0579271e-21
3.0566577e-21
3.0560029e-21
3.055698e-21
3.0555795e-21
3.0555641e-21
3.0556277e-21
3.0557914e-21
3.0561208e-21
3.0579271e-21
3.0556489e-21
3.0543825e-21
3.053729e-21
3.0534249e-21
3.0533076e-21
3.0532952e-21
3.0533667e-21
3.0535526e-21
3.0539487e-21
3.0566577e-21
3.0543825e-21
3.0531179e-21
3.0524655e-21
3.0521623e-21
3.0520464e-21
3.0520373e-21
3.0521161e-21
3.0523164e-21
3.0527344e-21
3.0560029e-21
3.053729e-21
3.0524655e-21
3.0518137e-21
3.0515113e-21
3.0513966e-21
3.0513898e-21
3.0514731e-21
3.0516807e-21
3.0521065e-21
3.055698e-21
3.0534249e-21
3.0521623e-21
3.0515113e-21
3.0512094e-21
3.0510956e-21
3.0510901e-21
3.0511757e-21
3.0513865e-21
3.0518151e-21
3.0555795e-21
3.0533076e-21
3.0520464e-21
3.0513966e-21
3.0510956e-21
3.0509824e-21
3.0509777e-21
3.0510643e-21
3.0512764e-21
3.0517061e-21
3.0555641e-21
3.0532952e-21
3.0520373e-21
3.0513898e-21
3.0510901e-21
3.0509777e-21
3.0509735e-21
3.0510606e-21
3.0512732e-21
3.0517033e-21
3.0556277e-21
3.0533667e-21
3.0521161e-21
3.0514731e-21
3.0511757e-21
3.0510643e-21
3.0510606e-21
3.0511481e-21
3.051361e-21
3.0517913e-21
3.0557914e-21
3.0535526e-21
3.0523164e-21
3.0516807e-21
3.0513865e-21
3.0512764e-21
3.0512732e-21
3.051361e-21
3.0515741e-21
3.0520047e-21
3.0561208e-21
3.0539487e-21
3.0527344e-21
3.0521065e-21
3.0518151e-21
3.0517061e-21
3.0517033e-21
3.0517913e-21
3.0520047e-21
3.0524364e-21
7.2437847e-21
7.2385889e-21
7.2356953e-21
7.2341996e-21
7.2335022e-21
7.233231e-21
7.2331956e-21
7.2333402e-21
7.2337104e-21
7.2344479e-21
7.2385889e-21
7.2334121e-21
7.2305251e-21
7.2290322e-21
7.2283368e-21
7.2280684e-21
7.22804e-21
7.2282031e-21
7.228625e-21
7.2295181e-21
7.2356953e-21
7.2305251e-21
7.2276423e-21
7.2261519e-21
7.2254585e-21
7.2251935e-21
7.2251728e-21
7.2253528e-21
7.2258084e-21
7.2267526e-21
7.2341996e-21
7.2290322e-21
7.2261519e-21
7.2246632e-21
7.2239715e-21
7.2237093e-21
7.2236939e-21
7.2238844e-21
7.2243568e-21
7.2253193e-21
7.2335022e-21
7.2283368e-21
7.2254585e-21
7.2239715e-21
7.2232813e-21
7.2230209e-21
7.2230087e-21
7.2232045e-21
7.2236844e-21
7.2246535e-21
7.233231e-21
7.2280684e-21
7.2251935e-21
7.2237093e-21
7.2230209e-21
7.222762e-21
7.2227515e-21
7.2229498e-21
7.2234328e-21
7.2244043e-21
7.2331956e-21
7.22804e-21
7.2251728e-21
7.2236939e-21
7.2230087e-21
7.2227515e-21
7.2227423e-21
7.2229418e-21
7.2234259e-21
7.2243984e-21
7.2333402e-21
7.2282031e-21
7.2253528e-21
7.2238844e-21
7.2232045e-21
7.2229498e-21
7.2229418e-21
7.223142e-21
7.2236268e-21
7.2245998e-21
7.2337104e-21
7.228625e-21
7.2258084e-21
7.2243568e-21
7.2236844e-21
7.2234328e-21
7.2234259e-21
7.2236268e-21
7.2241122e-21
7.2250858e-21
7.2344479e-21
7.2295181e-21
7.2267526e-21
7.2253193e-21
7.2246535e-21
7.2244043e-21
7.2243984e-21
7.2245998e-21