/*--------------------------------*- C++ -*----------------------------------*\
| =========                 |                                                 |
| \\      /  F ield         | OpenFOAM: The Open Source CFD Toolbox           |
|  \\    /   O peration     | Version:  dev                                   |
|   \\  /    A nd           | Web:      www.OpenFOAM.org                      |
|    \\/     M anipulation  |                                                 |
\*---------------------------------------------------------------------------*/
FoamFile
{
    version     2.0;
    format      ascii;
    class       volScalarField;
    location    "27";
    object      A;
}
// * * * * * * * * * * * * * * * * * * * * * * * * * * * * * * * * * * * * * //

dimensions      [0 0 0 0 1 0 0];

internalField   nonuniform List<scalar> 
10000
(
2.4532098e-46
2.4530242e-46
2.4529334e-46
2.4528906e-46
2.4528722e-46
2.4528652e-46
2.4528633e-46
2.4528639e-46
2.4528676e-46
2.4528781e-46
2.4530242e-46
2.4528386e-46
2.4527478e-46
2.452705e-46
2.4526867e-46
2.4526797e-46
2.4526779e-46
2.4526788e-46
2.4526833e-46
2.4526962e-46
2.4529334e-46
2.4527478e-46
2.452657e-46
2.4526142e-46
2.4525959e-46
2.452589e-46
2.4525872e-46
2.4525884e-46
2.4525933e-46
2.452607e-46
2.4528906e-46
2.452705e-46
2.4526142e-46
2.4525715e-46
2.4525531e-46
2.4525463e-46
2.4525446e-46
2.4525459e-46
2.452551e-46
2.452565e-46
2.4528722e-46
2.4526867e-46
2.4525959e-46
2.4525531e-46
2.4525348e-46
2.4525279e-46
2.4525263e-46
2.4525277e-46
2.4525329e-46
2.452547e-46
2.4528652e-46
2.4526797e-46
2.452589e-46
2.4525463e-46
2.4525279e-46
2.4525211e-46
2.4525195e-46
2.4525209e-46
2.4525261e-46
2.4525402e-46
2.4528633e-46
2.4526779e-46
2.4525872e-46
2.4525446e-46
2.4525263e-46
2.4525195e-46
2.4525178e-46
2.4525192e-46
2.4525245e-46
2.4525386e-46
2.4528639e-46
2.4526788e-46
2.4525884e-46
2.4525459e-46
2.4525277e-46
2.4525209e-46
2.4525192e-46
2.4525207e-46
2.452526e-46
2.45254e-46
2.4528676e-46
2.4526833e-46
2.4525933e-46
2.452551e-46
2.4525329e-46
2.4525261e-46
2.4525245e-46
2.452526e-46
2.4525312e-46
2.4525453e-46
2.4528781e-46
2.4526962e-46
2.452607e-46
2.452565e-46
2.452547e-46
2.4525402e-46
2.4525386e-46
2.45254e-46
2.4525453e-46
2.4525594e-46
1.0650864e-45
1.0650083e-45
1.0649694e-45
1.0649511e-45
1.0649433e-45
1.0649403e-45
1.0649394e-45
1.0649397e-45
1.0649413e-45
1.064946e-45
1.0650083e-45
1.0649302e-45
1.0648914e-45
1.064873e-45
1.0648652e-45
1.0648622e-45
1.0648614e-45
1.0648618e-45
1.0648637e-45
1.0648694e-45
1.0649694e-45
1.0648914e-45
1.0648525e-45
1.0648342e-45
1.0648264e-45
1.0648234e-45
1.0648227e-45
1.0648232e-45
1.0648253e-45
1.0648313e-45
1.0649511e-45
1.064873e-45
1.0648342e-45
1.0648159e-45
1.0648081e-45
1.0648051e-45
1.0648044e-45
1.064805e-45
1.0648072e-45
1.0648133e-45
1.0649433e-45
1.0648652e-45
1.0648264e-45
1.0648081e-45
1.0648002e-45
1.0647973e-45
1.0647966e-45
1.0647972e-45
1.0647994e-45
1.0648056e-45
1.0649403e-45
1.0648622e-45
1.0648234e-45
1.0648051e-45
1.0647973e-45
1.0647944e-45
1.0647937e-45
1.0647943e-45
1.0647965e-45
1.0648027e-45
1.0649394e-45
1.0648614e-45
1.0648227e-45
1.0648044e-45
1.0647966e-45
1.0647937e-45
1.064793e-45
1.0647936e-45
1.0647958e-45
1.064802e-45
1.0649397e-45
1.0648618e-45
1.0648232e-45
1.064805e-45
1.0647972e-45
1.0647943e-45
1.0647936e-45
1.0647942e-45
1.0647964e-45
1.0648026e-45
1.0649413e-45
1.0648637e-45
1.0648253e-45
1.0648072e-45
1.0647994e-45
1.0647965e-45
1.0647958e-45
1.0647964e-45
1.0647987e-45
1.0648049e-45
1.064946e-45
1.0648694e-45
1.0648313e-45
1.0648133e-45
1.0648056e-45
1.0648027e-45
1.064802e-45
1.0648026e-45
1.0648049e-45
1.0648111e-45
3.3648461e-45
3.3646065e-45
3.3644866e-45
3.36443e-45
3.3644056e-45
3.3643964e-45
3.3643938e-45
3.3643947e-45
3.3643994e-45
3.3644139e-45
3.3646065e-45
3.3643669e-45
3.3642471e-45
3.3641904e-45
3.3641661e-45
3.3641569e-45
3.3641545e-45
3.3641557e-45
3.3641615e-45
3.3641791e-45
3.3644866e-45
3.3642471e-45
3.3641273e-45
3.3640706e-45
3.3640463e-45
3.3640372e-45
3.3640348e-45
3.3640364e-45
3.3640429e-45
3.3640616e-45
3.36443e-45
3.3641904e-45
3.3640706e-45
3.3640141e-45
3.3639898e-45
3.3639806e-45
3.3639784e-45
3.3639802e-45
3.3639869e-45
3.364006e-45
3.3644056e-45
3.3641661e-45
3.3640463e-45
3.3639898e-45
3.3639655e-45
3.3639564e-45
3.3639542e-45
3.363956e-45
3.3639629e-45
3.3639821e-45
3.3643964e-45
3.3641569e-45
3.3640372e-45
3.3639806e-45
3.3639564e-45
3.3639473e-45
3.3639452e-45
3.363947e-45
3.3639539e-45
3.3639732e-45
3.3643938e-45
3.3641545e-45
3.3640348e-45
3.3639784e-45
3.3639542e-45
3.3639452e-45
3.363943e-45
3.3639449e-45
3.3639518e-45
3.363971e-45
3.3643947e-45
3.3641557e-45
3.3640364e-45
3.3639802e-45
3.363956e-45
3.363947e-45
3.3639449e-45
3.3639468e-45
3.3639537e-45
3.3639729e-45
3.3643994e-45
3.3641615e-45
3.3640429e-45
3.3639869e-45
3.3639629e-45
3.3639539e-45
3.3639518e-45
3.3639537e-45
3.3639607e-45
3.3639799e-45
3.3644139e-45
3.3641791e-45
3.3640616e-45
3.364006e-45
3.3639821e-45
3.3639732e-45
3.363971e-45
3.3639729e-45
3.3639799e-45
3.3639991e-45
1.0503182e-44
1.0502456e-44
1.0502091e-44
1.0501918e-44
1.0501844e-44
1.0501816e-44
1.0501808e-44
1.0501811e-44
1.0501825e-44
1.0501868e-44
1.0502456e-44
1.050173e-44
1.0501365e-44
1.0501193e-44
1.0501118e-44
1.050109e-44
1.0501083e-44
1.0501087e-44
1.0501104e-44
1.0501157e-44
1.0502091e-44
1.0501365e-44
1.0501001e-44
1.0500828e-44
1.0500754e-44
1.0500726e-44
1.0500719e-44
1.0500724e-44
1.0500743e-44
1.0500799e-44
1.0501918e-44
1.0501193e-44
1.0500828e-44
1.0500656e-44
1.0500582e-44
1.0500554e-44
1.0500547e-44
1.0500552e-44
1.0500573e-44
1.050063e-44
1.0501844e-44
1.0501118e-44
1.0500754e-44
1.0500582e-44
1.0500508e-44
1.050048e-44
1.0500473e-44
1.0500479e-44
1.05005e-44
1.0500557e-44
1.0501816e-44
1.050109e-44
1.0500726e-44
1.0500554e-44
1.050048e-44
1.0500452e-44
1.0500446e-44
1.0500451e-44
1.0500472e-44
1.050053e-44
1.0501808e-44
1.0501083e-44
1.0500719e-44
1.0500547e-44
1.0500473e-44
1.0500446e-44
1.0500439e-44
1.0500445e-44
1.0500466e-44
1.0500523e-44
1.0501811e-44
1.0501087e-44
1.0500724e-44
1.0500552e-44
1.0500479e-44
1.0500451e-44
1.0500445e-44
1.050045e-44
1.0500472e-44
1.0500529e-44
1.0501825e-44
1.0501104e-44
1.0500743e-44
1.0500573e-44
1.05005e-44
1.0500472e-44
1.0500466e-44
1.0500472e-44
1.0500493e-44
1.050055e-44
1.0501868e-44
1.0501157e-44
1.0500799e-44
1.050063e-44
1.0500557e-44
1.050053e-44
1.0500523e-44
1.0500529e-44
1.050055e-44
1.0500608e-44
3.3275539e-44
3.3273308e-44
3.3272183e-44
3.3271649e-44
3.3271419e-44
3.3271332e-44
3.3271308e-44
3.3271316e-44
3.327136e-44
3.3271488e-44
3.3273308e-44
3.3271078e-44
3.3269953e-44
3.326942e-44
3.326919e-44
3.3269103e-44
3.326908e-44
3.3269092e-44
3.3269146e-44
3.3269305e-44
3.3272183e-44
3.3269953e-44
3.3268829e-44
3.3268295e-44
3.3268065e-44
3.3267979e-44
3.3267957e-44
3.3267972e-44
3.3268032e-44
3.3268202e-44
3.3271649e-44
3.326942e-44
3.3268295e-44
3.3267762e-44
3.3267533e-44
3.3267446e-44
3.3267425e-44
3.3267442e-44
3.3267505e-44
3.3267678e-44
3.3271419e-44
3.326919e-44
3.3268065e-44
3.3267533e-44
3.3267303e-44
3.3267217e-44
3.3267197e-44
3.3267214e-44
3.3267278e-44
3.3267453e-44
3.3271332e-44
3.3269103e-44
3.3267979e-44
3.3267446e-44
3.3267217e-44
3.3267132e-44
3.3267111e-44
3.3267129e-44
3.3267194e-44
3.3267369e-44
3.3271308e-44
3.326908e-44
3.3267957e-44
3.3267425e-44
3.3267197e-44
3.3267111e-44
3.3267091e-44
3.3267109e-44
3.3267174e-44
3.3267349e-44
3.3271316e-44
3.3269092e-44
3.3267972e-44
3.3267442e-44
3.3267214e-44
3.3267129e-44
3.3267109e-44
3.3267127e-44
3.3267192e-44
3.3267367e-44
3.327136e-44
3.3269146e-44
3.3268032e-44
3.3267505e-44
3.3267278e-44
3.3267194e-44
3.3267174e-44
3.3267192e-44
3.3267257e-44
3.3267432e-44
3.3271488e-44
3.3269305e-44
3.3268202e-44
3.3267678e-44
3.3267453e-44
3.3267369e-44
3.3267349e-44
3.3267367e-44
3.3267432e-44
3.3267607e-44
1.0730419e-43
1.0729721e-43
1.0729368e-43
1.07292e-43
1.0729128e-43
1.07291e-43
1.0729093e-43
1.0729095e-43
1.0729109e-43
1.0729148e-43
1.0729721e-43
1.0729024e-43
1.0728671e-43
1.0728503e-43
1.0728431e-43
1.0728404e-43
1.0728396e-43
1.07284e-43
1.0728417e-43
1.0728466e-43
1.0729368e-43
1.0728671e-43
1.0728318e-43
1.072815e-43
1.0728078e-43
1.0728051e-43
1.0728044e-43
1.0728049e-43
1.0728067e-43
1.072812e-43
1.07292e-43
1.0728503e-43
1.072815e-43
1.0727982e-43
1.072791e-43
1.0727883e-43
1.0727877e-43
1.0727882e-43
1.0727902e-43
1.0727955e-43
1.0729128e-43
1.0728431e-43
1.0728078e-43
1.072791e-43
1.0727838e-43
1.0727811e-43
1.0727805e-43
1.072781e-43
1.072783e-43
1.0727884e-43
1.07291e-43
1.0728404e-43
1.0728051e-43
1.0727883e-43
1.0727811e-43
1.0727784e-43
1.0727778e-43
1.0727783e-43
1.0727804e-43
1.0727858e-43
1.0729093e-43
1.0728396e-43
1.0728044e-43
1.0727877e-43
1.0727805e-43
1.0727778e-43
1.0727771e-43
1.0727777e-43
1.0727797e-43
1.0727851e-43
1.0729095e-43
1.07284e-43
1.0728049e-43
1.0727882e-43
1.072781e-43
1.0727783e-43
1.0727777e-43
1.0727783e-43
1.0727803e-43
1.0727857e-43
1.0729109e-43
1.0728417e-43
1.0728067e-43
1.0727902e-43
1.072783e-43
1.0727804e-43
1.0727797e-43
1.0727803e-43
1.0727823e-43
1.0727877e-43
1.0729148e-43
1.0728466e-43
1.072812e-43
1.0727955e-43
1.0727884e-43
1.0727858e-43
1.0727851e-43
1.0727857e-43
1.0727877e-43
1.0727931e-43
3.523288e-43
3.5230661e-43
3.5229533e-43
3.5228996e-43
3.5228764e-43
3.5228676e-43
3.5228651e-43
3.5228659e-43
3.5228702e-43
3.5228824e-43
3.5230661e-43
3.5228442e-43
3.5227314e-43
3.5226777e-43
3.5226545e-43
3.5226458e-43
3.5226435e-43
3.5226447e-43
3.52265e-43
3.5226654e-43
3.5229533e-43
3.5227314e-43
3.5226186e-43
3.5225649e-43
3.5225418e-43
3.5225331e-43
3.5225309e-43
3.5225324e-43
3.5225384e-43
3.5225548e-43
3.5228996e-43
3.5226777e-43
3.5225649e-43
3.5225113e-43
3.5224882e-43
3.5224795e-43
3.5224773e-43
3.5224791e-43
3.5224853e-43
3.5225021e-43
3.5228764e-43
3.5226545e-43
3.5225418e-43
3.5224882e-43
3.522465e-43
3.5224563e-43
3.5224543e-43
3.5224561e-43
3.5224625e-43
3.5224794e-43
3.5228676e-43
3.5226458e-43
3.5225331e-43
3.5224795e-43
3.5224563e-43
3.5224477e-43
3.5224457e-43
3.5224475e-43
3.522454e-43
3.5224709e-43
3.5228651e-43
3.5226435e-43
3.5225309e-43
3.5224773e-43
3.5224543e-43
3.5224457e-43
3.5224437e-43
3.5224455e-43
3.522452e-43
3.5224689e-43
3.5228659e-43
3.5226447e-43
3.5225324e-43
3.5224791e-43
3.5224561e-43
3.5224475e-43
3.5224455e-43
3.5224473e-43
3.5224538e-43
3.5224708e-43
3.5228702e-43
3.52265e-43
3.5225384e-43
3.5224853e-43
3.5224625e-43
3.522454e-43
3.522452e-43
3.5224538e-43
3.5224603e-43
3.5224773e-43
3.5228824e-43
3.5226654e-43
3.5225548e-43
3.5225021e-43
3.5224794e-43
3.5224709e-43
3.5224689e-43
3.5224708e-43
3.5224773e-43
3.5224943e-43
1.1780365e-42
1.1779646e-42
1.1779279e-42
1.1779104e-42
1.1779028e-42
1.1779e-42
1.1778992e-42
1.1778994e-42
1.1779008e-42
1.1779047e-42
1.1779646e-42
1.1778927e-42
1.177856e-42
1.1778385e-42
1.177831e-42
1.1778281e-42
1.1778274e-42
1.1778278e-42
1.1778295e-42
1.1778344e-42
1.1779279e-42
1.177856e-42
1.1778194e-42
1.1778019e-42
1.1777943e-42
1.1777915e-42
1.1777908e-42
1.1777913e-42
1.1777932e-42
1.1777985e-42
1.1779104e-42
1.1778385e-42
1.1778019e-42
1.1777844e-42
1.1777768e-42
1.177774e-42
1.1777733e-42
1.1777739e-42
1.1777759e-42
1.1777813e-42
1.1779028e-42
1.177831e-42
1.1777943e-42
1.1777768e-42
1.1777693e-42
1.1777665e-42
1.1777658e-42
1.1777664e-42
1.1777685e-42
1.1777739e-42
1.1779e-42
1.1778281e-42
1.1777915e-42
1.177774e-42
1.1777665e-42
1.1777637e-42
1.177763e-42
1.1777636e-42
1.1777657e-42
1.1777711e-42
1.1778992e-42
1.1778274e-42
1.1777908e-42
1.1777733e-42
1.1777658e-42
1.177763e-42
1.1777624e-42
1.177763e-42
1.1777651e-42
1.1777705e-42
1.1778994e-42
1.1778278e-42
1.1777913e-42
1.1777739e-42
1.1777664e-42
1.1777636e-42
1.177763e-42
1.1777636e-42
1.1777657e-42
1.1777711e-42
1.1779008e-42
1.1778295e-42
1.1777932e-42
1.1777759e-42
1.1777685e-42
1.1777657e-42
1.1777651e-42
1.1777657e-42
1.1777678e-42
1.1777732e-42
1.1779047e-42
1.1778344e-42
1.1777985e-42
1.1777813e-42
1.1777739e-42
1.1777711e-42
1.1777705e-42
1.1777711e-42
1.1777732e-42
1.1777786e-42
4.0111868e-42
4.0109498e-42
4.0108283e-42
4.0107704e-42
4.0107453e-42
4.0107357e-42
4.0107331e-42
4.010734e-42
4.0107385e-42
4.0107509e-42
4.0109498e-42
4.0107128e-42
4.0105914e-42
4.0105334e-42
4.0105084e-42
4.0104989e-42
4.0104964e-42
4.0104977e-42
4.0105034e-42
4.0105194e-42
4.0108283e-42
4.0105914e-42
4.01047e-42
4.010412e-42
4.010387e-42
4.0103776e-42
4.0103752e-42
4.0103769e-42
4.0103833e-42
4.0104004e-42
4.0107704e-42
4.0105334e-42
4.010412e-42
4.0103541e-42
4.0103291e-42
4.0103197e-42
4.0103174e-42
4.0103193e-42
4.010326e-42
4.0103436e-42
4.0107453e-42
4.0105084e-42
4.010387e-42
4.0103291e-42
4.010304e-42
4.0102947e-42
4.0102925e-42
4.0102945e-42
4.0103013e-42
4.010319e-42
4.0107357e-42
4.0104989e-42
4.0103776e-42
4.0103197e-42
4.0102947e-42
4.0102854e-42
4.0102832e-42
4.0102852e-42
4.0102921e-42
4.0103098e-42
4.0107331e-42
4.0104964e-42
4.0103752e-42
4.0103174e-42
4.0102925e-42
4.0102832e-42
4.010281e-42
4.010283e-42
4.01029e-42
4.0103077e-42
4.010734e-42
4.0104977e-42
4.0103769e-42
4.0103193e-42
4.0102945e-42
4.0102852e-42
4.010283e-42
4.010285e-42
4.010292e-42
4.0103097e-42
4.0107385e-42
4.0105034e-42
4.0103833e-42
4.010326e-42
4.0103013e-42
4.0102921e-42
4.01029e-42
4.010292e-42
4.0102989e-42
4.0103167e-42
4.0107509e-42
4.0105194e-42
4.0104004e-42
4.0103436e-42
4.010319e-42
4.0103098e-42
4.0103077e-42
4.0103097e-42
4.0103167e-42
4.0103344e-42
1.3909442e-41
1.3908646e-41
1.3908237e-41
1.3908041e-41
1.3907957e-41
1.3907924e-41
1.3907915e-41
1.3907918e-41
1.3907934e-41
1.3907974e-41
1.3908646e-41
1.3907851e-41
1.3907442e-41
1.3907246e-41
1.3907161e-41
1.3907129e-41
1.3907121e-41
1.3907125e-41
1.3907144e-41
1.3907198e-41
1.3908237e-41
1.3907442e-41
1.3907033e-41
1.3906837e-41
1.3906753e-41
1.3906721e-41
1.3906713e-41
1.3906719e-41
1.390674e-41
1.3906797e-41
1.3908041e-41
1.3907246e-41
1.3906837e-41
1.3906642e-41
1.3906557e-41
1.3906525e-41
1.3906518e-41
1.3906524e-41
1.3906547e-41
1.3906605e-41
1.3907957e-41
1.3907161e-41
1.3906753e-41
1.3906557e-41
1.3906473e-41
1.3906441e-41
1.3906434e-41
1.390644e-41
1.3906464e-41
1.3906522e-41
1.3907924e-41
1.3907129e-41
1.3906721e-41
1.3906525e-41
1.3906441e-41
1.390641e-41
1.3906402e-41
1.3906409e-41
1.3906432e-41
1.3906491e-41
1.3907915e-41
1.3907121e-41
1.3906713e-41
1.3906518e-41
1.3906434e-41
1.3906402e-41
1.3906395e-41
1.3906402e-41
1.3906425e-41
1.3906484e-41
1.3907918e-41
1.3907125e-41
1.3906719e-41
1.3906524e-41
1.390644e-41
1.3906409e-41
1.3906402e-41
1.3906409e-41
1.3906432e-41
1.3906491e-41
1.3907934e-41
1.3907144e-41
1.390674e-41
1.3906547e-41
1.3906464e-41
1.3906432e-41
1.3906425e-41
1.3906432e-41
1.3906455e-41
1.3906514e-41
1.3907974e-41
1.3907198e-41
1.3906797e-41
1.3906605e-41
1.3906522e-41
1.3906491e-41
1.3906484e-41
1.3906491e-41
1.3906514e-41
1.3906573e-41
4.9122851e-41
4.9120132e-41
4.911873e-41
4.9118058e-41
4.9117766e-41
4.9117655e-41
4.9117625e-41
4.9117635e-41
4.9117687e-41
4.9117824e-41
4.9120132e-41
4.9117415e-41
4.9116013e-41
4.9115341e-41
4.911505e-41
4.911494e-41
4.9114911e-41
4.9114926e-41
4.9114991e-41
4.911517e-41
4.911873e-41
4.9116013e-41
4.9114611e-41
4.9113939e-41
4.9113648e-41
4.9113538e-41
4.9113512e-41
4.9113531e-41
4.9113605e-41
4.9113797e-41
4.9118058e-41
4.9115341e-41
4.9113939e-41
4.9113267e-41
4.9112976e-41
4.9112867e-41
4.9112841e-41
4.9112863e-41
4.9112941e-41
4.9113139e-41
4.9117766e-41
4.911505e-41
4.9113648e-41
4.9112976e-41
4.9112686e-41
4.9112577e-41
4.9112552e-41
4.9112575e-41
4.9112655e-41
4.9112854e-41
4.9117655e-41
4.911494e-41
4.9113538e-41
4.9112867e-41
4.9112577e-41
4.9112469e-41
4.9112444e-41
4.9112467e-41
4.9112548e-41
4.9112747e-41
4.9117625e-41
4.9114911e-41
4.9113512e-41
4.9112841e-41
4.9112552e-41
4.9112444e-41
4.9112419e-41
4.9112443e-41
4.9112523e-41
4.9112722e-41
4.9117635e-41
4.9114926e-41
4.9113531e-41
4.9112863e-41
4.9112575e-41
4.9112467e-41
4.9112443e-41
4.9112466e-41
4.9112547e-41
4.9112746e-41
4.9117687e-41
4.9114991e-41
4.9113605e-41
4.9112941e-41
4.9112655e-41
4.9112548e-41
4.9112523e-41
4.9112547e-41
4.9112627e-41
4.9112827e-41
4.9117824e-41
4.911517e-41
4.9113797e-41
4.9113139e-41
4.9112854e-41
4.9112747e-41
4.9112722e-41
4.9112746e-41
4.9112827e-41
4.9113027e-41
1.7668678e-40
1.7667732e-40
1.7667242e-40
1.7667008e-40
1.7666906e-40
1.7666867e-40
1.7666856e-40
1.766686e-40
1.7666878e-40
1.7666924e-40
1.7667732e-40
1.7666787e-40
1.7666297e-40
1.7666063e-40
1.7665961e-40
1.7665922e-40
1.7665912e-40
1.7665918e-40
1.766594e-40
1.7666002e-40
1.7667242e-40
1.7666297e-40
1.7665808e-40
1.7665573e-40
1.7665472e-40
1.7665433e-40
1.7665424e-40
1.7665431e-40
1.7665456e-40
1.7665523e-40
1.7667008e-40
1.7666063e-40
1.7665573e-40
1.7665338e-40
1.7665237e-40
1.7665198e-40
1.7665189e-40
1.7665197e-40
1.7665224e-40
1.7665293e-40
1.7666906e-40
1.7665961e-40
1.7665472e-40
1.7665237e-40
1.7665135e-40
1.7665097e-40
1.7665088e-40
1.7665096e-40
1.7665124e-40
1.7665193e-40
1.7666867e-40
1.7665922e-40
1.7665433e-40
1.7665198e-40
1.7665097e-40
1.7665059e-40
1.766505e-40
1.7665059e-40
1.7665087e-40
1.7665156e-40
1.7666856e-40
1.7665912e-40
1.7665424e-40
1.7665189e-40
1.7665088e-40
1.766505e-40
1.7665042e-40
1.766505e-40
1.7665078e-40
1.7665147e-40
1.766686e-40
1.7665918e-40
1.7665431e-40
1.7665197e-40
1.7665096e-40
1.7665059e-40
1.766505e-40
1.7665058e-40
1.7665087e-40
1.7665155e-40
1.7666878e-40
1.766594e-40
1.7665456e-40
1.7665224e-40
1.7665124e-40
1.7665087e-40
1.7665078e-40
1.7665087e-40
1.7665115e-40
1.7665184e-40
1.7666924e-40
1.7666002e-40
1.7665523e-40
1.7665293e-40
1.7665193e-40
1.7665156e-40
1.7665147e-40
1.7665155e-40
1.7665184e-40
1.7665253e-40
6.4725536e-40
6.4722188e-40
6.4720449e-40
6.4719613e-40
6.471925e-40
6.4719112e-40
6.4719074e-40
6.4719087e-40
6.471915e-40
6.4719312e-40
6.4722188e-40
6.4718842e-40
6.4717103e-40
6.4716267e-40
6.4715905e-40
6.4715768e-40
6.4715732e-40
6.4715751e-40
6.4715832e-40
6.4716047e-40
6.4720449e-40
6.4717103e-40
6.4715365e-40
6.4714529e-40
6.4714167e-40
6.471403e-40
6.4713997e-40
6.4714021e-40
6.4714113e-40
6.4714346e-40
6.4719613e-40
6.4716267e-40
6.4714529e-40
6.4713693e-40
6.4713331e-40
6.4713195e-40
6.4713163e-40
6.4713191e-40
6.4713288e-40
6.4713527e-40
6.471925e-40
6.4715905e-40
6.4714167e-40
6.4713331e-40
6.4712969e-40
6.4712834e-40
6.4712802e-40
6.4712832e-40
6.4712931e-40
6.4713172e-40
6.4719112e-40
6.4715768e-40
6.471403e-40
6.4713195e-40
6.4712834e-40
6.4712699e-40
6.4712668e-40
6.4712697e-40
6.4712798e-40
6.471304e-40
6.4719074e-40
6.4715732e-40
6.4713997e-40
6.4713163e-40
6.4712802e-40
6.4712668e-40
6.4712637e-40
6.4712667e-40
6.4712768e-40
6.4713009e-40
6.4719087e-40
6.4715751e-40
6.4714021e-40
6.4713191e-40
6.4712832e-40
6.4712697e-40
6.4712667e-40
6.4712697e-40
6.4712798e-40
6.471304e-40
6.471915e-40
6.4715832e-40
6.4714113e-40
6.4713288e-40
6.4712931e-40
6.4712798e-40
6.4712768e-40
6.4712798e-40
6.4712898e-40
6.471314e-40
6.4719312e-40
6.4716047e-40
6.4714346e-40
6.4713527e-40
6.4713172e-40
6.471304e-40
6.4713009e-40
6.471304e-40
6.471314e-40
6.4713383e-40
2.4148915e-39
2.4147709e-39
2.414708e-39
2.4146777e-39
2.4146645e-39
2.4146595e-39
2.4146582e-39
2.4146586e-39
2.4146609e-39
2.4146666e-39
2.4147709e-39
2.4146503e-39
2.4145874e-39
2.4145571e-39
2.414544e-39
2.414539e-39
2.4145377e-39
2.4145384e-39
2.4145413e-39
2.414549e-39
2.414708e-39
2.4145874e-39
2.4145245e-39
2.4144942e-39
2.4144811e-39
2.4144762e-39
2.414475e-39
2.4144759e-39
2.4144792e-39
2.4144875e-39
2.4146777e-39
2.4145571e-39
2.4144942e-39
2.414464e-39
2.4144508e-39
2.4144459e-39
2.4144448e-39
2.4144458e-39
2.4144493e-39
2.4144579e-39
2.4146645e-39
2.414544e-39
2.4144811e-39
2.4144508e-39
2.4144377e-39
2.4144328e-39
2.4144317e-39
2.4144328e-39
2.4144364e-39
2.414445e-39
2.4146595e-39
2.414539e-39
2.4144762e-39
2.4144459e-39
2.4144328e-39
2.4144279e-39
2.4144268e-39
2.4144279e-39
2.4144315e-39
2.4144402e-39
2.4146582e-39
2.4145377e-39
2.414475e-39
2.4144448e-39
2.4144317e-39
2.4144268e-39
2.4144257e-39
2.4144268e-39
2.4144305e-39
2.4144391e-39
2.4146586e-39
2.4145384e-39
2.4144759e-39
2.4144458e-39
2.4144328e-39
2.4144279e-39
2.4144268e-39
2.4144279e-39
2.4144316e-39
2.4144402e-39
2.4146609e-39
2.4145413e-39
2.4144792e-39
2.4144493e-39
2.4144364e-39
2.4144315e-39
2.4144305e-39
2.4144316e-39
2.4144352e-39
2.4144439e-39
2.4146666e-39
2.414549e-39
2.4144875e-39
2.4144579e-39
2.414445e-39
2.4144402e-39
2.4144391e-39
2.4144402e-39
2.4144439e-39
2.4144526e-39
9.1762167e-39
9.175774e-39
9.1755426e-39
9.1754309e-39
9.1753824e-39
9.1753639e-39
9.1753589e-39
9.1753606e-39
9.1753689e-39
9.1753895e-39
9.175774e-39
9.1753316e-39
9.1751001e-39
9.1749885e-39
9.17494e-39
9.1749217e-39
9.1749169e-39
9.1749195e-39
9.1749302e-39
9.1749583e-39
9.1755426e-39
9.1751001e-39
9.1748687e-39
9.1747571e-39
9.1747087e-39
9.1746905e-39
9.174686e-39
9.1746893e-39
9.1747016e-39
9.1747321e-39
9.1754309e-39
9.1749885e-39
9.1747571e-39
9.1746454e-39
9.1745971e-39
9.1745789e-39
9.1745746e-39
9.1745784e-39
9.1745915e-39
9.1746228e-39
9.1753824e-39
9.17494e-39
9.1747087e-39
9.1745971e-39
9.1745488e-39
9.1745307e-39
9.1745264e-39
9.1745304e-39
9.1745437e-39
9.1745753e-39
9.1753639e-39
9.1749217e-39
9.1746905e-39
9.1745789e-39
9.1745307e-39
9.1745126e-39
9.1745084e-39
9.1745125e-39
9.174526e-39
9.1745577e-39
9.1753589e-39
9.1749169e-39
9.174686e-39
9.1745746e-39
9.1745264e-39
9.1745084e-39
9.1745044e-39
9.1745085e-39
9.174522e-39
9.1745536e-39
9.1753606e-39
9.1749195e-39
9.1746893e-39
9.1745784e-39
9.1745304e-39
9.1745125e-39
9.1745085e-39
9.1745126e-39
9.1745261e-39
9.1745578e-39
9.1753689e-39
9.1749302e-39
9.1747016e-39
9.1745915e-39
9.1745437e-39
9.174526e-39
9.174522e-39
9.1745261e-39
9.1745395e-39
9.1745712e-39
9.1753895e-39
9.1749583e-39
9.1747321e-39
9.1746228e-39
9.1745753e-39
9.1745577e-39
9.1745536e-39
9.1745578e-39
9.1745712e-39
9.174603e-39
3.5510899e-38
3.5509246e-38
3.5508379e-38
3.5507961e-38
3.5507778e-38
3.5507709e-38
3.550769e-38
3.5507697e-38
3.5507728e-38
3.5507803e-38
3.5509246e-38
3.5507594e-38
3.5506727e-38
3.5506308e-38
3.5506126e-38
3.5506058e-38
3.550604e-38
3.550605e-38
3.550609e-38
3.5506194e-38
3.5508379e-38
3.5506727e-38
3.550586e-38
3.5505441e-38
3.550526e-38
3.5505191e-38
3.5505175e-38
3.5505187e-38
3.5505234e-38
3.5505347e-38
3.5507961e-38
3.5506308e-38
3.5505441e-38
3.5505023e-38
3.5504841e-38
3.5504773e-38
3.5504757e-38
3.5504771e-38
3.550482e-38
3.5504937e-38
3.5507778e-38
3.5506126e-38
3.550526e-38
3.5504841e-38
3.550466e-38
3.5504592e-38
3.5504576e-38
3.5504591e-38
3.5504641e-38
3.5504759e-38
3.5507709e-38
3.5506058e-38
3.5505191e-38
3.5504773e-38
3.5504592e-38
3.5504524e-38
3.5504508e-38
3.5504524e-38
3.5504575e-38
3.5504692e-38
3.550769e-38
3.550604e-38
3.5505175e-38
3.5504757e-38
3.5504576e-38
3.5504508e-38
3.5504493e-38
3.5504509e-38
3.550456e-38
3.5504677e-38
3.5507697e-38
3.550605e-38
3.5505187e-38
3.5504771e-38
3.5504591e-38
3.5504524e-38
3.5504509e-38
3.5504525e-38
3.5504575e-38
3.5504693e-38
3.5507728e-38
3.550609e-38
3.5505234e-38
3.550482e-38
3.5504641e-38
3.5504575e-38
3.550456e-38
3.5504575e-38
3.5504626e-38
3.5504744e-38
3.5507803e-38
3.5506194e-38
3.5505347e-38
3.5504937e-38
3.5504759e-38
3.5504692e-38
3.5504677e-38
3.5504693e-38
3.5504744e-38
3.5504862e-38
1.3995021e-37
1.3994392e-37
1.3994062e-37
1.3993902e-37
1.3993832e-37
1.3993806e-37
1.3993798e-37
1.3993801e-37
1.3993813e-37
1.3993841e-37
1.3994392e-37
1.3993764e-37
1.3993434e-37
1.3993274e-37
1.3993204e-37
1.3993178e-37
1.3993171e-37
1.3993175e-37
1.399319e-37
1.399323e-37
1.3994062e-37
1.3993434e-37
1.3993103e-37
1.3992943e-37
1.3992874e-37
1.3992848e-37
1.3992841e-37
1.3992846e-37
1.3992864e-37
1.3992907e-37
1.3993902e-37
1.3993274e-37
1.3992943e-37
1.3992783e-37
1.3992714e-37
1.3992688e-37
1.3992682e-37
1.3992688e-37
1.3992706e-37
1.399275e-37
1.3993832e-37
1.3993204e-37
1.3992874e-37
1.3992714e-37
1.3992645e-37
1.3992619e-37
1.3992613e-37
1.3992619e-37
1.3992638e-37
1.3992682e-37
1.3993806e-37
1.3993178e-37
1.3992848e-37
1.3992688e-37
1.3992619e-37
1.3992593e-37
1.3992587e-37
1.3992593e-37
1.3992612e-37
1.3992657e-37
1.3993798e-37
1.3993171e-37
1.3992841e-37
1.3992682e-37
1.3992613e-37
1.3992587e-37
1.3992581e-37
1.3992587e-37
1.3992607e-37
1.3992651e-37
1.3993801e-37
1.3993175e-37
1.3992846e-37
1.3992688e-37
1.3992619e-37
1.3992593e-37
1.3992587e-37
1.3992593e-37
1.3992613e-37
1.3992658e-37
1.3993813e-37
1.399319e-37
1.3992864e-37
1.3992706e-37
1.3992638e-37
1.3992612e-37
1.3992607e-37
1.3992613e-37
1.3992632e-37
1.3992677e-37
1.3993841e-37
1.399323e-37
1.3992907e-37
1.399275e-37
1.3992682e-37
1.3992657e-37
1.3992651e-37
1.3992658e-37
1.3992677e-37
1.3992722e-37
5.616617e-37
5.616374e-37
5.6162457e-37
5.6161836e-37
5.6161565e-37
5.6161463e-37
5.6161434e-37
5.6161444e-37
5.616149e-37
5.6161597e-37
5.616374e-37
5.6161311e-37
5.6160029e-37
5.6159407e-37
5.6159137e-37
5.6159035e-37
5.6159008e-37
5.6159023e-37
5.6159083e-37
5.6159234e-37
5.6162457e-37
5.6160029e-37
5.6158746e-37
5.6158125e-37
5.6157855e-37
5.6157753e-37
5.6157729e-37
5.6157748e-37
5.6157817e-37
5.6157982e-37
5.6161836e-37
5.6159407e-37
5.6158125e-37
5.6157503e-37
5.6157234e-37
5.6157133e-37
5.6157109e-37
5.6157131e-37
5.6157204e-37
5.6157374e-37
5.6161565e-37
5.6159137e-37
5.6157855e-37
5.6157234e-37
5.6156964e-37
5.6156863e-37
5.615684e-37
5.6156863e-37
5.6156938e-37
5.615711e-37
5.6161463e-37
5.6159035e-37
5.6157753e-37
5.6157133e-37
5.6156863e-37
5.6156762e-37
5.615674e-37
5.6156764e-37
5.6156839e-37
5.6157012e-37
5.6161434e-37
5.6159008e-37
5.6157729e-37
5.6157109e-37
5.615684e-37
5.615674e-37
5.6156718e-37
5.6156742e-37
5.6156818e-37
5.6156989e-37
5.6161444e-37
5.6159023e-37
5.6157748e-37
5.6157131e-37
5.6156863e-37
5.6156764e-37
5.6156742e-37
5.6156765e-37
5.6156841e-37
5.6157014e-37
5.616149e-37
5.6159083e-37
5.6157817e-37
5.6157204e-37
5.6156938e-37
5.6156839e-37
5.6156818e-37
5.6156841e-37
5.6156917e-37
5.6157089e-37
5.6161597e-37
5.6159234e-37
5.6157982e-37
5.6157374e-37
5.615711e-37
5.6157012e-37
5.6156989e-37
5.6157014e-37
5.6157089e-37
5.6157262e-37
2.2952733e-36
2.2951776e-36
2.295127e-36
2.2951024e-36
2.2950917e-36
2.2950877e-36
2.2950865e-36
2.295087e-36
2.2950887e-36
2.2950929e-36
2.2951776e-36
2.295082e-36
2.2950314e-36
2.2950068e-36
2.2949961e-36
2.2949921e-36
2.2949911e-36
2.2949917e-36
2.294994e-36
2.2949999e-36
2.295127e-36
2.2950314e-36
2.2949808e-36
2.2949562e-36
2.2949455e-36
2.2949415e-36
2.2949405e-36
2.2949413e-36
2.2949441e-36
2.2949505e-36
2.2951024e-36
2.2950068e-36
2.2949562e-36
2.2949316e-36
2.294921e-36
2.294917e-36
2.2949161e-36
2.2949169e-36
2.2949198e-36
2.2949265e-36
2.2950917e-36
2.2949961e-36
2.2949455e-36
2.294921e-36
2.2949103e-36
2.2949063e-36
2.2949054e-36
2.2949063e-36
2.2949093e-36
2.2949161e-36
2.2950877e-36
2.2949921e-36
2.2949415e-36
2.294917e-36
2.2949063e-36
2.2949023e-36
2.2949015e-36
2.2949024e-36
2.2949054e-36
2.2949122e-36
2.2950865e-36
2.2949911e-36
2.2949405e-36
2.2949161e-36
2.2949054e-36
2.2949015e-36
2.2949006e-36
2.2949015e-36
2.2949046e-36
2.2949113e-36
2.295087e-36
2.2949917e-36
2.2949413e-36
2.2949169e-36
2.2949063e-36
2.2949024e-36
2.2949015e-36
2.2949025e-36
2.2949055e-36
2.2949123e-36
2.2950887e-36
2.294994e-36
2.2949441e-36
2.2949198e-36
2.2949093e-36
2.2949054e-36
2.2949046e-36
2.2949055e-36
2.2949085e-36
2.2949153e-36
2.2950929e-36
2.2949999e-36
2.2949505e-36
2.2949265e-36
2.2949161e-36
2.2949122e-36
2.2949113e-36
2.2949123e-36
2.2949153e-36
2.2949221e-36
9.5502405e-36
9.5498573e-36
9.549654e-36
9.5495552e-36
9.549512e-36
9.5494957e-36
9.5494912e-36
9.5494929e-36
9.5495001e-36
9.5495165e-36
9.5498573e-36
9.5494745e-36
9.5492711e-36
9.5491723e-36
9.5491292e-36
9.549113e-36
9.5491088e-36
9.5491113e-36
9.5491209e-36
9.5491444e-36
9.549654e-36
9.5492711e-36
9.5490678e-36
9.5489689e-36
9.548926e-36
9.5489098e-36
9.5489059e-36
9.5489091e-36
9.5489202e-36
9.5489461e-36
9.5495552e-36
9.5491723e-36
9.5489689e-36
9.5488702e-36
9.5488272e-36
9.5488111e-36
9.5488075e-36
9.548811e-36
9.5488228e-36
9.5488495e-36
9.549512e-36
9.5491292e-36
9.548926e-36
9.5488272e-36
9.5487843e-36
9.5487683e-36
9.5487647e-36
9.5487684e-36
9.5487805e-36
9.5488075e-36
9.5494957e-36
9.549113e-36
9.5489098e-36
9.5488111e-36
9.5487683e-36
9.5487522e-36
9.5487487e-36
9.5487526e-36
9.5487647e-36
9.5487918e-36
9.5494912e-36
9.5491088e-36
9.5489059e-36
9.5488075e-36
9.5487647e-36
9.5487487e-36
9.5487452e-36
9.5487491e-36
9.5487613e-36
9.5487884e-36
9.5494929e-36
9.5491113e-36
9.5489091e-36
9.548811e-36
9.5487684e-36
9.5487526e-36
9.5487491e-36
9.548753e-36
9.5487652e-36
9.5487923e-36
9.5495001e-36
9.5491209e-36
9.5489202e-36
9.5488228e-36
9.5487805e-36
9.5487647e-36
9.5487613e-36
9.5487652e-36
9.5487774e-36
9.5488045e-36
9.5495165e-36
9.5491444e-36
9.5489461e-36
9.5488495e-36
9.5488075e-36
9.5487918e-36
9.5487884e-36
9.5487923e-36
9.5488045e-36
9.5488317e-36
4.0454724e-35
4.0453163e-35
4.0452332e-35
4.0451928e-35
4.0451751e-35
4.0451684e-35
4.0451666e-35
4.0451673e-35
4.0451702e-35
4.0451768e-35
4.0453163e-35
4.0451603e-35
4.0450772e-35
4.0450368e-35
4.0450191e-35
4.0450125e-35
4.0450108e-35
4.0450118e-35
4.0450158e-35
4.0450253e-35
4.0452332e-35
4.0450772e-35
4.0449941e-35
4.0449537e-35
4.0449361e-35
4.0449295e-35
4.0449279e-35
4.0449292e-35
4.0449338e-35
4.0449443e-35
4.0451928e-35
4.0450368e-35
4.0449537e-35
4.0449133e-35
4.0448957e-35
4.0448891e-35
4.0448876e-35
4.0448891e-35
4.0448939e-35
4.0449048e-35
4.0451751e-35
4.0450191e-35
4.0449361e-35
4.0448957e-35
4.0448781e-35
4.0448715e-35
4.0448701e-35
4.0448717e-35
4.0448766e-35
4.0448876e-35
4.0451684e-35
4.0450125e-35
4.0449295e-35
4.0448891e-35
4.0448715e-35
4.044865e-35
4.0448636e-35
4.0448652e-35
4.0448702e-35
4.0448812e-35
4.0451666e-35
4.0450108e-35
4.0449279e-35
4.0448876e-35
4.0448701e-35
4.0448636e-35
4.0448622e-35
4.0448638e-35
4.0448688e-35
4.0448798e-35
4.0451673e-35
4.0450118e-35
4.0449292e-35
4.0448891e-35
4.0448717e-35
4.0448652e-35
4.0448638e-35
4.0448654e-35
4.0448704e-35
4.0448815e-35
4.0451702e-35
4.0450158e-35
4.0449338e-35
4.0448939e-35
4.0448766e-35
4.0448702e-35
4.0448688e-35
4.0448704e-35
4.0448754e-35
4.0448865e-35
4.0451768e-35
4.0450253e-35
4.0449443e-35
4.0449048e-35
4.0448876e-35
4.0448812e-35
4.0448798e-35
4.0448815e-35
4.0448865e-35