/*--------------------------------*- C++ -*----------------------------------*\
| =========                 |                                                 |
| \\      /  F ield         | OpenFOAM: The Open Source CFD Toolbox           |
|  \\    /   O peration     | Version:  dev                                   |
|   \\  /    A nd           | Web:      www.OpenFOAM.org                      |
|    \\/     M anipulation  |                                                 |
\*---------------------------------------------------------------------------*/
FoamFile
{
    version     2.0;
    format      ascii;
    class       volScalarField;
    location    "27";
    object      A_0;
}
// * * * * * * * * * * * * * * * * * * * * * * * * * * * * * * * * * * * * * //

dimensions      [0 0 0 0 1 0 0];

internalField   nonuniform List<scalar> 
10000
(
2.4287154e-46
2.4285316e-46
2.4284416e-46
2.4283992e-46
2.428381e-46
2.4283741e-46
2.4283722e-46
2.4283729e-46
2.4283765e-46
2.4283869e-46
2.4285316e-46
2.4283478e-46
2.4282578e-46
2.4282155e-46
2.4281973e-46
2.4281904e-46
2.4281886e-46
2.4281895e-46
2.4281939e-46
2.4282067e-46
2.4284416e-46
2.4282578e-46
2.4281679e-46
2.4281255e-46
2.4281074e-46
2.4281006e-46
2.4280988e-46
2.4281e-46
2.4281048e-46
2.4281184e-46
2.4283992e-46
2.4282155e-46
2.4281255e-46
2.4280832e-46
2.4280651e-46
2.4280583e-46
2.4280566e-46
2.4280579e-46
2.428063e-46
2.4280768e-46
2.428381e-46
2.4281973e-46
2.4281074e-46
2.4280651e-46
2.4280469e-46
2.4280401e-46
2.4280385e-46
2.4280398e-46
2.428045e-46
2.428059e-46
2.4283741e-46
2.4281904e-46
2.4281006e-46
2.4280583e-46
2.4280401e-46
2.4280334e-46
2.4280317e-46
2.4280331e-46
2.4280383e-46
2.4280523e-46
2.4283722e-46
2.4281886e-46
2.4280988e-46
2.4280566e-46
2.4280385e-46
2.4280317e-46
2.4280301e-46
2.4280315e-46
2.4280367e-46
2.4280507e-46
2.4283729e-46
2.4281895e-46
2.4281e-46
2.4280579e-46
2.4280398e-46
2.4280331e-46
2.4280315e-46
2.4280329e-46
2.4280382e-46
2.4280521e-46
2.4283765e-46
2.4281939e-46
2.4281048e-46
2.428063e-46
2.428045e-46
2.4280383e-46
2.4280367e-46
2.4280382e-46
2.4280434e-46
2.4280574e-46
2.4283869e-46
2.4282067e-46
2.4281184e-46
2.4280768e-46
2.428059e-46
2.4280523e-46
2.4280507e-46
2.4280521e-46
2.4280574e-46
2.4280713e-46
1.0545243e-45
1.0544469e-45
1.0544084e-45
1.0543903e-45
1.0543825e-45
1.0543795e-45
1.0543787e-45
1.054379e-45
1.0543805e-45
1.0543852e-45
1.0544469e-45
1.0543695e-45
1.0543311e-45
1.054313e-45
1.0543052e-45
1.0543022e-45
1.0543014e-45
1.0543018e-45
1.0543037e-45
1.0543094e-45
1.0544084e-45
1.0543311e-45
1.0542927e-45
1.0542745e-45
1.0542667e-45
1.0542638e-45
1.0542631e-45
1.0542636e-45
1.0542656e-45
1.0542716e-45
1.0543903e-45
1.054313e-45
1.0542745e-45
1.0542564e-45
1.0542486e-45
1.0542457e-45
1.054245e-45
1.0542456e-45
1.0542477e-45
1.0542538e-45
1.0543825e-45
1.0543052e-45
1.0542667e-45
1.0542486e-45
1.0542409e-45
1.0542379e-45
1.0542372e-45
1.0542378e-45
1.05424e-45
1.0542462e-45
1.0543795e-45
1.0543022e-45
1.0542638e-45
1.0542457e-45
1.0542379e-45
1.054235e-45
1.0542344e-45
1.0542349e-45
1.0542372e-45
1.0542433e-45
1.0543787e-45
1.0543014e-45
1.0542631e-45
1.054245e-45
1.0542372e-45
1.0542344e-45
1.0542337e-45
1.0542343e-45
1.0542365e-45
1.0542426e-45
1.054379e-45
1.0543018e-45
1.0542636e-45
1.0542456e-45
1.0542378e-45
1.0542349e-45
1.0542343e-45
1.0542349e-45
1.0542371e-45
1.0542432e-45
1.0543805e-45
1.0543037e-45
1.0542656e-45
1.0542477e-45
1.05424e-45
1.0542372e-45
1.0542365e-45
1.0542371e-45
1.0542393e-45
1.0542455e-45
1.0543852e-45
1.0543094e-45
1.0542716e-45
1.0542538e-45
1.0542462e-45
1.0542433e-45
1.0542426e-45
1.0542432e-45
1.0542455e-45
1.0542516e-45
3.3318211e-45
3.3315837e-45
3.331465e-45
3.3314089e-45
3.3313848e-45
3.3313756e-45
3.331373e-45
3.3313739e-45
3.3313786e-45
3.3313929e-45
3.3315837e-45
3.3313464e-45
3.3312277e-45
3.3311716e-45
3.3311475e-45
3.3311384e-45
3.331136e-45
3.3311372e-45
3.331143e-45
3.3311604e-45
3.331465e-45
3.3312277e-45
3.331109e-45
3.331053e-45
3.3310289e-45
3.3310198e-45
3.3310175e-45
3.3310191e-45
3.3310255e-45
3.331044e-45
3.3314089e-45
3.3311716e-45
3.331053e-45
3.3309969e-45
3.3309729e-45
3.3309638e-45
3.3309616e-45
3.3309634e-45
3.33097e-45
3.3309889e-45
3.3313848e-45
3.3311475e-45
3.3310289e-45
3.3309729e-45
3.3309488e-45
3.3309398e-45
3.3309376e-45
3.3309394e-45
3.3309463e-45
3.3309653e-45
3.3313756e-45
3.3311384e-45
3.3310198e-45
3.3309638e-45
3.3309398e-45
3.3309308e-45
3.3309287e-45
3.3309305e-45
3.3309374e-45
3.3309564e-45
3.331373e-45
3.331136e-45
3.3310175e-45
3.3309616e-45
3.3309376e-45
3.3309287e-45
3.3309265e-45
3.3309284e-45
3.3309353e-45
3.3309543e-45
3.3313739e-45
3.3311372e-45
3.3310191e-45
3.3309634e-45
3.3309394e-45
3.3309305e-45
3.3309284e-45
3.3309303e-45
3.3309372e-45
3.3309562e-45
3.3313786e-45
3.331143e-45
3.3310255e-45
3.33097e-45
3.3309463e-45
3.3309374e-45
3.3309353e-45
3.3309372e-45
3.3309441e-45
3.3309631e-45
3.3313929e-45
3.3311604e-45
3.331044e-45
3.3309889e-45
3.3309653e-45
3.3309564e-45
3.3309543e-45
3.3309562e-45
3.3309631e-45
3.3309821e-45
1.0401272e-44
1.0400553e-44
1.0400192e-44
1.0400021e-44
1.0399947e-44
1.0399919e-44
1.0399912e-44
1.0399914e-44
1.0399928e-44
1.0399971e-44
1.0400553e-44
1.0399834e-44
1.0399473e-44
1.0399302e-44
1.0399229e-44
1.0399201e-44
1.0399193e-44
1.0399197e-44
1.0399215e-44
1.0399267e-44
1.0400192e-44
1.0399473e-44
1.0399112e-44
1.0398941e-44
1.0398868e-44
1.039884e-44
1.0398833e-44
1.0398838e-44
1.0398857e-44
1.0398913e-44
1.0400021e-44
1.0399302e-44
1.0398941e-44
1.039877e-44
1.0398697e-44
1.0398669e-44
1.0398663e-44
1.0398668e-44
1.0398688e-44
1.0398745e-44
1.0399947e-44
1.0399229e-44
1.0398868e-44
1.0398697e-44
1.0398623e-44
1.0398596e-44
1.0398589e-44
1.0398595e-44
1.0398616e-44
1.0398673e-44
1.0399919e-44
1.0399201e-44
1.039884e-44
1.0398669e-44
1.0398596e-44
1.0398569e-44
1.0398562e-44
1.0398568e-44
1.0398589e-44
1.0398646e-44
1.0399912e-44
1.0399193e-44
1.0398833e-44
1.0398663e-44
1.0398589e-44
1.0398562e-44
1.0398556e-44
1.0398561e-44
1.0398582e-44
1.0398639e-44
1.0399914e-44
1.0399197e-44
1.0398838e-44
1.0398668e-44
1.0398595e-44
1.0398568e-44
1.0398561e-44
1.0398567e-44
1.0398588e-44
1.0398645e-44
1.0399928e-44
1.0399215e-44
1.0398857e-44
1.0398688e-44
1.0398616e-44
1.0398589e-44
1.0398582e-44
1.0398588e-44
1.0398609e-44
1.0398666e-44
1.0399971e-44
1.0399267e-44
1.0398913e-44
1.0398745e-44
1.0398673e-44
1.0398646e-44
1.0398639e-44
1.0398645e-44
1.0398666e-44
1.0398723e-44
3.2956502e-44
3.2954292e-44
3.2953177e-44
3.2952648e-44
3.2952421e-44
3.2952334e-44
3.295231e-44
3.2952318e-44
3.2952361e-44
3.2952489e-44
3.2954292e-44
3.2952082e-44
3.2950968e-44
3.2950439e-44
3.2950212e-44
3.2950126e-44
3.2950103e-44
3.2950115e-44
3.2950168e-44
3.2950326e-44
3.2953177e-44
3.2950968e-44
3.2949854e-44
3.2949325e-44
3.2949098e-44
3.2949012e-44
3.2948991e-44
3.2949005e-44
3.2949065e-44
3.2949233e-44
3.2952648e-44
3.2950439e-44
3.2949325e-44
3.2948797e-44
3.294857e-44
3.2948484e-44
3.2948464e-44
3.294848e-44
3.2948543e-44
3.2948714e-44
3.2952421e-44
3.2950212e-44
3.2949098e-44
3.294857e-44
3.2948343e-44
3.2948257e-44
3.2948237e-44
3.2948255e-44
3.2948318e-44
3.2948491e-44
3.2952334e-44
3.2950126e-44
3.2949012e-44
3.2948484e-44
3.2948257e-44
3.2948173e-44
3.2948153e-44
3.294817e-44
3.2948234e-44
3.2948408e-44
3.295231e-44
3.2950103e-44
3.2948991e-44
3.2948464e-44
3.2948237e-44
3.2948153e-44
3.2948133e-44
3.294815e-44
3.2948215e-44
3.2948388e-44
3.2952318e-44
3.2950115e-44
3.2949005e-44
3.294848e-44
3.2948255e-44
3.294817e-44
3.294815e-44
3.2948168e-44
3.2948233e-44
3.2948406e-44
3.2952361e-44
3.2950168e-44
3.2949065e-44
3.2948543e-44
3.2948318e-44
3.2948234e-44
3.2948215e-44
3.2948233e-44
3.2948297e-44
3.294847e-44
3.2952489e-44
3.2950326e-44
3.2949233e-44
3.2948714e-44
3.2948491e-44
3.2948408e-44
3.2948388e-44
3.2948406e-44
3.294847e-44
3.2948644e-44
1.0628789e-43
1.0628098e-43
1.0627748e-43
1.0627582e-43
1.062751e-43
1.0627483e-43
1.0627475e-43
1.0627478e-43
1.0627491e-43
1.062753e-43
1.0628098e-43
1.0627407e-43
1.0627057e-43
1.0626891e-43
1.0626819e-43
1.0626792e-43
1.0626785e-43
1.0626789e-43
1.0626805e-43
1.0626854e-43
1.0627748e-43
1.0627057e-43
1.0626707e-43
1.0626541e-43
1.0626469e-43
1.0626443e-43
1.0626436e-43
1.062644e-43
1.0626459e-43
1.0626511e-43
1.0627582e-43
1.0626891e-43
1.0626541e-43
1.0626375e-43
1.0626303e-43
1.0626277e-43
1.062627e-43
1.0626275e-43
1.0626295e-43
1.0626348e-43
1.062751e-43
1.0626819e-43
1.0626469e-43
1.0626303e-43
1.0626232e-43
1.0626205e-43
1.0626199e-43
1.0626204e-43
1.0626224e-43
1.0626277e-43
1.0627483e-43
1.0626792e-43
1.0626443e-43
1.0626277e-43
1.0626205e-43
1.0626178e-43
1.0626172e-43
1.0626178e-43
1.0626198e-43
1.0626251e-43
1.0627475e-43
1.0626785e-43
1.0626436e-43
1.062627e-43
1.0626199e-43
1.0626172e-43
1.0626166e-43
1.0626171e-43
1.0626192e-43
1.0626245e-43
1.0627478e-43
1.0626789e-43
1.062644e-43
1.0626275e-43
1.0626204e-43
1.0626178e-43
1.0626171e-43
1.0626177e-43
1.0626197e-43
1.0626251e-43
1.0627491e-43
1.0626805e-43
1.0626459e-43
1.0626295e-43
1.0626224e-43
1.0626198e-43
1.0626192e-43
1.0626197e-43
1.0626217e-43
1.0626271e-43
1.062753e-43
1.0626854e-43
1.0626511e-43
1.0626348e-43
1.0626277e-43
1.0626251e-43
1.0626245e-43
1.0626251e-43
1.0626271e-43
1.0626324e-43
3.4903337e-43
3.4901138e-43
3.490002e-43
3.4899487e-43
3.4899258e-43
3.489917e-43
3.4899146e-43
3.4899154e-43
3.4899197e-43
3.4899318e-43
3.4901138e-43
3.4898939e-43
3.4897821e-43
3.4897289e-43
3.489706e-43
3.4896973e-43
3.489695e-43
3.4896962e-43
3.4897014e-43
3.4897167e-43
3.490002e-43
3.4897821e-43
3.4896704e-43
3.4896171e-43
3.4895942e-43
3.4895856e-43
3.4895834e-43
3.4895849e-43
3.4895908e-43
3.4896071e-43
3.4899487e-43
3.4897289e-43
3.4896171e-43
3.489564e-43
3.4895411e-43
3.4895325e-43
3.4895304e-43
3.4895321e-43
3.4895383e-43
3.4895549e-43
3.4899258e-43
3.489706e-43
3.4895942e-43
3.4895411e-43
3.4895182e-43
3.4895096e-43
3.4895075e-43
3.4895093e-43
3.4895157e-43
3.4895324e-43
3.489917e-43
3.4896973e-43
3.4895856e-43
3.4895325e-43
3.4895096e-43
3.489501e-43
3.489499e-43
3.4895008e-43
3.4895072e-43
3.489524e-43
3.4899146e-43
3.489695e-43
3.4895834e-43
3.4895304e-43
3.4895075e-43
3.489499e-43
3.489497e-43
3.4894988e-43
3.4895052e-43
3.489522e-43
3.4899154e-43
3.4896962e-43
3.4895849e-43
3.4895321e-43
3.4895093e-43
3.4895008e-43
3.4894988e-43
3.4895006e-43
3.4895071e-43
3.4895239e-43
3.4899197e-43
3.4897014e-43
3.4895908e-43
3.4895383e-43
3.4895157e-43
3.4895072e-43
3.4895052e-43
3.4895071e-43
3.4895135e-43
3.4895303e-43
3.4899318e-43
3.4897167e-43
3.4896071e-43
3.4895549e-43
3.4895324e-43
3.489524e-43
3.489522e-43
3.4895239e-43
3.4895303e-43
3.4895471e-43
1.1671584e-42
1.1670872e-42
1.1670508e-42
1.1670335e-42
1.167026e-42
1.1670231e-42
1.1670223e-42
1.1670226e-42
1.167024e-42
1.1670278e-42
1.1670872e-42
1.1670159e-42
1.1669796e-42
1.1669623e-42
1.1669548e-42
1.1669519e-42
1.1669512e-42
1.1669516e-42
1.1669533e-42
1.1669582e-42
1.1670508e-42
1.1669796e-42
1.1669432e-42
1.1669259e-42
1.1669184e-42
1.1669156e-42
1.1669149e-42
1.1669154e-42
1.1669173e-42
1.1669225e-42
1.1670335e-42
1.1669623e-42
1.1669259e-42
1.1669086e-42
1.1669011e-42
1.1668983e-42
1.1668976e-42
1.1668982e-42
1.1669002e-42
1.1669055e-42
1.167026e-42
1.1669548e-42
1.1669184e-42
1.1669011e-42
1.1668937e-42
1.1668909e-42
1.1668902e-42
1.1668908e-42
1.1668928e-42
1.1668982e-42
1.1670231e-42
1.1669519e-42
1.1669156e-42
1.1668983e-42
1.1668909e-42
1.1668881e-42
1.1668874e-42
1.166888e-42
1.1668901e-42
1.1668955e-42
1.1670223e-42
1.1669512e-42
1.1669149e-42
1.1668976e-42
1.1668902e-42
1.1668874e-42
1.1668868e-42
1.1668874e-42
1.1668894e-42
1.1668948e-42
1.1670226e-42
1.1669516e-42
1.1669154e-42
1.1668982e-42
1.1668908e-42
1.166888e-42
1.1668874e-42
1.166888e-42
1.16689e-42
1.1668954e-42
1.167024e-42
1.1669533e-42
1.1669173e-42
1.1669002e-42
1.1668928e-42
1.1668901e-42
1.1668894e-42
1.16689e-42
1.1668921e-42
1.1668975e-42
1.1670278e-42
1.1669582e-42
1.1669225e-42
1.1669055e-42
1.1668982e-42
1.1668955e-42
1.1668948e-42
1.1668954e-42
1.1668975e-42
1.1669029e-42
3.9746309e-42
3.9743959e-42
3.9742756e-42
3.9742181e-42
3.9741932e-42
3.9741838e-42
3.9741811e-42
3.974182e-42
3.9741865e-42
3.9741989e-42
3.9743959e-42
3.974161e-42
3.9740407e-42
3.9739832e-42
3.9739584e-42
3.973949e-42
3.9739465e-42
3.9739478e-42
3.9739535e-42
3.9739693e-42
3.9742756e-42
3.9740407e-42
3.9739204e-42
3.9738629e-42
3.9738382e-42
3.9738288e-42
3.9738265e-42
3.9738281e-42
3.9738345e-42
3.9738514e-42
3.9742181e-42
3.9739832e-42
3.9738629e-42
3.9738055e-42
3.9737807e-42
3.9737714e-42
3.9737692e-42
3.973771e-42
3.9737777e-42
3.9737951e-42
3.9741932e-42
3.9739584e-42
3.9738382e-42
3.9737807e-42
3.9737559e-42
3.9737466e-42
3.9737445e-42
3.9737464e-42
3.9737532e-42
3.9737708e-42
3.9741838e-42
3.973949e-42
3.9738288e-42
3.9737714e-42
3.9737466e-42
3.9737374e-42
3.9737352e-42
3.9737372e-42
3.9737441e-42
3.9737617e-42
3.9741811e-42
3.9739465e-42
3.9738265e-42
3.9737692e-42
3.9737445e-42
3.9737352e-42
3.9737331e-42
3.9737351e-42
3.973742e-42
3.9737595e-42
3.974182e-42
3.9739478e-42
3.9738281e-42
3.973771e-42
3.9737464e-42
3.9737372e-42
3.9737351e-42
3.9737371e-42
3.973744e-42
3.9737615e-42
3.9741865e-42
3.9739535e-42
3.9738345e-42
3.9737777e-42
3.9737532e-42
3.9737441e-42
3.973742e-42
3.973744e-42
3.9737509e-42
3.9737685e-42
3.9741989e-42
3.9739693e-42
3.9738514e-42
3.9737951e-42
3.9737708e-42
3.9737617e-42
3.9737595e-42
3.9737615e-42
3.9737685e-42
3.973786e-42
1.3784373e-41
1.3783584e-41
1.3783179e-41
1.3782985e-41
1.3782901e-41
1.3782869e-41
1.378286e-41
1.3782863e-41
1.3782878e-41
1.3782919e-41
1.3783584e-41
1.3782796e-41
1.3782391e-41
1.3782197e-41
1.3782113e-41
1.3782081e-41
1.3782073e-41
1.3782077e-41
1.3782096e-41
1.3782148e-41
1.3783179e-41
1.3782391e-41
1.3781985e-41
1.3781791e-41
1.3781708e-41
1.3781676e-41
1.3781668e-41
1.3781674e-41
1.3781695e-41
1.3781751e-41
1.3782985e-41
1.3782197e-41
1.3781791e-41
1.3781597e-41
1.3781514e-41
1.3781482e-41
1.3781475e-41
1.3781481e-41
1.3781503e-41
1.3781561e-41
1.3782901e-41
1.3782113e-41
1.3781708e-41
1.3781514e-41
1.378143e-41
1.3781399e-41
1.3781391e-41
1.3781398e-41
1.3781421e-41
1.3781479e-41
1.3782869e-41
1.3782081e-41
1.3781676e-41
1.3781482e-41
1.3781399e-41
1.3781367e-41
1.378136e-41
1.3781367e-41
1.378139e-41
1.3781448e-41
1.378286e-41
1.3782073e-41
1.3781668e-41
1.3781475e-41
1.3781391e-41
1.378136e-41
1.3781353e-41
1.378136e-41
1.3781383e-41
1.3781441e-41
1.3782863e-41
1.3782077e-41
1.3781674e-41
1.3781481e-41
1.3781398e-41
1.3781367e-41
1.378136e-41
1.3781367e-41
1.378139e-41
1.3781448e-41
1.3782878e-41
1.3782096e-41
1.3781695e-41
1.3781503e-41
1.3781421e-41
1.378139e-41
1.3781383e-41
1.378139e-41
1.3781413e-41
1.3781471e-41
1.3782919e-41
1.3782148e-41
1.3781751e-41
1.3781561e-41
1.3781479e-41
1.3781448e-41
1.3781441e-41
1.3781448e-41
1.3781471e-41
1.378153e-41
4.8687206e-41
4.8684511e-41
4.868312e-41
4.8682454e-41
4.8682166e-41
4.8682055e-41
4.8682025e-41
4.8682036e-41
4.8682087e-41
4.8682222e-41
4.8684511e-41
4.8681817e-41
4.8680427e-41
4.867976e-41
4.8679472e-41
4.8679363e-41
4.8679334e-41
4.8679349e-41
4.8679414e-41
4.8679592e-41
4.868312e-41
4.8680427e-41
4.8679037e-41
4.867837e-41
4.8678083e-41
4.8677974e-41
4.8677947e-41
4.8677967e-41
4.867804e-41
4.8678231e-41
4.8682454e-41
4.867976e-41
4.867837e-41
4.8677704e-41
4.8677417e-41
4.8677309e-41
4.8677283e-41
4.8677304e-41
4.8677382e-41
4.8677578e-41
4.8682166e-41
4.8679472e-41
4.8678083e-41
4.8677417e-41
4.8677129e-41
4.8677021e-41
4.8676996e-41
4.8677019e-41
4.8677098e-41
4.8677295e-41
4.8682055e-41
4.8679363e-41
4.8677974e-41
4.8677309e-41
4.8677021e-41
4.8676914e-41
4.8676889e-41
4.8676912e-41
4.8676992e-41
4.867719e-41
4.8682025e-41
4.8679334e-41
4.8677947e-41
4.8677283e-41
4.8676996e-41
4.8676889e-41
4.8676864e-41
4.8676888e-41
4.8676968e-41
4.8677165e-41
4.8682036e-41
4.8679349e-41
4.8677967e-41
4.8677304e-41
4.8677019e-41
4.8676912e-41
4.8676888e-41
4.8676911e-41
4.8676991e-41
4.8677189e-41
4.8682087e-41
4.8679414e-41
4.867804e-41
4.8677382e-41
4.8677098e-41
4.8676992e-41
4.8676968e-41
4.8676991e-41
4.8677071e-41
4.8677269e-41
4.8682222e-41
4.8679592e-41
4.8678231e-41
4.8677578e-41
4.8677295e-41
4.867719e-41
4.8677165e-41
4.8677189e-41
4.8677269e-41
4.8677467e-41
1.7514182e-40
1.7513245e-40
1.7512759e-40
1.7512526e-40
1.7512425e-40
1.7512387e-40
1.7512376e-40
1.751238e-40
1.7512398e-40
1.7512444e-40
1.7513245e-40
1.7512307e-40
1.7511822e-40
1.7511589e-40
1.7511488e-40
1.751145e-40
1.751144e-40
1.7511445e-40
1.7511468e-40
1.7511529e-40
1.7512759e-40
1.7511822e-40
1.7511337e-40
1.7511104e-40
1.7511003e-40
1.7510965e-40
1.7510956e-40
1.7510963e-40
1.7510988e-40
1.7511054e-40
1.7512526e-40
1.7511589e-40
1.7511104e-40
1.7510871e-40
1.751077e-40
1.7510733e-40
1.7510724e-40
1.7510731e-40
1.7510758e-40
1.7510826e-40
1.7512425e-40
1.7511488e-40
1.7511003e-40
1.751077e-40
1.751067e-40
1.7510632e-40
1.7510623e-40
1.7510631e-40
1.7510659e-40
1.7510727e-40
1.7512387e-40
1.751145e-40
1.7510965e-40
1.7510733e-40
1.7510632e-40
1.7510594e-40
1.7510586e-40
1.7510594e-40
1.7510622e-40
1.751069e-40
1.7512376e-40
1.751144e-40
1.7510956e-40
1.7510724e-40
1.7510623e-40
1.7510586e-40
1.7510577e-40
1.7510585e-40
1.7510613e-40
1.7510682e-40
1.751238e-40
1.7511445e-40
1.7510963e-40
1.7510731e-40
1.7510631e-40
1.7510594e-40
1.7510585e-40
1.7510594e-40
1.7510622e-40
1.751069e-40
1.7512398e-40
1.7511468e-40
1.7510988e-40
1.7510758e-40
1.7510659e-40
1.7510622e-40
1.7510613e-40
1.7510622e-40
1.751065e-40
1.7510718e-40
1.7512444e-40
1.7511529e-40
1.7511054e-40
1.7510826e-40
1.7510727e-40
1.751069e-40
1.7510682e-40
1.751069e-40
1.7510718e-40
1.7510786e-40
6.4167711e-40
6.4164391e-40
6.4162667e-40
6.4161838e-40
6.4161478e-40
6.4161341e-40
6.4161303e-40
6.4161316e-40
6.4161379e-40
6.4161539e-40
6.4164391e-40
6.4161073e-40
6.4159349e-40
6.415852e-40
6.415816e-40
6.4158024e-40
6.4157989e-40
6.4158008e-40
6.4158088e-40
6.4158302e-40
6.4162667e-40
6.4159349e-40
6.4157625e-40
6.4156796e-40
6.4156437e-40
6.4156302e-40
6.4156269e-40
6.4156293e-40
6.4156384e-40
6.4156615e-40
6.4161838e-40
6.415852e-40
6.4156796e-40
6.4155967e-40
6.4155608e-40
6.4155473e-40
6.4155441e-40
6.4155469e-40
6.4155565e-40
6.4155803e-40
6.4161478e-40
6.415816e-40
6.4156437e-40
6.4155608e-40
6.415525e-40
6.4155115e-40
6.4155084e-40
6.4155113e-40
6.4155211e-40
6.4155451e-40
6.4161341e-40
6.4158024e-40
6.4156302e-40
6.4155473e-40
6.4155115e-40
6.4154981e-40
6.4154951e-40
6.415498e-40
6.415508e-40
6.415532e-40
6.4161303e-40
6.4157989e-40
6.4156269e-40
6.4155441e-40
6.4155084e-40
6.4154951e-40
6.415492e-40
6.415495e-40
6.415505e-40
6.4155289e-40
6.4161316e-40
6.4158008e-40
6.4156293e-40
6.4155469e-40
6.4155113e-40
6.415498e-40
6.415495e-40
6.415498e-40
6.4155079e-40
6.4155319e-40
6.4161379e-40
6.4158088e-40
6.4156384e-40
6.4155565e-40
6.4155211e-40
6.415508e-40
6.415505e-40
6.4155079e-40
6.4155179e-40
6.4155419e-40
6.4161539e-40
6.4158302e-40
6.4156615e-40
6.4155803e-40
6.4155451e-40
6.415532e-40
6.4155289e-40
6.4155319e-40
6.4155419e-40
6.415566e-40
2.3943859e-39
2.3942662e-39
2.3942038e-39
2.3941738e-39
2.3941608e-39
2.3941558e-39
2.3941544e-39
2.3941549e-39
2.3941572e-39
2.3941628e-39
2.3942662e-39
2.3941466e-39
2.3940842e-39
2.3940542e-39
2.3940412e-39
2.3940362e-39
2.394035e-39
2.3940357e-39
2.3940385e-39
2.3940462e-39
2.3942038e-39
2.3940842e-39
2.3940219e-39
2.3939918e-39
2.3939788e-39
2.3939739e-39
2.3939727e-39
2.3939736e-39
2.3939769e-39
2.3939852e-39
2.3941738e-39
2.3940542e-39
2.3939918e-39
2.3939618e-39
2.3939488e-39
2.3939439e-39
2.3939428e-39
2.3939438e-39
2.3939473e-39
2.3939558e-39
2.3941608e-39
2.3940412e-39
2.3939788e-39
2.3939488e-39
2.3939358e-39
2.393931e-39
2.3939298e-39
2.3939309e-39
2.3939345e-39
2.393943e-39
2.3941558e-39
2.3940362e-39
2.3939739e-39
2.3939439e-39
2.393931e-39
2.3939261e-39
2.393925e-39
2.3939261e-39
2.3939297e-39
2.3939383e-39
2.3941544e-39
2.394035e-39
2.3939727e-39
2.3939428e-39
2.3939298e-39
2.393925e-39
2.3939239e-39
2.393925e-39
2.3939286e-39
2.3939372e-39
2.3941549e-39
2.3940357e-39
2.3939736e-39
2.3939438e-39
2.3939309e-39
2.3939261e-39
2.393925e-39
2.3939261e-39
2.3939297e-39
2.3939383e-39
2.3941572e-39
2.3940385e-39
2.3939769e-39
2.3939473e-39
2.3939345e-39
2.3939297e-39
2.3939286e-39
2.3939297e-39
2.3939333e-39
2.3939419e-39
2.3941628e-39
2.3940462e-39
2.3939852e-39
2.3939558e-39
2.393943e-39
2.3939383e-39
2.3939372e-39
2.3939383e-39
2.3939419e-39
2.3939505e-39
9.0994749e-39
9.0990358e-39
9.0988063e-39
9.0986955e-39
9.0986474e-39
9.0986291e-39
9.0986241e-39
9.0986258e-39
9.0986341e-39
9.0986544e-39
9.0990358e-39
9.098597e-39
9.0983674e-39
9.0982566e-39
9.0982086e-39
9.0981904e-39
9.0981857e-39
9.0981883e-39
9.0981989e-39
9.0982267e-39
9.0988063e-39
9.0983674e-39
9.0981379e-39
9.0980271e-39
9.0979792e-39
9.0979611e-39
9.0979566e-39
9.0979599e-39
9.0979721e-39
9.0980023e-39
9.0986955e-39
9.0982566e-39
9.0980271e-39
9.0979164e-39
9.0978684e-39
9.0978504e-39
9.0978462e-39
9.09785e-39
9.0978629e-39
9.0978939e-39
9.0986474e-39
9.0982086e-39
9.0979792e-39
9.0978684e-39
9.0978205e-39
9.0978026e-39
9.0977984e-39
9.0978023e-39
9.0978156e-39
9.0978469e-39
9.0986291e-39
9.0981904e-39
9.0979611e-39
9.0978504e-39
9.0978026e-39
9.0977847e-39
9.0977806e-39
9.0977846e-39
9.097798e-39
9.0978294e-39
9.0986241e-39
9.0981857e-39
9.0979566e-39
9.0978462e-39
9.0977984e-39
9.0977806e-39
9.0977765e-39
9.0977806e-39
9.097794e-39
9.0978253e-39
9.0986258e-39
9.0981883e-39
9.0979599e-39
9.09785e-39
9.0978023e-39
9.0977846e-39
9.0977806e-39
9.0977847e-39
9.0977981e-39
9.0978295e-39
9.0986341e-39
9.0981989e-39
9.0979721e-39
9.0978629e-39
9.0978156e-39
9.097798e-39
9.097794e-39
9.0977981e-39
9.0978114e-39
9.0978428e-39
9.0986544e-39
9.0982267e-39
9.0980023e-39
9.0978939e-39
9.0978469e-39
9.0978294e-39
9.0978253e-39
9.0978295e-39
9.0978428e-39
9.0978743e-39
3.5218515e-38
3.5216875e-38
3.5216015e-38
3.5215599e-38
3.5215418e-38
3.521535e-38
3.5215331e-38
3.5215338e-38
3.5215368e-38
3.5215443e-38
3.5216875e-38
3.5215236e-38
3.5214376e-38
3.521396e-38
3.521378e-38
3.5213711e-38
3.5213694e-38
3.5213704e-38
3.5213743e-38
3.5213846e-38
3.5216015e-38
3.5214376e-38
3.5213516e-38
3.52131e-38
3.521292e-38
3.5212852e-38
3.5212836e-38
3.5212848e-38
3.5212894e-38
3.5213006e-38
3.5215599e-38
3.521396e-38
3.52131e-38
3.5212685e-38
3.5212505e-38
3.5212437e-38
3.5212421e-38
3.5212436e-38
3.5212484e-38
3.52126e-38
3.5215418e-38
3.521378e-38
3.521292e-38
3.5212505e-38
3.5212325e-38
3.5212257e-38
3.5212242e-38
3.5212257e-38
3.5212306e-38
3.5212423e-38
3.521535e-38
3.5213711e-38
3.5212852e-38
3.5212437e-38
3.5212257e-38
3.521219e-38
3.5212175e-38
3.521219e-38
3.521224e-38
3.5212357e-38
3.5215331e-38
3.5213694e-38
3.5212836e-38
3.5212421e-38
3.5212242e-38
3.5212175e-38
3.521216e-38
3.5212175e-38
3.5212226e-38
3.5212342e-38
3.5215338e-38
3.5213704e-38
3.5212848e-38
3.5212436e-38
3.5212257e-38
3.521219e-38
3.5212175e-38
3.5212191e-38
3.5212241e-38
3.5212358e-38
3.5215368e-38
3.5213743e-38
3.5212894e-38
3.5212484e-38
3.5212306e-38
3.521224e-38
3.5212226e-38
3.5212241e-38
3.5212291e-38
3.5212408e-38
3.5215443e-38
3.5213846e-38
3.5213006e-38
3.52126e-38
3.5212423e-38
3.5212357e-38
3.5212342e-38
3.5212358e-38
3.5212408e-38
3.5212525e-38
1.3881619e-37
1.3880996e-37
1.3880668e-37
1.3880509e-37
1.388044e-37
1.3880414e-37
1.3880407e-37
1.3880409e-37
1.3880421e-37
1.3880449e-37
1.3880996e-37
1.3880373e-37
1.3880045e-37
1.3879886e-37
1.3879817e-37
1.3879791e-37
1.3879784e-37
1.3879788e-37
1.3879803e-37
1.3879842e-37
1.3880668e-37
1.3880045e-37
1.3879717e-37
1.3879558e-37
1.3879489e-37
1.3879463e-37
1.3879457e-37
1.3879462e-37
1.3879479e-37
1.3879522e-37
1.3880509e-37
1.3879886e-37
1.3879558e-37
1.3879399e-37
1.3879331e-37
1.3879305e-37
1.3879299e-37
1.3879304e-37
1.3879323e-37
1.3879367e-37
1.388044e-37
1.3879817e-37
1.3879489e-37
1.3879331e-37
1.3879262e-37
1.3879236e-37
1.387923e-37
1.3879236e-37
1.3879255e-37
1.3879299e-37
1.3880414e-37
1.3879791e-37
1.3879463e-37
1.3879305e-37
1.3879236e-37
1.387921e-37
1.3879205e-37
1.3879211e-37
1.387923e-37
1.3879274e-37
1.3880407e-37
1.3879784e-37
1.3879457e-37
1.3879299e-37
1.387923e-37
1.3879205e-37
1.3879199e-37
1.3879205e-37
1.3879224e-37
1.3879268e-37
1.3880409e-37
1.3879788e-37
1.3879462e-37
1.3879304e-37
1.3879236e-37
1.3879211e-37
1.3879205e-37
1.3879211e-37
1.387923e-37
1.3879275e-37
1.3880421e-37
1.3879803e-37
1.3879479e-37
1.3879323e-37
1.3879255e-37
1.387923e-37
1.3879224e-37
1.387923e-37
1.3879249e-37
1.3879294e-37
1.3880449e-37
1.3879842e-37
1.3879522e-37
1.3879367e-37
1.3879299e-37
1.3879274e-37
1.3879268e-37
1.3879275e-37
1.3879294e-37
1.3879338e-37
5.5718463e-37
5.5716051e-37
5.5714779e-37
5.5714162e-37
5.5713893e-37
5.5713792e-37
5.5713764e-37
5.5713774e-37
5.5713819e-37
5.5713925e-37
5.5716051e-37
5.5713641e-37
5.5712369e-37
5.5711752e-37
5.5711484e-37
5.5711382e-37
5.5711356e-37
5.5711371e-37
5.571143e-37
5.571158e-37
5.5714779e-37
5.5712369e-37
5.5711096e-37
5.5710479e-37
5.5710212e-37
5.5710111e-37
5.5710086e-37
5.5710106e-37
5.5710174e-37
5.5710338e-37
5.5714162e-37
5.5711752e-37
5.5710479e-37
5.5709863e-37
5.5709595e-37
5.5709495e-37
5.5709472e-37
5.5709493e-37
5.5709566e-37
5.5709735e-37
5.5713893e-37
5.5711484e-37
5.5710212e-37
5.5709595e-37
5.5709328e-37
5.5709228e-37
5.5709205e-37
5.5709228e-37
5.5709302e-37
5.5709473e-37
5.5713792e-37
5.5711382e-37
5.5710111e-37
5.5709495e-37
5.5709228e-37
5.5709128e-37
5.5709106e-37
5.5709129e-37
5.5709204e-37
5.5709375e-37
5.5713764e-37
5.5711356e-37
5.5710086e-37
5.5709472e-37
5.5709205e-37
5.5709106e-37
5.5709084e-37
5.5709107e-37
5.5709183e-37
5.5709353e-37
5.5713774e-37
5.5711371e-37
5.5710106e-37
5.5709493e-37
5.5709228e-37
5.5709129e-37
5.5709107e-37
5.5709131e-37
5.5709206e-37
5.5709377e-37
5.5713819e-37
5.571143e-37
5.5710174e-37
5.5709566e-37
5.5709302e-37
5.5709204e-37
5.5709183e-37
5.5709206e-37
5.5709281e-37
5.5709452e-37
5.5713925e-37
5.571158e-37
5.5710338e-37
5.5709735e-37
5.5709473e-37
5.5709375e-37
5.5709353e-37
5.5709377e-37
5.5709452e-37
5.5709624e-37
2.2772828e-36
2.2771879e-36
2.2771376e-36
2.2771132e-36
2.2771026e-36
2.2770986e-36
2.2770975e-36
2.2770979e-36
2.2770996e-36
2.2771038e-36
2.2771879e-36
2.277093e-36
2.2770427e-36
2.2770184e-36
2.2770077e-36
2.2770037e-36
2.2770027e-36
2.2770033e-36
2.2770056e-36
2.2770115e-36
2.2771376e-36
2.2770427e-36
2.2769925e-36
2.2769681e-36
2.2769575e-36
2.2769535e-36
2.2769526e-36
2.2769533e-36
2.2769561e-36
2.2769625e-36
2.2771132e-36
2.2770184e-36
2.2769681e-36
2.2769437e-36
2.2769332e-36
2.2769292e-36
2.2769283e-36
2.2769291e-36
2.276932e-36
2.2769387e-36
2.2771026e-36
2.2770077e-36
2.2769575e-36
2.2769332e-36
2.2769226e-36
2.2769186e-36
2.2769177e-36
2.2769186e-36
2.2769216e-36
2.2769283e-36
2.2770986e-36
2.2770037e-36
2.2769535e-36
2.2769292e-36
2.2769186e-36
2.2769147e-36
2.2769138e-36
2.2769147e-36
2.2769177e-36
2.2769244e-36
2.2770975e-36
2.2770027e-36
2.2769526e-36
2.2769283e-36
2.2769177e-36
2.2769138e-36
2.2769129e-36
2.2769139e-36
2.2769169e-36
2.2769236e-36
2.2770979e-36
2.2770033e-36
2.2769533e-36
2.2769291e-36
2.2769186e-36
2.2769147e-36
2.2769139e-36
2.2769148e-36
2.2769178e-36
2.2769245e-36
2.2770996e-36
2.2770056e-36
2.2769561e-36
2.276932e-36
2.2769216e-36
2.2769177e-36
2.2769169e-36
2.2769178e-36
2.2769208e-36
2.2769275e-36
2.2771038e-36
2.2770115e-36
2.2769625e-36
2.2769387e-36
2.2769283e-36
2.2769244e-36
2.2769236e-36
2.2769245e-36
2.2769275e-36
2.2769343e-36
9.476667e-36
9.4762867e-36
9.4760848e-36
9.4759868e-36
9.475944e-36
9.4759278e-36
9.4759233e-36
9.475925e-36
9.4759321e-36
9.4759484e-36
9.4762867e-36
9.4759066e-36
9.4757048e-36
9.4756068e-36
9.475564e-36
9.4755479e-36
9.4755437e-36
9.4755462e-36
9.4755557e-36
9.4755791e-36
9.4760848e-36
9.4757048e-36
9.475503e-36
9.4754049e-36
9.4753623e-36
9.4753463e-36
9.4753424e-36
9.4753456e-36
9.4753566e-36
9.4753822e-36
9.4759868e-36
9.4756068e-36
9.4754049e-36
9.4753069e-36
9.4752643e-36
9.4752483e-36
9.4752446e-36
9.4752482e-36
9.4752599e-36
9.4752864e-36
9.475944e-36
9.475564e-36
9.4753623e-36
9.4752643e-36
9.4752217e-36
9.4752057e-36
9.4752022e-36
9.4752059e-36
9.4752179e-36
9.4752447e-36
9.4759278e-36
9.4755479e-36
9.4753463e-36
9.4752483e-36
9.4752057e-36
9.4751898e-36
9.4751863e-36
9.4751902e-36
9.4752022e-36
9.4752291e-36
9.4759233e-36
9.4755437e-36
9.4753424e-36
9.4752446e-36
9.4752022e-36
9.4751863e-36
9.4751829e-36
9.4751867e-36
9.4751989e-36
9.4752257e-36
9.475925e-36
9.4755462e-36
9.4753456e-36
9.4752482e-36
9.4752059e-36
9.4751902e-36
9.4751867e-36
9.4751906e-36
9.4752027e-36
9.4752296e-36
9.4759321e-36
9.4755557e-36
9.4753566e-36
9.4752599e-36
9.4752179e-36
9.4752022e-36
9.4751989e-36
9.4752027e-36
9.4752148e-36
9.4752417e-36
9.4759484e-36
9.4755791e-36
9.4753822e-36
9.4752864e-36
9.4752447e-36
9.4752291e-36
9.4752257e-36
9.4752296e-36
9.4752417e-36
9.4752687e-36
4.0148544e-35
4.0146995e-35
4.014617e-35
4.0145768e-35
4.0145593e-35
4.0145527e-35
4.0145509e-35
4.0145516e-35
4.0145545e-35
4.014561e-35
4.0146995e-35
4.0145446e-35
4.0144621e-35
4.014422e-35
4.0144045e-35
4.0143979e-35
4.0143962e-35
4.0143972e-35
4.0144011e-35
4.0144106e-35
4.014617e-35
4.0144621e-35
4.0143796e-35
4.0143395e-35
4.014322e-35
4.0143155e-35
4.0143139e-35
4.0143152e-35
4.0143198e-35
4.0143302e-35
4.0145768e-35
4.014422e-35
4.0143395e-35
4.0142994e-35
4.0142819e-35
4.0142754e-35
4.0142739e-35
4.0142754e-35
4.0142802e-35
4.014291e-35
4.0145593e-35
4.0144045e-35
4.014322e-35
4.0142819e-35
4.0142645e-35
4.014258e-35
4.0142565e-35
4.0142581e-35
4.014263e-35
4.0142739e-35
4.0145527e-35
4.0143979e-35
4.0143155e-35
4.0142754e-35
4.014258e-35
4.0142514e-35
4.01425e-35
4.0142516e-35
4.0142566e-35
4.0142676e-35
4.0145509e-35
4.0143962e-35
4.0143139e-35
4.0142739e-35
4.0142565e-35
4.01425e-35
4.0142486e-35
4.0142502e-35
4.0142552e-35
4.0142662e-35
4.0145516e-35
4.0143972e-35
4.0143152e-35
4.0142754e-35
4.0142581e-35
4.0142516e-35
4.0142502e-35
4.0142519e-35
4.0142569e-35
4.0142678e-35
4.0145545e-35
4.0144011e-35
4.0143198e-35
4.0142802e-35
4.014263e-35
4.0142566e-35
4.0142552e-35
4.0142569e-35
4.0142618e-35
4.0142728e-35
4.014561e-35
4.0144106e-35
4.0143302e-35
4.014291e-35
4.0142739e-35
4.0142676e-35
4.0142662e-35
4.0142678e-35
4.0142728e-35