/*--------------------------------*- C++ -*----------------------------------*\
| =========                 |                                                 |
| \\      /  F ield         | OpenFOAM: The Open Source CFD Toolbox           |
|  \\    /   O peration     | Version:  dev                                   |
|   \\  /    A nd           | Web:      www.OpenFOAM.org                      |
|    \\/     M anipulation  |                                                 |
\*---------------------------------------------------------------------------*/
FoamFile
{
    version     2.0;
    format      ascii;
    class       volScalarField;
    location    "67.995";
    object      A;
}
// * * * * * * * * * * * * * * * * * * * * * * * * * * * * * * * * * * * * * //

dimensions      [0 0 0 0 1 0 0];

internalField   nonuniform List<scalar> 
10000
(
3.7278875e-27
3.7226145e-27
3.7199446e-27
3.7185978e-27
3.7179701e-27
3.7177235e-27
3.7176945e-27
3.7178496e-27
3.7182785e-27
3.7191881e-27
3.7226145e-27
3.7173646e-27
3.7147027e-27
3.7133594e-27
3.7127336e-27
3.7124892e-27
3.7124647e-27
3.7126311e-27
3.7130909e-27
3.7140906e-27
3.7199446e-27
3.7147027e-27
3.7120454e-27
3.7107045e-27
3.7100806e-27
3.7098386e-27
3.7098192e-27
3.7099963e-27
3.7104766e-27
3.7115068e-27
3.7185978e-27
3.7133594e-27
3.7107045e-27
3.7093653e-27
3.7087428e-27
3.7085028e-27
3.708487e-27
3.7086709e-27
3.7091618e-27
3.710203e-27
3.7179701e-27
3.7127336e-27
3.7100806e-27
3.7087428e-27
3.7081214e-27
3.7078828e-27
3.7078692e-27
3.7080567e-27
3.7085524e-27
3.7095978e-27
3.7177235e-27
3.7124892e-27
3.7098386e-27
3.7085028e-27
3.7078828e-27
3.7076453e-27
3.707633e-27
3.7078222e-27
3.70832e-27
3.7093669e-27
3.7176945e-27
3.7124647e-27
3.7098192e-27
3.708487e-27
3.7078692e-27
3.707633e-27
3.7076216e-27
3.7078116e-27
3.7083103e-27
3.7093579e-27
3.7178496e-27
3.7126311e-27
3.7099963e-27
3.7086709e-27
3.7080567e-27
3.7078222e-27
3.7078116e-27
3.7080023e-27
3.7085015e-27
3.7095495e-27
3.7182785e-27
3.7130909e-27
3.7104766e-27
3.7091618e-27
3.7085524e-27
3.70832e-27
3.7083103e-27
3.7085015e-27
3.7090014e-27
3.7100504e-27
3.7191881e-27
3.7140906e-27
3.7115068e-27
3.710203e-27
3.7095978e-27
3.7093669e-27
3.7093579e-27
3.7095495e-27
3.7100504e-27
3.7111024e-27
1.2737928e-26
1.2720585e-26
1.2711568e-26
1.270701e-26
1.2704884e-26
1.2704048e-26
1.2703949e-26
1.2704472e-26
1.2705921e-26
1.2709109e-26
1.2720585e-26
1.2703317e-26
1.2694327e-26
1.268978e-26
1.268766e-26
1.2686832e-26
1.2686748e-26
1.268731e-26
1.2688864e-26
1.2692362e-26
1.2711568e-26
1.2694327e-26
1.2685352e-26
1.2680813e-26
1.26787e-26
1.267788e-26
1.2677813e-26
1.2678411e-26
1.2680036e-26
1.2683637e-26
1.270701e-26
1.268978e-26
1.2680813e-26
1.267628e-26
1.2674171e-26
1.2673358e-26
1.2673304e-26
1.2673925e-26
1.2675586e-26
1.2679224e-26
1.2704884e-26
1.268766e-26
1.26787e-26
1.2674171e-26
1.2672067e-26
1.2671258e-26
1.2671211e-26
1.2671845e-26
1.2673522e-26
1.2677175e-26
1.2704048e-26
1.2686832e-26
1.267788e-26
1.2673358e-26
1.2671258e-26
1.2670453e-26
1.2670411e-26
1.267105e-26
1.2672734e-26
1.2676392e-26
1.2703949e-26
1.2686748e-26
1.2677813e-26
1.2673304e-26
1.2671211e-26
1.2670411e-26
1.2670372e-26
1.2671014e-26
1.2672701e-26
1.2676361e-26
1.2704472e-26
1.268731e-26
1.2678411e-26
1.2673925e-26
1.2671845e-26
1.267105e-26
1.2671014e-26
1.2671658e-26
1.2673347e-26
1.2677009e-26
1.2705921e-26
1.2688864e-26
1.2680036e-26
1.2675586e-26
1.2673522e-26
1.2672734e-26
1.2672701e-26
1.2673347e-26
1.2675038e-26
1.2678703e-26
1.2709109e-26
1.2692362e-26
1.2683637e-26
1.2679224e-26
1.2677175e-26
1.2676392e-26
1.2676361e-26
1.2677009e-26
1.2678703e-26
1.2682379e-26
2.7206028e-26
2.7170186e-26
2.7151308e-26
2.7141738e-26
2.7137269e-26
2.7135511e-26
2.7135299e-26
2.7136389e-26
2.7139413e-26
2.7146273e-26
2.7170186e-26
2.7134495e-26
2.7115672e-26
2.7106125e-26
2.710167e-26
2.7099927e-26
2.7099748e-26
2.710092e-26
2.7104168e-26
2.7111687e-26
2.7151308e-26
2.7115672e-26
2.709688e-26
2.7087351e-26
2.7082909e-26
2.7081184e-26
2.7081041e-26
2.708229e-26
2.7085688e-26
2.7093427e-26
2.7141738e-26
2.7106125e-26
2.7087351e-26
2.7077835e-26
2.7073402e-26
2.7071691e-26
2.7071575e-26
2.7072873e-26
2.7076347e-26
2.7084167e-26
2.7137269e-26
2.710167e-26
2.7082909e-26
2.7073402e-26
2.7068978e-26
2.7067277e-26
2.7067177e-26
2.7068501e-26
2.707201e-26
2.7079859e-26
2.7135511e-26
2.7099927e-26
2.7081184e-26
2.7071691e-26
2.7067277e-26
2.7065583e-26
2.7065492e-26
2.7066829e-26
2.7070353e-26
2.7078214e-26
2.7135299e-26
2.7099748e-26
2.7081041e-26
2.7071575e-26
2.7067177e-26
2.7065492e-26
2.7065408e-26
2.7066751e-26
2.7070281e-26
2.7078147e-26
2.7136389e-26
2.710092e-26
2.708229e-26
2.7072873e-26
2.7068501e-26
2.7066829e-26
2.7066751e-26
2.7068098e-26
2.7071632e-26
2.7079501e-26
2.7139413e-26
2.7104168e-26
2.7085688e-26
2.7076347e-26
2.707201e-26
2.7070353e-26
2.7070281e-26
2.7071632e-26
2.7075171e-26
2.7083047e-26
2.7146273e-26
2.7111687e-26
2.7093427e-26
2.7084167e-26
2.7079859e-26
2.7078214e-26
2.7078147e-26
2.7079501e-26
2.7083047e-26
2.7090946e-26
5.3666596e-26
5.3598161e-26
5.356184e-26
5.3543376e-26
5.3534741e-26
5.3531338e-26
5.3530922e-26
5.3533004e-26
5.3538778e-26
5.3551976e-26
5.3598161e-26
5.3530012e-26
5.3493794e-26
5.3475374e-26
5.3466765e-26
5.3463392e-26
5.346304e-26
5.3465283e-26
5.3471497e-26
5.348599e-26
5.356184e-26
5.3493794e-26
5.3457637e-26
5.3439251e-26
5.3430666e-26
5.3427328e-26
5.3427047e-26
5.3429441e-26
5.3435948e-26
5.3450874e-26
5.3543376e-26
5.3475374e-26
5.3439251e-26
5.3420888e-26
5.3412323e-26
5.3409013e-26
5.3408783e-26
5.3411274e-26
5.341793e-26
5.3433013e-26
5.3534741e-26
5.3466765e-26
5.3430666e-26
5.3412323e-26
5.3403774e-26
5.3400483e-26
5.3400285e-26
5.3402826e-26
5.3409551e-26
5.3424692e-26
5.3531338e-26
5.3463392e-26
5.3427328e-26
5.3409013e-26
5.3400483e-26
5.3397208e-26
5.3397027e-26
5.3399593e-26
5.3406347e-26
5.342151e-26
5.3530922e-26
5.346304e-26
5.3427047e-26
5.3408783e-26
5.3400285e-26
5.3397027e-26
5.3396859e-26
5.3399437e-26
5.3406204e-26
5.3421377e-26
5.3533004e-26
5.3465283e-26
5.3429441e-26
5.3411274e-26
5.3402826e-26
5.3399593e-26
5.3399437e-26
5.3402024e-26
5.3408798e-26
5.3423977e-26
5.3538778e-26
5.3471497e-26
5.3435948e-26
5.341793e-26
5.3409551e-26
5.3406347e-26
5.3406204e-26
5.3408798e-26
5.341558e-26
5.3430773e-26
5.3551976e-26
5.348599e-26
5.3450874e-26
5.3433013e-26
5.3424692e-26
5.342151e-26
5.3421377e-26
5.3423977e-26
5.3430773e-26
5.3446012e-26
1.0459732e-25
1.0446826e-25
1.0439939e-25
1.0436428e-25
1.0434784e-25
1.0434135e-25
1.0434054e-25
1.0434446e-25
1.0435529e-25
1.0437998e-25
1.0446826e-25
1.0433973e-25
1.0427105e-25
1.0423603e-25
1.0421963e-25
1.042132e-25
1.0421251e-25
1.0421674e-25
1.0422842e-25
1.0425563e-25
1.0439939e-25
1.0427105e-25
1.0420249e-25
1.0416753e-25
1.0415118e-25
1.0414481e-25
1.0414426e-25
1.0414878e-25
1.0416103e-25
1.0418907e-25
1.0436428e-25
1.0423603e-25
1.0416753e-25
1.0413261e-25
1.041163e-25
1.0410999e-25
1.0410954e-25
1.0411425e-25
1.0412678e-25
1.0415513e-25
1.0434784e-25
1.0421963e-25
1.0415118e-25
1.041163e-25
1.0410002e-25
1.0409375e-25
1.0409336e-25
1.0409816e-25
1.0411083e-25
1.0413929e-25
1.0434135e-25
1.042132e-25
1.0414481e-25
1.0410999e-25
1.0409375e-25
1.040875e-25
1.0408715e-25
1.04092e-25
1.0410473e-25
1.0413323e-25
1.0434054e-25
1.0421251e-25
1.0414426e-25
1.0410954e-25
1.0409336e-25
1.0408715e-25
1.0408682e-25
1.0409169e-25
1.0410444e-25
1.0413296e-25
1.0434446e-25
1.0421674e-25
1.0414878e-25
1.0411425e-25
1.0409816e-25
1.04092e-25
1.0409169e-25
1.0409658e-25
1.0410935e-25
1.0413788e-25
1.0435529e-25
1.0422842e-25
1.0416103e-25
1.0412678e-25
1.0411083e-25
1.0410473e-25
1.0410444e-25
1.0410935e-25
1.0412213e-25
1.0415069e-25
1.0437998e-25
1.0425563e-25
1.0418907e-25
1.0415513e-25
1.0413929e-25
1.0413323e-25
1.0413296e-25
1.0413788e-25
1.0415069e-25
1.0417933e-25
2.0489359e-25
2.0464905e-25
2.0451797e-25
2.0445098e-25
2.0441954e-25
2.0440712e-25
2.0440555e-25
2.0441293e-25
2.0443329e-25
2.044794e-25
2.0464905e-25
2.044055e-25
2.0427478e-25
2.0420795e-25
2.0417661e-25
2.041643e-25
2.0416296e-25
2.0417095e-25
2.0419297e-25
2.0424397e-25
2.0451797e-25
2.0427478e-25
2.0414428e-25
2.0407757e-25
2.0404632e-25
2.0403414e-25
2.0403306e-25
2.0404162e-25
2.0406474e-25
2.0411738e-25
2.0445098e-25
2.0420795e-25
2.0407757e-25
2.0401094e-25
2.0397976e-25
2.0396768e-25
2.039668e-25
2.0397572e-25
2.039994e-25
2.0405263e-25
2.0441954e-25
2.0417661e-25
2.0404632e-25
2.0397976e-25
2.0394864e-25
2.0393664e-25
2.0393587e-25
2.0394499e-25
2.0396892e-25
2.0402237e-25
2.0440712e-25
2.041643e-25
2.0403414e-25
2.0396768e-25
2.0393664e-25
2.0392469e-25
2.0392399e-25
2.039332e-25
2.0395724e-25
2.0401077e-25
2.0440555e-25
2.0416296e-25
2.0403306e-25
2.039668e-25
2.0393587e-25
2.0392399e-25
2.0392335e-25
2.0393259e-25
2.0395669e-25
2.0401025e-25
2.0441293e-25
2.0417095e-25
2.0404162e-25
2.0397572e-25
2.0394499e-25
2.039332e-25
2.0393259e-25
2.0394187e-25
2.03966e-25
2.0401958e-25
2.0443329e-25
2.0419297e-25
2.0406474e-25
2.039994e-25
2.0396892e-25
2.0395724e-25
2.0395669e-25
2.03966e-25
2.0399015e-25
2.0404378e-25
2.044794e-25
2.0424397e-25
2.0411738e-25
2.0405263e-25
2.0402237e-25
2.0401077e-25
2.0401025e-25
2.0401958e-25
2.0404378e-25
2.0409758e-25
4.0526555e-25
4.0479789e-25
4.0454617e-25
4.0441719e-25
4.0435658e-25
4.0433259e-25
4.043295e-25
4.0434355e-25
4.0438214e-25
4.0446884e-25
4.0479789e-25
4.0433213e-25
4.0408109e-25
4.0395241e-25
4.0389198e-25
4.038682e-25
4.0386557e-25
4.0388081e-25
4.0392267e-25
4.04019e-25
4.0454617e-25
4.0408109e-25
4.0383046e-25
4.0370202e-25
4.0364175e-25
4.0361823e-25
4.0361612e-25
4.0363248e-25
4.0367649e-25
4.0377603e-25
4.0441719e-25
4.0395241e-25
4.0370202e-25
4.0357373e-25
4.035136e-25
4.0349029e-25
4.0348855e-25
4.0350562e-25
4.0355073e-25
4.0365143e-25
4.0435658e-25
4.0389198e-25
4.0364175e-25
4.035136e-25
4.034536e-25
4.0343042e-25
4.0342892e-25
4.0344636e-25
4.0349197e-25
4.0359311e-25
4.0433259e-25
4.038682e-25
4.0361823e-25
4.0349029e-25
4.0343042e-25
4.0340736e-25
4.0340599e-25
4.034236e-25
4.0346943e-25
4.0357073e-25
4.043295e-25
4.0386557e-25
4.0361612e-25
4.0348855e-25
4.0342892e-25
4.0340599e-25
4.034047e-25
4.0342241e-25
4.0346834e-25
4.035697e-25
4.0434355e-25
4.0388081e-25
4.0363248e-25
4.0350562e-25
4.0344636e-25
4.034236e-25
4.0342241e-25
4.0344018e-25
4.0348615e-25
4.0358756e-25
4.0438214e-25
4.0392267e-25
4.0367649e-25
4.0355073e-25
4.0349197e-25
4.0346943e-25
4.0346834e-25
4.0348615e-25
4.0353219e-25
4.0363369e-25
4.0446884e-25
4.04019e-25
4.0377603e-25
4.0365143e-25
4.0359311e-25
4.0357073e-25
4.035697e-25
4.0358756e-25
4.0363369e-25
4.0373548e-25
8.1042817e-25
8.0952436e-25
8.0903591e-25
8.0878502e-25
8.0866692e-25
8.0862011e-25
8.0861396e-25
8.0864099e-25
8.0871492e-25
8.0887956e-25
8.0952436e-25
8.0862417e-25
8.0813704e-25
8.0788671e-25
8.0776895e-25
8.0772257e-25
8.0771734e-25
8.0774673e-25
8.0782712e-25
8.080109e-25
8.0903591e-25
8.0813704e-25
8.0765069e-25
8.0740081e-25
8.0728339e-25
8.072375e-25
8.0723331e-25
8.072649e-25
8.0734957e-25
8.0753972e-25
8.0878502e-25
8.0788671e-25
8.0740081e-25
8.0715123e-25
8.0703409e-25
8.069886e-25
8.0698516e-25
8.0701815e-25
8.0710501e-25
8.0729746e-25
8.0866692e-25
8.0776895e-25
8.0728339e-25
8.0703409e-25
8.0691717e-25
8.0687196e-25
8.0686897e-25
8.069027e-25
8.0699056e-25
8.0718387e-25
8.0862011e-25
8.0772257e-25
8.072375e-25
8.069886e-25
8.0687196e-25
8.0682698e-25
8.0682425e-25
8.0685833e-25
8.0694661e-25
8.0714025e-25
8.0861396e-25
8.0771734e-25
8.0723331e-25
8.0698516e-25
8.0686897e-25
8.0682425e-25
8.068217e-25
8.0685596e-25
8.0694442e-25
8.0713819e-25
8.0864099e-25
8.0774673e-25
8.072649e-25
8.0701815e-25
8.069027e-25
8.0685833e-25
8.0685596e-25
8.0689034e-25
8.0697891e-25
8.0717277e-25
8.0871492e-25
8.0782712e-25
8.0734957e-25
8.0710501e-25
8.0699056e-25
8.0694661e-25
8.0694442e-25
8.0697891e-25
8.0706759e-25
8.0726161e-25
8.0887956e-25
8.080109e-25
8.0753972e-25
8.0729746e-25
8.0718387e-25
8.0714025e-25
8.0713819e-25
8.0717277e-25
8.0726161e-25
8.074562e-25
1.6391588e-24
1.6373929e-24
1.6364348e-24
1.6359414e-24
1.6357088e-24
1.6356165e-24
1.6356042e-24
1.6356567e-24
1.6357999e-24
1.6361159e-24
1.6373929e-24
1.635634e-24
1.6346784e-24
1.6341861e-24
1.6339542e-24
1.6338627e-24
1.6338523e-24
1.6339095e-24
1.6340657e-24
1.6344202e-24
1.6364348e-24
1.6346784e-24
1.6337243e-24
1.6332329e-24
1.6330017e-24
1.6329112e-24
1.6329028e-24
1.6329645e-24
1.6331292e-24
1.6334965e-24
1.6359414e-24
1.6341861e-24
1.6332329e-24
1.6327421e-24
1.6325114e-24
1.6324217e-24
1.6324148e-24
1.6324793e-24
1.6326484e-24
1.6330203e-24
1.6357088e-24
1.6339542e-24
1.6330017e-24
1.6325114e-24
1.6322811e-24
1.632192e-24
1.632186e-24
1.632252e-24
1.6324231e-24
1.6327967e-24
1.6356165e-24
1.6338627e-24
1.6329112e-24
1.6324217e-24
1.632192e-24
1.6321033e-24
1.6320978e-24
1.6321645e-24
1.6323365e-24
1.6327108e-24
1.6356042e-24
1.6338523e-24
1.6329028e-24
1.6324148e-24
1.632186e-24
1.6320978e-24
1.6320927e-24
1.6321598e-24
1.6323321e-24
1.6327066e-24
1.6356567e-24
1.6339095e-24
1.6329645e-24
1.6324793e-24
1.632252e-24
1.6321645e-24
1.6321598e-24
1.632227e-24
1.6323996e-24
1.6327743e-24
1.6357999e-24
1.6340657e-24
1.6331292e-24
1.6326484e-24
1.6324231e-24
1.6323365e-24
1.6323321e-24
1.6323996e-24
1.6325723e-24
1.6329473e-24
1.6361159e-24
1.6344202e-24
1.6334965e-24
1.6330203e-24
1.6327967e-24
1.6327108e-24
1.6327066e-24
1.6327743e-24
1.6329473e-24
1.6333234e-24
3.3536855e-24
3.3501967e-24
3.3482964e-24
3.3473156e-24
3.3468524e-24
3.3466683e-24
3.3466434e-24
3.3467468e-24
3.3470272e-24
3.3476406e-24
3.3501967e-24
3.3467217e-24
3.3448264e-24
3.3438477e-24
3.3433858e-24
3.3432035e-24
3.3431823e-24
3.3432952e-24
3.3436019e-24
3.3442934e-24
3.3482964e-24
3.3448264e-24
3.3429341e-24
3.3419571e-24
3.3414966e-24
3.3413162e-24
3.3412992e-24
3.3414211e-24
3.3417452e-24
3.3424626e-24
3.3473156e-24
3.3438477e-24
3.3419571e-24
3.3409813e-24
3.3405218e-24
3.3403431e-24
3.3403291e-24
3.3404567e-24
3.3407896e-24
3.3415164e-24
3.3468524e-24
3.3433858e-24
3.3414966e-24
3.3405218e-24
3.3400633e-24
3.3398857e-24
3.3398735e-24
3.3400041e-24
3.3403411e-24
3.3410714e-24
3.3466683e-24
3.3432035e-24
3.3413162e-24
3.3403431e-24
3.3398857e-24
3.3397089e-24
3.3396978e-24
3.3398298e-24
3.3401686e-24
3.3409002e-24
3.3466434e-24
3.3431823e-24
3.3412992e-24
3.3403291e-24
3.3398735e-24
3.3396978e-24
3.3396875e-24
3.3398202e-24
3.3401596e-24
3.3408918e-24
3.3467468e-24
3.3432952e-24
3.3414211e-24
3.3404567e-24
3.3400041e-24
3.3398298e-24
3.3398202e-24
3.3399534e-24
3.3402932e-24
3.3410258e-24
3.3470272e-24
3.3436019e-24
3.3417452e-24
3.3407896e-24
3.3403411e-24
3.3401686e-24
3.3401596e-24
3.3402932e-24
3.3406335e-24
3.3413667e-24
3.3476406e-24
3.3442934e-24
3.3424626e-24
3.3415164e-24
3.3410714e-24
3.3409002e-24
3.3408918e-24
3.3410258e-24
3.3413667e-24
3.3421019e-24
6.9414848e-24
6.9345154e-24
6.9307046e-24
6.9287328e-24
6.9278003e-24
6.9274293e-24
6.9273784e-24
6.927584e-24
6.9281394e-24
6.9293436e-24
6.9345154e-24
6.9275732e-24
6.9237723e-24
6.9218047e-24
6.9208749e-24
6.9205073e-24
6.9204639e-24
6.9206892e-24
6.9212986e-24
6.922663e-24
6.9307046e-24
6.9237723e-24
6.9199773e-24
6.9180132e-24
6.917086e-24
6.9167225e-24
6.9166877e-24
6.9169313e-24
6.9175763e-24
6.918994e-24
6.9287328e-24
6.9218047e-24
6.9180132e-24
6.9160514e-24
6.9151265e-24
6.9147662e-24
6.9147377e-24
6.9149929e-24
6.9156561e-24
6.917093e-24
6.9278003e-24
6.9208749e-24
6.917086e-24
6.9151265e-24
6.9142034e-24
6.9138454e-24
6.9138206e-24
6.914082e-24
6.9147534e-24
6.9161975e-24
6.9274293e-24
6.9205073e-24
6.9167225e-24
6.9147662e-24
6.9138454e-24
6.9134893e-24
6.9134666e-24
6.9137309e-24
6.9144059e-24
6.9158527e-24
6.9273784e-24
6.9204639e-24
6.9166877e-24
6.9147377e-24
6.9138206e-24
6.9134666e-24
6.9134455e-24
6.9137112e-24
6.9143877e-24
6.9158356e-24
6.927584e-24
6.9206892e-24
6.9169313e-24
6.9149929e-24
6.914082e-24
6.9137309e-24
6.9137112e-24
6.9139779e-24
6.9146552e-24
6.9161038e-24
6.9281394e-24
6.9212986e-24
6.9175763e-24
6.9156561e-24
6.9147534e-24
6.9144059e-24
6.9143877e-24
6.9146552e-24
6.9153334e-24
6.9167832e-24
6.9293436e-24
6.922663e-24
6.918994e-24
6.917093e-24
6.9161975e-24
6.9158527e-24
6.9158356e-24
6.9161038e-24
6.9167832e-24
6.918237e-24
1.4535682e-23
1.4521603e-23
1.4513875e-23
1.4509867e-23
1.4507969e-23
1.4507213e-23
1.4507108e-23
1.4507522e-23
1.4508634e-23
1.4511025e-23
1.4521603e-23
1.4507578e-23
1.449987e-23
1.4495871e-23
1.4493978e-23
1.4493229e-23
1.449314e-23
1.4493594e-23
1.4494819e-23
1.4497542e-23
1.4513875e-23
1.449987e-23
1.4492175e-23
1.4488182e-23
1.4486295e-23
1.4485554e-23
1.4485482e-23
1.4485975e-23
1.4487273e-23
1.4490107e-23
1.4509867e-23
1.4495871e-23
1.4488182e-23
1.4484195e-23
1.4482312e-23
1.4481578e-23
1.4481519e-23
1.4482035e-23
1.4483372e-23
1.4486245e-23
1.4507969e-23
1.4493978e-23
1.4486295e-23
1.4482312e-23
1.4480433e-23
1.4479703e-23
1.4479652e-23
1.4480181e-23
1.4481535e-23
1.4484423e-23
1.4507213e-23
1.4493229e-23
1.4485554e-23
1.4481578e-23
1.4479703e-23
1.4478978e-23
1.4478931e-23
1.4479466e-23
1.4480827e-23
1.4483721e-23
1.4507108e-23
1.449314e-23
1.4485482e-23
1.4481519e-23
1.4479652e-23
1.4478931e-23
1.4478888e-23
1.4479426e-23
1.448079e-23
1.4483686e-23
1.4507522e-23
1.4493594e-23
1.4485975e-23
1.4482035e-23
1.4480181e-23
1.4479466e-23
1.4479426e-23
1.4479966e-23
1.4481332e-23
1.4484229e-23
1.4508634e-23
1.4494819e-23
1.4487273e-23
1.4483372e-23
1.4481535e-23
1.4480827e-23
1.448079e-23
1.4481332e-23
1.4482699e-23
1.4485599e-23
1.4511025e-23
1.4497542e-23
1.4490107e-23
1.4486245e-23
1.4484423e-23
1.4483721e-23
1.4483686e-23
1.4484229e-23
1.4485599e-23
1.4488507e-23
3.0795732e-23
3.0766971e-23
3.0751125e-23
3.0742888e-23
3.0738981e-23
3.0737422e-23
3.0737203e-23
3.0738046e-23
3.0740301e-23
3.0745101e-23
3.0766971e-23
3.0738319e-23
3.0722514e-23
3.0714294e-23
3.0710397e-23
3.0708854e-23
3.0708667e-23
3.0709595e-23
3.0712085e-23
3.0717584e-23
3.0751125e-23
3.0722514e-23
3.0706733e-23
3.0698527e-23
3.0694642e-23
3.0693115e-23
3.0692966e-23
3.0693974e-23
3.0696618e-23
3.0702349e-23
3.0742888e-23
3.0714294e-23
3.0698527e-23
3.0690331e-23
3.0686455e-23
3.0684943e-23
3.0684821e-23
3.0685878e-23
3.0688602e-23
3.0694416e-23
3.0738981e-23
3.0710397e-23
3.0694642e-23
3.0686455e-23
3.0682587e-23
3.0681085e-23
3.0680979e-23
3.0682063e-23
3.0684823e-23
3.0690668e-23
3.0737422e-23
3.0708854e-23
3.0693115e-23
3.0684943e-23
3.0681085e-23
3.0679591e-23
3.0679494e-23
3.0680591e-23
3.0683366e-23
3.0689223e-23
3.0737203e-23
3.0708667e-23
3.0692966e-23
3.0684821e-23
3.0680979e-23
3.0679494e-23
3.0679404e-23
3.0680507e-23
3.0683288e-23
3.068915e-23
3.0738046e-23
3.0709595e-23
3.0693974e-23
3.0685878e-23
3.0682063e-23
3.0680591e-23
3.0680507e-23
3.0681614e-23
3.0684399e-23
3.0690264e-23
3.0740301e-23
3.0712085e-23
3.0696618e-23
3.0688602e-23
3.0684823e-23
3.0683366e-23
3.0683288e-23
3.0684399e-23
3.0687187e-23
3.0693057e-23
3.0745101e-23
3.0717584e-23
3.0702349e-23
3.0694416e-23
3.0690668e-23
3.0689223e-23
3.068915e-23
3.0690264e-23
3.0693057e-23
3.0698942e-23
6.6013496e-23
6.5954077e-23
6.5921222e-23
6.5904102e-23
6.5895969e-23
6.5892722e-23
6.5892261e-23
6.5893996e-23
6.5898619e-23
6.5908369e-23
6.5954077e-23
6.5894885e-23
6.5862111e-23
6.5845026e-23
6.5836916e-23
6.58337e-23
6.5833308e-23
6.5835224e-23
6.5840346e-23
6.5851578e-23
6.5921222e-23
6.5862111e-23
6.5829387e-23
6.5812331e-23
6.5804245e-23
6.5801065e-23
6.5800752e-23
6.5802837e-23
6.5808286e-23
6.582001e-23
6.5904102e-23
6.5845026e-23
6.5812331e-23
6.5795296e-23
6.578723e-23
6.578408e-23
6.5783824e-23
6.5786015e-23
6.5791631e-23
6.5803532e-23
6.5895969e-23
6.5836916e-23
6.5804245e-23
6.578723e-23
6.577918e-23
6.5776051e-23
6.5775829e-23
6.5778076e-23
6.5783769e-23
6.5795736e-23
6.5892722e-23
6.58337e-23
6.5801065e-23
6.578408e-23
6.5776051e-23
6.5772939e-23
6.5772737e-23
6.5775011e-23
6.5780736e-23
6.5792728e-23
6.5892261e-23
6.5833308e-23
6.5800752e-23
6.5783824e-23
6.5775829e-23
6.5772737e-23
6.5772548e-23
6.5774835e-23
6.5780574e-23
6.5792576e-23
6.5893996e-23
6.5835224e-23
6.5802837e-23
6.5786015e-23
6.5778076e-23
6.5775011e-23
6.5774835e-23
6.5777131e-23
6.5782877e-23
6.5794886e-23
6.5898619e-23
6.5840346e-23
6.5808286e-23
6.5791631e-23
6.5783769e-23
6.5780736e-23
6.5780574e-23
6.5782877e-23
6.5788631e-23
6.5800649e-23
6.5908369e-23
6.5851578e-23
6.582001e-23
6.5803532e-23
6.5795736e-23
6.5792728e-23
6.5792576e-23
6.5794886e-23
6.5800649e-23
6.5812699e-23
1.4317687e-22
1.4305273e-22
1.4298384e-22
1.4294786e-22
1.4293074e-22
1.429239e-22
1.4292292e-22
1.4292654e-22
1.4293612e-22
1.4295616e-22
1.4305273e-22
1.4292906e-22
1.4286034e-22
1.4282443e-22
1.4280736e-22
1.4280059e-22
1.4279975e-22
1.4280376e-22
1.4281441e-22
1.4283763e-22
1.4298384e-22
1.4286034e-22
1.4279172e-22
1.4275587e-22
1.4273885e-22
1.4273216e-22
1.4273149e-22
1.4273586e-22
1.4274722e-22
1.4277148e-22
1.4294786e-22
1.4282443e-22
1.4275587e-22
1.4272007e-22
1.4270309e-22
1.4269646e-22
1.4269592e-22
1.4270051e-22
1.4271223e-22
1.4273688e-22
1.4293074e-22
1.4280736e-22
1.4273885e-22
1.4270309e-22
1.4268615e-22
1.4267956e-22
1.4267909e-22
1.4268381e-22
1.4269569e-22
1.4272048e-22
1.429239e-22
1.4280059e-22
1.4273216e-22
1.4269646e-22
1.4267956e-22
1.4267301e-22
1.4267258e-22
1.4267735e-22
1.426893e-22
1.4271415e-22
1.4292292e-22
1.4279975e-22
1.4273149e-22
1.4269592e-22
1.4267909e-22
1.4267258e-22
1.4267219e-22
1.4267698e-22
1.4268896e-22
1.4271383e-22
1.4292654e-22
1.4280376e-22
1.4273586e-22
1.4270051e-22
1.4268381e-22
1.4267735e-22
1.4267698e-22
1.426818e-22
1.426938e-22
1.4271867e-22
1.4293612e-22
1.4281441e-22
1.4274722e-22
1.4271223e-22
1.4269569e-22
1.426893e-22
1.4268896e-22
1.426938e-22
1.4270581e-22
1.427307e-22
1.4295616e-22
1.4283763e-22
1.4277148e-22
1.4273688e-22
1.4272048e-22
1.4271415e-22
1.4271383e-22
1.4271867e-22
1.427307e-22
1.4275567e-22
3.1420816e-22
3.1394588e-22
3.1379981e-22
3.1372335e-22
3.1368692e-22
3.1367235e-22
3.1367024e-22
3.1367787e-22
3.1369798e-22
3.1373961e-22
3.1394588e-22
3.1368459e-22
3.1353886e-22
3.1346256e-22
3.1342623e-22
3.134118e-22
3.1341002e-22
3.1341848e-22
3.1344091e-22
3.1348945e-22
3.1379981e-22
3.1353886e-22
3.1339336e-22
3.1331718e-22
3.1328096e-22
3.132667e-22
3.1326528e-22
3.1327452e-22
3.1329848e-22
3.1334931e-22
3.1372335e-22
3.1346256e-22
3.1331718e-22
3.132411e-22
3.1320497e-22
3.1319084e-22
3.1318969e-22
3.1319942e-22
3.1322416e-22
3.1327581e-22
3.1368692e-22
3.1342623e-22
3.1328096e-22
3.1320497e-22
3.1316892e-22
3.1315489e-22
3.1315389e-22
3.1316389e-22
3.1318898e-22
3.1324093e-22
3.1367235e-22
3.134118e-22
3.132667e-22
3.1319084e-22
3.1315489e-22
3.1314094e-22
3.1314003e-22
3.1315015e-22
3.1317539e-22
3.1322746e-22
3.1367024e-22
3.1341002e-22
3.1326528e-22
3.1318969e-22
3.1315389e-22
3.1314003e-22
3.1313919e-22
3.1314937e-22
3.1317467e-22
3.1322679e-22
3.1367787e-22
3.1341848e-22
3.1327452e-22
3.1319942e-22
3.1316389e-22
3.1315015e-22
3.1314937e-22
3.1315959e-22
3.1318493e-22
3.1323707e-22
3.1369798e-22
3.1344091e-22
3.1329848e-22
3.1322416e-22
3.1318898e-22
3.1317539e-22
3.1317467e-22
3.1318493e-22
3.132103e-22
3.1326248e-22
3.1373961e-22
3.1348945e-22
3.1334931e-22
3.1327581e-22
3.1324093e-22
3.1322746e-22
3.1322679e-22
3.1323707e-22
3.1326248e-22
3.133148e-22
6.9769971e-22
6.9713933e-22
6.9682613e-22
6.9666182e-22
6.9658344e-22
6.9655206e-22
6.9654748e-22
6.9656374e-22
6.9660644e-22
6.9669395e-22
6.9713933e-22
6.9658102e-22
6.9626856e-22
6.9610459e-22
6.9602642e-22
6.9599534e-22
6.9599147e-22
6.9600958e-22
6.9605736e-22
6.9616003e-22
6.9682613e-22
6.9626856e-22
6.9595657e-22
6.9579287e-22
6.9571493e-22
6.9568423e-22
6.9568115e-22
6.9570096e-22
6.9575209e-22
6.9585978e-22
6.9666182e-22
6.9610459e-22
6.9579287e-22
6.9562937e-22
6.9555163e-22
6.9552122e-22
6.9551872e-22
6.9553962e-22
6.9559244e-22
6.9570194e-22
6.9658344e-22
6.9602642e-22
6.9571493e-22
6.9555163e-22
6.9547406e-22
6.9544386e-22
6.9544171e-22
6.9546317e-22
6.9551677e-22
6.9562695e-22
6.9655206e-22
6.9599534e-22
6.9568423e-22
6.9552122e-22
6.9544386e-22
6.9541383e-22
6.9541188e-22
6.9543362e-22
6.9548754e-22
6.9559798e-22
6.9654748e-22
6.9599147e-22
6.9568115e-22
6.9551872e-22
6.9544171e-22
6.9541188e-22
6.9541007e-22
6.9543194e-22
6.9548601e-22
6.9559654e-22
6.9656374e-22
6.9600958e-22
6.9570096e-22
6.9553962e-22
6.9546317e-22
6.9543362e-22
6.9543194e-22
6.954539e-22
6.9550804e-22
6.9561863e-22
6.9660644e-22
6.9605736e-22
6.9575209e-22
6.9559244e-22
6.9551677e-22
6.9548754e-22
6.9548601e-22
6.9550804e-22
6.9556225e-22
6.9567293e-22
6.9669395e-22
6.9616003e-22
6.9585978e-22
6.9570194e-22
6.9562695e-22
6.9559798e-22
6.9559654e-22
6.9561863e-22
6.9567293e-22
6.9578388e-22
1.5675567e-21
1.566346e-21
1.5656669e-21
1.5653099e-21
1.5651394e-21
1.565071e-21
1.565061e-21
1.5650961e-21
1.5651878e-21
1.5653738e-21
1.566346e-21
1.5651396e-21
1.5644622e-21
1.5641059e-21
1.5639358e-21
1.5638681e-21
1.5638597e-21
1.5638988e-21
1.5640018e-21
1.5642215e-21
1.5656669e-21
1.5644622e-21
1.5637857e-21
1.56343e-21
1.5632604e-21
1.5631936e-21
1.5631869e-21
1.5632298e-21
1.5633402e-21
1.5635711e-21
1.5653099e-21
1.5641059e-21
1.56343e-21
1.5630747e-21
1.5629056e-21
1.5628394e-21
1.562834e-21
1.5628793e-21
1.5629935e-21
1.5632284e-21
1.5651394e-21
1.5639358e-21
1.5632604e-21
1.5629056e-21
1.5627368e-21
1.5626711e-21
1.5626664e-21
1.5627131e-21
1.5628289e-21
1.5630653e-21
1.565071e-21
1.5638681e-21
1.5631936e-21
1.5628394e-21
1.5626711e-21
1.5626058e-21
1.5626015e-21
1.5626488e-21
1.5627653e-21
1.5630023e-21
1.565061e-21
1.5638597e-21
1.5631869e-21
1.562834e-21
1.5626664e-21
1.5626015e-21
1.5625976e-21
1.5626452e-21
1.562762e-21
1.5629992e-21
1.5650961e-21
1.5638988e-21
1.5632298e-21
1.5628793e-21
1.5627131e-21
1.5626488e-21
1.5626452e-21
1.5626929e-21
1.5628099e-21
1.5630472e-21
1.5651878e-21
1.5640018e-21
1.5633402e-21
1.5629935e-21
1.5628289e-21
1.5627653e-21
1.562762e-21
1.5628099e-21
1.5629271e-21
1.5631646e-21
1.5653738e-21
1.5642215e-21
1.5635711e-21
1.5632284e-21
1.5630653e-21
1.5630023e-21
1.5629992e-21
1.5630472e-21
1.5631646e-21
1.5634027e-21
3.5634746e-21
3.5608293e-21
3.5593406e-21
3.5585563e-21
3.5581812e-21
3.5580307e-21
3.5580085e-21
3.5580851e-21
3.5582843e-21
3.5586846e-21
3.5608293e-21
3.5581936e-21
3.5567084e-21
3.5559256e-21
3.5555515e-21
3.5554025e-21
3.5553838e-21
3.5554696e-21
3.5556941e-21
3.5561699e-21
3.5593406e-21
3.5567084e-21
3.5552254e-21
3.5544439e-21
3.5540709e-21
3.5539237e-21
3.553909e-21
3.5540032e-21
3.5542443e-21
3.5547451e-21
3.5585563e-21
3.5559256e-21
3.5544439e-21
3.5536633e-21
3.5532913e-21
3.5531456e-21
3.5531337e-21
3.5532333e-21
3.5534829e-21
3.5539927e-21
3.5581812e-21
3.5555515e-21
3.5540709e-21
3.5532913e-21
3.5529201e-21
3.5527754e-21
3.5527653e-21
3.5528677e-21
3.5531211e-21
3.5536343e-21
3.5580307e-21
3.5554025e-21
3.5539237e-21
3.5531456e-21
3.5527754e-21
3.5526317e-21
3.5526225e-21
3.5527263e-21
3.5529812e-21
3.5534957e-21
3.5580085e-21
3.5553838e-21
3.553909e-21
3.5531337e-21
3.5527653e-21
3.5526225e-21
3.552614e-21
3.5527184e-21
3.5529741e-21
3.5534891e-21
3.5580851e-21
3.5554696e-21
3.5540032e-21
3.5532333e-21
3.5528677e-21
3.5527263e-21
3.5527184e-21
3.5528233e-21
3.5530794e-21
3.5535946e-21
3.5582843e-21
3.5556941e-21
3.5542443e-21
3.5534829e-21
3.5531211e-21
3.5529812e-21
3.5529741e-21
3.5530794e-21
3.5533357e-21
3.5538514e-21
3.5586846e-21
3.5561699e-21
3.5547451e-21
3.5539927e-21
3.5536343e-21
3.5534957e-21
3.5534891e-21
3.5535946e-21
3.5538514e-21
3.5543683e-21
8.1960832e-21
8.1902393e-21
8.1869396e-21
8.1851975e-21
8.1843631e-21
8.1840282e-21
8.1839786e-21
8.1841478e-21
8.1845854e-21
8.1854564e-21
8.1902393e-21
8.1844164e-21
8.1811243e-21
8.1793855e-21
8.1785534e-21
8.1782219e-21
8.1781802e-21
8.1783701e-21
8.1788652e-21
8.1799076e-21
8.1869396e-21
8.1811243e-21
8.1778368e-21
8.1761009e-21
8.1752713e-21
8.1749439e-21
8.1749112e-21
8.1751204e-21
8.1756531e-21
8.1767522e-21
8.1851975e-21
8.1793855e-21
8.1761009e-21
8.1743671e-21
8.1735397e-21
8.1732156e-21
8.1731893e-21
8.1734107e-21
8.1739625e-21
8.1750821e-21
8.1843631e-21
8.1785534e-21
8.1752713e-21
8.1735397e-21
8.1727141e-21
8.1723924e-21
8.17237e-21
8.1725978e-21
8.1731583e-21
8.1742855e-21
8.1840282e-21
8.1782219e-21
8.1749439e-21
8.1732156e-21
8.1723924e-21
8.1720726e-21
8.1720524e-21
8.1722833e-21
8.1728475e-21
8.1739776e-21
8.1839786e-21
8.1781802e-21
8.1749112e-21
8.1731893e-21
8.17237e-21
8.1720524e-21
8.1720338e-21
8.1722662e-21
8.1728319e-21
8.1739632e-21
8.1841478e-21
8.1783701e-21
8.1751204e-21
8.1734107e-21
8.1725978e-21
8.1722833e-21
8.1722662e-21
8.1724995e-21
8.1730661e-21
8.1741979e-21
8.1845854e-21
8.1788652e-21
8.1756531e-21
8.1739625e-21
8.1731583e-21
8.1728475e-21
8.1728319e-21
8.1730661e-21
8.1736333e-21
8.1747661e-21
8.1854564e-21
8.1799076e-21
8.1767522e-21
8.1750821e-21
8.1742855e-21
8.1739776e-21
8.1739632e-21
8.1741979e-21
8.1747661e-21
8.1759015e-21
1.907226e-20
1.9059207e-20
1.9051812e-20
1.90479e-20
1.9046024e-20
1.9045271e-20
1.9045159e-20
1.9045537e-20
1.904651e-20
1.9048427e-20
1.9059207e-20
1.90462e-20
1.9038822e-20
1.9034918e-20
1.9033047e-20
1.9032301e-20
1.9032207e-20
1.9032633e-20
1.9033737e-20
1.9036048e-20
1.9051812e-20
1.9038822e-20
1.9031455e-20
1.9027557e-20
1.9025692e-20
1.9024955e-20
1.9024882e-20
1.9025352e-20
1.9026542e-20
1.9028983e-20
1.90479e-20
1.9034918e-20
1.9027557e-20
1.9023663e-20
1.9021803e-20
1.9021074e-20
1.9021016e-20
1.9021513e-20
1.9022748e-20
1.9025235e-20
1.9046024e-20
1.9033047e-20
1.9025692e-20
1.9021803e-20
1.9019947e-20
1.9019223e-20
1.9019174e-20
1.9019686e-20
1.9020941e-20
1.9023445e-20
1.9045271e-20
1.9032301e-20
1.9024955e-20
1.9021074e-20
1.9019223e-20
1.9018504e-20
1.901846e-20
1.9018979e-20
1.9020242e-20
1.9022754e-20
1.9045159e-20
1.9032207e-20
1.9024882e-20
1.9021016e-20
1.9019174e-20
1.901846e-20
1.9018419e-20
1.9018942e-20
1.9020208e-20
1.9022722e-20
1.9045537e-20
1.9032633e-20
1.9025352e-20
1.9021513e-20
1.9019686e-20
1.9018979e-20
1.9018942e-20
1.9019467e-20
1.9020735e-20
1.902325e-20
1.904651e-20
1.9033737e-20
1.9026542e-20
1.9022748e-20
1.9020941e-20
1.9020242e-20
1.9020208e-20
1.9020735e-20
1.9022005e-20
1.9024522e-20
1.9048427e-20
1.9036048e-20
1.9028983e-20
1.9025235e-20
1.9023445e-20