/*--------------------------------*- C++ -*----------------------------------*\
| =========                 |                                                 |
| \\      /  F ield         | OpenFOAM: The Open Source CFD Toolbox           |
|  \\    /   O peration     | Version:  dev                                   |
|   \\  /    A nd           | Web:      www.OpenFOAM.org                      |
|    \\/     M anipulation  |                                                 |
\*---------------------------------------------------------------------------*/
FoamFile
{
    version     2.0;
    format      ascii;
    class       volScalarField;
    location    "67.995";
    object      A_0;
}
// * * * * * * * * * * * * * * * * * * * * * * * * * * * * * * * * * * * * * //

dimensions      [0 0 0 0 1 0 0];

internalField   nonuniform List<scalar> 
10000
(
3.6178722e-27
3.6127492e-27
3.6101561e-27
3.6088488e-27
3.6082398e-27
3.6080008e-27
3.6079728e-27
3.6081233e-27
3.6085396e-27
3.6094228e-27
3.6127492e-27
3.6076487e-27
3.6050634e-27
3.6037594e-27
3.6031524e-27
3.6029154e-27
3.6028918e-27
3.6030533e-27
3.6034996e-27
3.6044703e-27
3.6101561e-27
3.6050634e-27
3.6024826e-27
3.601181e-27
3.6005757e-27
3.6003411e-27
3.6003224e-27
3.6004943e-27
3.6009606e-27
3.6019608e-27
3.6088488e-27
3.6037594e-27
3.601181e-27
3.599881e-27
3.599277e-27
3.5990444e-27
3.5990292e-27
3.5992077e-27
3.5996842e-27
3.6006952e-27
3.6082398e-27
3.6031524e-27
3.6005757e-27
3.599277e-27
3.5986742e-27
3.5984429e-27
3.5984299e-27
3.5986118e-27
3.599093e-27
3.600108e-27
3.6080008e-27
3.6029154e-27
3.6003411e-27
3.5990444e-27
3.5984429e-27
3.5982127e-27
3.5982008e-27
3.5983845e-27
3.5988677e-27
3.5998842e-27
3.6079728e-27
3.6028918e-27
3.6003224e-27
3.5990292e-27
3.5984299e-27
3.5982008e-27
3.5981899e-27
3.5983744e-27
3.5988584e-27
3.5998756e-27
3.6081233e-27
3.6030533e-27
3.6004943e-27
3.5992077e-27
3.5986118e-27
3.5983845e-27
3.5983744e-27
3.5985594e-27
3.599044e-27
3.6000616e-27
3.6085396e-27
3.6034996e-27
3.6009606e-27
3.5996842e-27
3.599093e-27
3.5988677e-27
3.5988584e-27
3.599044e-27
3.5995292e-27
3.6005477e-27
3.6094228e-27
3.6044703e-27
3.6019608e-27
3.6006952e-27
3.600108e-27
3.5998842e-27
3.5998756e-27
3.6000616e-27
3.6005477e-27
3.6015692e-27
1.2363493e-26
1.2346642e-26
1.2337884e-26
1.2333458e-26
1.2331396e-26
1.2330585e-26
1.233049e-26
1.2330997e-26
1.2332404e-26
1.23355e-26
1.2346642e-26
1.2329864e-26
1.2321131e-26
1.2316717e-26
1.231466e-26
1.2313857e-26
1.2313776e-26
1.2314321e-26
1.231583e-26
1.2319227e-26
1.2337884e-26
1.2321131e-26
1.2312413e-26
1.2308007e-26
1.2305956e-26
1.2305161e-26
1.2305097e-26
1.2305678e-26
1.2307255e-26
1.2310752e-26
1.2333458e-26
1.2316717e-26
1.2308007e-26
1.2303606e-26
1.230156e-26
1.2300772e-26
1.2300719e-26
1.2301322e-26
1.2302934e-26
1.2306468e-26
1.2331396e-26
1.231466e-26
1.2305956e-26
1.230156e-26
1.2299518e-26
1.2298734e-26
1.2298689e-26
1.2299304e-26
1.2300932e-26
1.2304479e-26
1.2330585e-26
1.2313857e-26
1.2305161e-26
1.2300772e-26
1.2298734e-26
1.2297954e-26
1.2297913e-26
1.2298533e-26
1.2300168e-26
1.2303721e-26
1.233049e-26
1.2313776e-26
1.2305097e-26
1.2300719e-26
1.2298689e-26
1.2297913e-26
1.2297875e-26
1.2298499e-26
1.2300136e-26
1.2303691e-26
1.2330997e-26
1.2314321e-26
1.2305678e-26
1.2301322e-26
1.2299304e-26
1.2298533e-26
1.2298499e-26
1.2299124e-26
1.2300763e-26
1.230432e-26
1.2332404e-26
1.231583e-26
1.2307255e-26
1.2302934e-26
1.2300932e-26
1.2300168e-26
1.2300136e-26
1.2300763e-26
1.2302405e-26
1.2305964e-26
1.23355e-26
1.2319227e-26
1.2310752e-26
1.2306468e-26
1.2304479e-26
1.2303721e-26
1.2303691e-26
1.230432e-26
1.2305964e-26
1.2309534e-26
2.641203e-26
2.6377196e-26
2.6358855e-26
2.6349562e-26
2.6345225e-26
2.634352e-26
2.6343316e-26
2.6344374e-26
2.634731e-26
2.6353973e-26
2.6377196e-26
2.6342508e-26
2.6324221e-26
2.6314951e-26
2.6310627e-26
2.6308937e-26
2.6308764e-26
2.6309902e-26
2.6313056e-26
2.6320359e-26
2.6358855e-26
2.6324221e-26
2.6305964e-26
2.6296711e-26
2.62924e-26
2.6290727e-26
2.629059e-26
2.6291803e-26
2.6295102e-26
2.6302619e-26
2.6349562e-26
2.6314951e-26
2.6296711e-26
2.628747e-26
2.6283168e-26
2.6281509e-26
2.6281397e-26
2.6282658e-26
2.6286032e-26
2.6293626e-26
2.6345225e-26
2.6310627e-26
2.62924e-26
2.6283168e-26
2.6278875e-26
2.6277225e-26
2.6277129e-26
2.6278415e-26
2.6281822e-26
2.6289446e-26
2.634352e-26
2.6308937e-26
2.6290727e-26
2.6281509e-26
2.6277225e-26
2.6275583e-26
2.6275496e-26
2.6276794e-26
2.6280216e-26
2.628785e-26
2.6343316e-26
2.6308764e-26
2.629059e-26
2.6281397e-26
2.6277129e-26
2.6275496e-26
2.6275415e-26
2.6276719e-26
2.6280147e-26
2.6287786e-26
2.6344374e-26
2.6309902e-26
2.6291803e-26
2.6282658e-26
2.6278415e-26
2.6276794e-26
2.6276719e-26
2.6278027e-26
2.6281458e-26
2.6289101e-26
2.634731e-26
2.6313056e-26
2.6295102e-26
2.6286032e-26
2.6281822e-26
2.6280216e-26
2.6280147e-26
2.6281458e-26
2.6284895e-26
2.6292544e-26
2.6353973e-26
2.6320359e-26
2.6302619e-26
2.6293626e-26
2.6289446e-26
2.628785e-26
2.6287786e-26
2.6289101e-26
2.6292544e-26
2.6300216e-26
5.2114815e-26
5.2048285e-26
5.2012988e-26
5.1995054e-26
5.1986671e-26
5.1983371e-26
5.1982969e-26
5.1984991e-26
5.1990599e-26
5.200342e-26
5.2048285e-26
5.1982033e-26
5.1946837e-26
5.1928946e-26
5.1920589e-26
5.1917317e-26
5.1916977e-26
5.1919156e-26
5.1925191e-26
5.1939271e-26
5.2012988e-26
5.1946837e-26
5.1911699e-26
5.1893841e-26
5.1885507e-26
5.188227e-26
5.1881998e-26
5.1884324e-26
5.1890644e-26
5.1905144e-26
5.1995054e-26
5.1928946e-26
5.1893841e-26
5.1876005e-26
5.186769e-26
5.186448e-26
5.1864259e-26
5.1866678e-26
5.1873143e-26
5.1887796e-26
5.1986671e-26
5.1920589e-26
5.1885507e-26
5.186769e-26
5.1859392e-26
5.18562e-26
5.1856009e-26
5.1858477e-26
5.1865009e-26
5.1879719e-26
5.1983371e-26
5.1917317e-26
5.188227e-26
5.186448e-26
5.18562e-26
5.1853023e-26
5.1852849e-26
5.1855341e-26
5.1861901e-26
5.1876633e-26
5.1982969e-26
5.1916977e-26
5.1881998e-26
5.1864259e-26
5.1856009e-26
5.1852849e-26
5.1852688e-26
5.1855192e-26
5.1861764e-26
5.1876504e-26
5.1984991e-26
5.1919156e-26
5.1884324e-26
5.1866678e-26
5.1858477e-26
5.1855341e-26
5.1855192e-26
5.1857704e-26
5.1864283e-26
5.187903e-26
5.1990599e-26
5.1925191e-26
5.1890644e-26
5.1873143e-26
5.1865009e-26
5.1861901e-26
5.1861764e-26
5.1864283e-26
5.187087e-26
5.188563e-26
5.200342e-26
5.1939271e-26
5.1905144e-26
5.1887796e-26
5.1879719e-26
5.1876633e-26
5.1876504e-26
5.187903e-26
5.188563e-26
5.1900435e-26
1.016043e-25
1.0147879e-25
1.0141184e-25
1.0137773e-25
1.0136176e-25
1.0135547e-25
1.0135469e-25
1.0135849e-25
1.0136901e-25
1.01393e-25
1.0147879e-25
1.013538e-25
1.0128704e-25
1.0125301e-25
1.0123709e-25
1.0123085e-25
1.0123018e-25
1.0123429e-25
1.0124564e-25
1.0127208e-25
1.0141184e-25
1.0128704e-25
1.0122038e-25
1.0118642e-25
1.0117054e-25
1.0116437e-25
1.0116384e-25
1.0116823e-25
1.0118013e-25
1.0120738e-25
1.0137773e-25
1.0125301e-25
1.0118642e-25
1.0115249e-25
1.0113666e-25
1.0113053e-25
1.011301e-25
1.0113467e-25
1.0114685e-25
1.011744e-25
1.0136176e-25
1.0123709e-25
1.0117054e-25
1.0113666e-25
1.0112085e-25
1.0111476e-25
1.0111439e-25
1.0111905e-25
1.0113136e-25
1.0115902e-25
1.0135547e-25
1.0123085e-25
1.0116437e-25
1.0113053e-25
1.0111476e-25
1.011087e-25
1.0110836e-25
1.0111307e-25
1.0112544e-25
1.0115314e-25
1.0135469e-25
1.0123018e-25
1.0116384e-25
1.011301e-25
1.0111439e-25
1.0110836e-25
1.0110805e-25
1.0111278e-25
1.0112517e-25
1.0115288e-25
1.0135849e-25
1.0123429e-25
1.0116823e-25
1.0113467e-25
1.0111905e-25
1.0111307e-25
1.0111278e-25
1.0111753e-25
1.0112993e-25
1.0115766e-25
1.0136901e-25
1.0124564e-25
1.0118013e-25
1.0114685e-25
1.0113136e-25
1.0112544e-25
1.0112517e-25
1.0112993e-25
1.0114235e-25
1.011701e-25
1.01393e-25
1.0127208e-25
1.0120738e-25
1.011744e-25
1.0115902e-25
1.0115314e-25
1.0115288e-25
1.0115766e-25
1.011701e-25
1.0119794e-25
1.990954e-25
1.9885752e-25
1.9873005e-25
1.9866494e-25
1.9863441e-25
1.9862235e-25
1.9862083e-25
1.9862801e-25
1.9864779e-25
1.9869261e-25
1.9885752e-25
1.986206e-25
1.9849349e-25
1.9842853e-25
1.9839809e-25
1.9838614e-25
1.9838485e-25
1.9839262e-25
1.9841401e-25
1.9846359e-25
1.9873005e-25
1.9849349e-25
1.9836658e-25
1.9830174e-25
1.9827139e-25
1.9825957e-25
1.9825853e-25
1.9826685e-25
1.9828932e-25
1.9834049e-25
1.9866494e-25
1.9842853e-25
1.9830174e-25
1.9823698e-25
1.982067e-25
1.9819498e-25
1.9819413e-25
1.982028e-25
1.9822582e-25
1.9827756e-25
1.9863441e-25
1.9839809e-25
1.9827139e-25
1.982067e-25
1.9817648e-25
1.9816482e-25
1.9816409e-25
1.9817294e-25
1.9819621e-25
1.9824817e-25
1.9862235e-25
1.9838614e-25
1.9825957e-25
1.9819498e-25
1.9816482e-25
1.9815323e-25
1.9815256e-25
1.981615e-25
1.9818487e-25
1.9823691e-25
1.9862083e-25
1.9838485e-25
1.9825853e-25
1.9819413e-25
1.9816409e-25
1.9815256e-25
1.9815194e-25
1.9816092e-25
1.9818434e-25
1.9823641e-25
1.9862801e-25
1.9839262e-25
1.9826685e-25
1.982028e-25
1.9817294e-25
1.981615e-25
1.9816092e-25
1.9816994e-25
1.9819338e-25
1.9824548e-25
1.9864779e-25
1.9841401e-25
1.9828932e-25
1.9822582e-25
1.9819621e-25
1.9818487e-25
1.9818434e-25
1.9819338e-25
1.9821686e-25
1.98269e-25
1.9869261e-25
1.9846359e-25
1.9834049e-25
1.9827756e-25
1.9824817e-25
1.9823691e-25
1.9823641e-25
1.9824548e-25
1.98269e-25
1.9832129e-25
3.9392888e-25
3.934738e-25
3.9322893e-25
3.9310354e-25
3.9304465e-25
3.9302136e-25
3.9301836e-25
3.9303202e-25
3.9306954e-25
3.9315384e-25
3.934738e-25
3.9302056e-25
3.9277637e-25
3.9265126e-25
3.9259254e-25
3.9256946e-25
3.9256691e-25
3.9258173e-25
3.9262242e-25
3.9271609e-25
3.9322893e-25
3.9277637e-25
3.9253257e-25
3.9240769e-25
3.9234914e-25
3.923263e-25
3.9232426e-25
3.9234016e-25
3.9238295e-25
3.9247975e-25
3.9310354e-25
3.9265126e-25
3.9240769e-25
3.9228296e-25
3.9222454e-25
3.922019e-25
3.9220023e-25
3.9221682e-25
3.9226068e-25
3.9235861e-25
3.9304465e-25
3.9259254e-25
3.9234914e-25
3.9222454e-25
3.9216624e-25
3.9214374e-25
3.9214229e-25
3.9215924e-25
3.9220359e-25
3.9230194e-25
3.9302136e-25
3.9256946e-25
3.923263e-25
3.922019e-25
3.9214374e-25
3.9212134e-25
3.9212002e-25
3.9213715e-25
3.9218171e-25
3.9228021e-25
3.9301836e-25
3.9256691e-25
3.9232426e-25
3.9220023e-25
3.9214229e-25
3.9212002e-25
3.9211879e-25
3.92136e-25
3.9218065e-25
3.9227922e-25
3.9303202e-25
3.9258173e-25
3.9234016e-25
3.9221682e-25
3.9215924e-25
3.9213715e-25
3.92136e-25
3.9215327e-25
3.9219797e-25
3.9229659e-25
3.9306954e-25
3.9262242e-25
3.9238295e-25
3.9226068e-25
3.9220359e-25
3.9218171e-25
3.9218065e-25
3.9219797e-25
3.9224273e-25
3.9234143e-25
3.9315384e-25
3.9271609e-25
3.9247975e-25
3.9235861e-25
3.9230194e-25
3.9228021e-25
3.9227922e-25
3.9229659e-25
3.9234143e-25
3.9244042e-25
7.8802632e-25
7.8714651e-25
7.8667121e-25
7.864272e-25
7.8631241e-25
7.8626695e-25
7.86261e-25
7.8628728e-25
7.8635917e-25
7.8651932e-25
7.8714651e-25
7.8627024e-25
7.8579622e-25
7.8555276e-25
7.854383e-25
7.8539325e-25
7.8538819e-25
7.8541678e-25
7.8549496e-25
7.8567373e-25
7.8667121e-25
7.8579622e-25
7.8532296e-25
7.8507993e-25
7.849658e-25
7.8492124e-25
7.8491718e-25
7.8494791e-25
7.8503026e-25
7.8521523e-25
7.864272e-25
7.8555276e-25
7.8507993e-25
7.848372e-25
7.8472334e-25
7.8467916e-25
7.8467584e-25
7.8470793e-25
7.847924e-25
7.8497961e-25
7.8631241e-25
7.854383e-25
7.849658e-25
7.8472334e-25
7.846097e-25
7.8456579e-25
7.8456291e-25
7.8459571e-25
7.8468116e-25
7.8486921e-25
7.8626695e-25
7.8539325e-25
7.8492124e-25
7.8467916e-25
7.8456579e-25
7.845221e-25
7.8451947e-25
7.8455262e-25
7.8463847e-25
7.8482684e-25
7.86261e-25
7.8538819e-25
7.8491718e-25
7.8467584e-25
7.8456291e-25
7.8451947e-25
7.8451701e-25
7.8455033e-25
7.8463637e-25
7.8482486e-25
7.8628728e-25
7.8541678e-25
7.8494791e-25
7.8470793e-25
7.8459571e-25
7.8455262e-25
7.8455033e-25
7.8458377e-25
7.846699e-25
7.8485848e-25
7.8635917e-25
7.8549496e-25
7.8503026e-25
7.847924e-25
7.8468116e-25
7.8463847e-25
7.8463637e-25
7.846699e-25
7.8475614e-25
7.8494489e-25
7.8651932e-25
7.8567373e-25
7.8521523e-25
7.8497961e-25
7.8486921e-25
7.8482684e-25
7.8482486e-25
7.8485848e-25
7.8494489e-25
7.8513418e-25
1.5944015e-24
1.5926818e-24
1.5917492e-24
1.5912692e-24
1.591043e-24
1.5909533e-24
1.5909414e-24
1.5909925e-24
1.5911318e-24
1.5914393e-24
1.5926818e-24
1.5909691e-24
1.5900389e-24
1.5895599e-24
1.5893344e-24
1.5892456e-24
1.5892354e-24
1.5892912e-24
1.589443e-24
1.589788e-24
1.5917492e-24
1.5900389e-24
1.5891102e-24
1.5886321e-24
1.5884072e-24
1.5883193e-24
1.5883112e-24
1.5883712e-24
1.5885315e-24
1.5888888e-24
1.5912692e-24
1.5895599e-24
1.5886321e-24
1.5881546e-24
1.5879302e-24
1.5878431e-24
1.5878364e-24
1.5878992e-24
1.5880637e-24
1.5884256e-24
1.591043e-24
1.5893344e-24
1.5884072e-24
1.5879302e-24
1.5877063e-24
1.5876197e-24
1.5876139e-24
1.5876781e-24
1.5878446e-24
1.5882082e-24
1.5909533e-24
1.5892456e-24
1.5883193e-24
1.5878431e-24
1.5876197e-24
1.5875336e-24
1.5875283e-24
1.5875932e-24
1.5877605e-24
1.5881247e-24
1.5909414e-24
1.5892354e-24
1.5883112e-24
1.5878364e-24
1.5876139e-24
1.5875283e-24
1.5875234e-24
1.5875886e-24
1.5877562e-24
1.5881207e-24
1.5909925e-24
1.5892912e-24
1.5883712e-24
1.5878992e-24
1.5876781e-24
1.5875932e-24
1.5875886e-24
1.587654e-24
1.5878219e-24
1.5881865e-24
1.5911318e-24
1.589443e-24
1.5885315e-24
1.5880637e-24
1.5878446e-24
1.5877605e-24
1.5877562e-24
1.5878219e-24
1.5879899e-24
1.5883549e-24
1.5914393e-24
1.589788e-24
1.5888888e-24
1.5884256e-24
1.5882082e-24
1.5881247e-24
1.5881207e-24
1.5881865e-24
1.5883549e-24
1.5887208e-24
3.2632602e-24
3.2598617e-24
3.2580113e-24
3.2570567e-24
3.2566061e-24
3.2564273e-24
3.2564031e-24
3.2565037e-24
3.2567766e-24
3.2573737e-24
3.2598617e-24
3.2564767e-24
3.2546311e-24
3.2536785e-24
3.2532293e-24
3.2530521e-24
3.2530315e-24
3.2531415e-24
3.25344e-24
3.2541131e-24
3.2580113e-24
3.2546311e-24
3.2527885e-24
3.2518375e-24
3.2513896e-24
3.2512143e-24
3.2511979e-24
3.2513165e-24
3.2516319e-24
3.2523303e-24
3.2570567e-24
3.2536785e-24
3.2518375e-24
3.2508878e-24
3.2504409e-24
3.2502672e-24
3.2502537e-24
3.2503779e-24
3.2507019e-24
3.2514094e-24
3.2566061e-24
3.2532293e-24
3.2513896e-24
3.2504409e-24
3.249995e-24
3.2498223e-24
3.2498106e-24
3.2499377e-24
3.2502656e-24
3.2509766e-24
3.2564273e-24
3.2530521e-24
3.2512143e-24
3.2502672e-24
3.2498223e-24
3.2496506e-24
3.2496398e-24
3.2497683e-24
3.250098e-24
3.2508102e-24
3.2564031e-24
3.2530315e-24
3.2511979e-24
3.2502537e-24
3.2498106e-24
3.2496398e-24
3.2496299e-24
3.249759e-24
3.2500894e-24
3.2508021e-24
3.2565037e-24
3.2531415e-24
3.2513165e-24
3.2503779e-24
3.2499377e-24
3.2497683e-24
3.249759e-24
3.2498886e-24
3.2502194e-24
3.2509325e-24
3.2567766e-24
3.25344e-24
3.2516319e-24
3.2507019e-24
3.2502656e-24
3.250098e-24
3.2500894e-24
3.2502194e-24
3.2505506e-24
3.2512642e-24
3.2573737e-24
3.2541131e-24
3.2523303e-24
3.2514094e-24
3.2509766e-24
3.2508102e-24
3.2508021e-24
3.2509325e-24
3.2512642e-24
3.2519799e-24
6.7567325e-24
6.749941e-24
6.7462289e-24
6.7443091e-24
6.7434018e-24
6.7430411e-24
6.7429917e-24
6.7431919e-24
6.7437326e-24
6.7449051e-24
6.749941e-24
6.743176e-24
6.7394735e-24
6.7375579e-24
6.7366532e-24
6.7362958e-24
6.7362538e-24
6.7364732e-24
6.7370664e-24
6.738395e-24
6.7462289e-24
6.7394735e-24
6.7357768e-24
6.7338645e-24
6.7329624e-24
6.732609e-24
6.7325753e-24
6.7328125e-24
6.7334405e-24
6.734821e-24
6.7443091e-24
6.7375579e-24
6.7338645e-24
6.7319546e-24
6.7310546e-24
6.7307043e-24
6.7306768e-24
6.7309253e-24
6.7315709e-24
6.7329701e-24
6.7434018e-24
6.7366532e-24
6.7329624e-24
6.7310546e-24
6.7301564e-24
6.7298084e-24
6.7297845e-24
6.7300389e-24
6.7306926e-24
6.7320988e-24
6.7430411e-24
6.7362958e-24
6.732609e-24
6.7307043e-24
6.7298084e-24
6.7294622e-24
6.7294403e-24
6.7296976e-24
6.7303547e-24
6.7317636e-24
6.7429917e-24
6.7362538e-24
6.7325753e-24
6.7306768e-24
6.7297845e-24
6.7294403e-24
6.7294199e-24
6.7296786e-24
6.7303372e-24
6.7317472e-24
6.7431919e-24
6.7364732e-24
6.7328125e-24
6.7309253e-24
6.7300389e-24
6.7296976e-24
6.7296786e-24
6.7299383e-24
6.7305977e-24
6.7320083e-24
6.7437326e-24
6.7370664e-24
6.7334405e-24
6.7315709e-24
6.7306926e-24
6.7303547e-24
6.7303372e-24
6.7305977e-24
6.7312579e-24
6.7326697e-24
6.7449051e-24
6.738395e-24
6.734821e-24
6.7329701e-24
6.7320988e-24
6.7317636e-24
6.7317472e-24
6.7320083e-24
6.7326697e-24
6.7340854e-24
1.4153927e-23
1.4140203e-23
1.4132673e-23
1.4128769e-23
1.4126921e-23
1.4126186e-23
1.4126084e-23
1.4126487e-23
1.4127571e-23
1.4129899e-23
1.4140203e-23
1.4126531e-23
1.411902e-23
1.4115125e-23
1.4113283e-23
1.4112554e-23
1.4112467e-23
1.411291e-23
1.4114103e-23
1.4116756e-23
1.4132673e-23
1.411902e-23
1.4111521e-23
1.4107633e-23
1.4105796e-23
1.4105075e-23
1.4105006e-23
1.4105485e-23
1.410675e-23
1.4109511e-23
1.4128769e-23
1.4115125e-23
1.4107633e-23
1.4103749e-23
1.4101916e-23
1.4101202e-23
1.4101145e-23
1.4101649e-23
1.410295e-23
1.4105749e-23
1.4126921e-23
1.4113283e-23
1.4105796e-23
1.4101916e-23
1.4100087e-23
1.4099378e-23
1.4099329e-23
1.4099844e-23
1.4101162e-23
1.4103976e-23
1.4126186e-23
1.4112554e-23
1.4105075e-23
1.4101202e-23
1.4099378e-23
1.4098672e-23
1.4098627e-23
1.4099149e-23
1.4100474e-23
1.4103293e-23
1.4126084e-23
1.4112467e-23
1.4105006e-23
1.4101145e-23
1.4099329e-23
1.4098627e-23
1.4098585e-23
1.409911e-23
1.4100438e-23
1.4103259e-23
1.4126487e-23
1.411291e-23
1.4105485e-23
1.4101649e-23
1.4099844e-23
1.4099149e-23
1.409911e-23
1.4099636e-23
1.4100966e-23
1.4103788e-23
1.4127571e-23
1.4114103e-23
1.410675e-23
1.410295e-23
1.4101162e-23
1.4100474e-23
1.4100438e-23
1.4100966e-23
1.4102297e-23
1.4105122e-23
1.4129899e-23
1.4116756e-23
1.4109511e-23
1.4105749e-23
1.4103976e-23
1.4103293e-23
1.4103259e-23
1.4103788e-23
1.4105122e-23
1.4107955e-23
2.9997947e-23
2.9969899e-23
2.9954453e-23
2.9946427e-23
2.9942623e-23
2.9941107e-23
2.9940894e-23
2.9941715e-23
2.9943912e-23
2.9948589e-23
2.9969899e-23
2.9941959e-23
2.9926552e-23
2.9918543e-23
2.9914749e-23
2.9913247e-23
2.9913066e-23
2.991397e-23
2.9916396e-23
2.9921755e-23
2.9954453e-23
2.9926552e-23
2.9911168e-23
2.9903173e-23
2.989939e-23
2.9897905e-23
2.9897761e-23
2.9898742e-23
2.9901319e-23
2.9906903e-23
2.9946427e-23
2.9918543e-23
2.9903173e-23
2.9895187e-23
2.9891413e-23
2.9889942e-23
2.9889824e-23
2.9890855e-23
2.9893508e-23
2.9899174e-23
2.9942623e-23
2.9914749e-23
2.989939e-23
2.9891413e-23
2.9887648e-23
2.9886186e-23
2.9886083e-23
2.988714e-23
2.9889828e-23
2.9895525e-23
2.9941107e-23
2.9913247e-23
2.9897905e-23
2.9889942e-23
2.9886186e-23
2.9884732e-23
2.9884639e-23
2.9885707e-23
2.9888411e-23
2.9894118e-23
2.9940894e-23
2.9913066e-23
2.9897761e-23
2.9889824e-23
2.9886083e-23
2.9884639e-23
2.9884552e-23
2.9885626e-23
2.9888336e-23
2.9894048e-23
2.9941715e-23
2.991397e-23
2.9898742e-23
2.9890855e-23
2.988714e-23
2.9885707e-23
2.9885626e-23
2.9886705e-23
2.9889418e-23
2.9895133e-23
2.9943912e-23
2.9916396e-23
2.9901319e-23
2.9893508e-23
2.9889828e-23
2.9888411e-23
2.9888336e-23
2.9889418e-23
2.9892135e-23
2.9897855e-23
2.9948589e-23
2.9921755e-23
2.9906903e-23
2.9899174e-23
2.9895525e-23
2.9894118e-23
2.9894048e-23
2.9895133e-23
2.9897855e-23
2.990359e-23
6.4327314e-23
6.4269349e-23
6.4237309e-23
6.4220622e-23
6.42127e-23
6.420954e-23
6.4209092e-23
6.4210783e-23
6.4215289e-23
6.4224793e-23
6.4269349e-23
6.4211603e-23
6.4179643e-23
6.4162991e-23
6.4155091e-23
6.4151961e-23
6.4151581e-23
6.4153449e-23
6.415844e-23
6.416939e-23
6.4237309e-23
6.4179643e-23
6.4147731e-23
6.4131107e-23
6.4123231e-23
6.4120136e-23
6.4119833e-23
6.4121864e-23
6.4127176e-23
6.4138605e-23
6.4220622e-23
6.4162991e-23
6.4131107e-23
6.4114504e-23
6.4106646e-23
6.4103581e-23
6.4103333e-23
6.4105468e-23
6.4110942e-23
6.4122545e-23
6.42127e-23
6.4155091e-23
6.4123231e-23
6.4106646e-23
6.4098806e-23
6.409576e-23
6.4095546e-23
6.4097736e-23
6.4103284e-23
6.4114951e-23
6.420954e-23
6.4151961e-23
6.4120136e-23
6.4103581e-23
6.409576e-23
6.4092732e-23
6.4092536e-23
6.4094752e-23
6.4100332e-23
6.4112023e-23
6.4209092e-23
6.4151581e-23
6.4119833e-23
6.4103333e-23
6.4095546e-23
6.4092536e-23
6.4092354e-23
6.4094583e-23
6.4100176e-23
6.4111877e-23
6.4210783e-23
6.4153449e-23
6.4121864e-23
6.4105468e-23
6.4097736e-23
6.4094752e-23
6.4094583e-23
6.409682e-23
6.4102421e-23
6.4114127e-23
6.4215289e-23
6.415844e-23
6.4127176e-23
6.4110942e-23
6.4103284e-23
6.4100332e-23
6.4100176e-23
6.4102421e-23
6.4108028e-23
6.4119744e-23
6.4224793e-23
6.416939e-23
6.4138605e-23
6.4122545e-23
6.4114951e-23
6.4112023e-23
6.4111877e-23
6.4114127e-23
6.4119744e-23
6.4131492e-23
1.3957237e-22
1.3945122e-22
1.3938402e-22
1.3934894e-22
1.3933226e-22
1.393256e-22
1.3932464e-22
1.3932817e-22
1.3933752e-22
1.3935705e-22
1.3945122e-22
1.3933053e-22
1.3926349e-22
1.3922848e-22
1.3921185e-22
1.3920525e-22
1.3920444e-22
1.3920835e-22
1.3921874e-22
1.3924138e-22
1.3938402e-22
1.3926349e-22
1.3919655e-22
1.391616e-22
1.3914501e-22
1.3913849e-22
1.3913785e-22
1.3914211e-22
1.3915318e-22
1.3917685e-22
1.3934894e-22
1.3922848e-22
1.391616e-22
1.3912669e-22
1.3911015e-22
1.3910369e-22
1.3910316e-22
1.3910764e-22
1.3911907e-22
1.391431e-22
1.3933226e-22
1.3921185e-22
1.3914501e-22
1.3911015e-22
1.3909364e-22
1.3908722e-22
1.3908677e-22
1.3909136e-22
1.3910295e-22
1.3912713e-22
1.393256e-22
1.3920525e-22
1.3913849e-22
1.3910369e-22
1.3908722e-22
1.3908084e-22
1.3908043e-22
1.3908508e-22
1.3909673e-22
1.3912096e-22
1.3932464e-22
1.3920444e-22
1.3913785e-22
1.3910316e-22
1.3908677e-22
1.3908043e-22
1.3908005e-22
1.3908473e-22
1.3909641e-22
1.3912065e-22
1.3932817e-22
1.3920835e-22
1.3914211e-22
1.3910764e-22
1.3909136e-22
1.3908508e-22
1.3908473e-22
1.3908942e-22
1.3910112e-22
1.3912538e-22
1.3933752e-22
1.3921874e-22
1.3915318e-22
1.3911907e-22
1.3910295e-22
1.3909673e-22
1.3909641e-22
1.3910112e-22
1.3911283e-22
1.3913711e-22
1.3935705e-22
1.3924138e-22
1.3917685e-22
1.391431e-22
1.3912713e-22
1.3912096e-22
1.3912065e-22
1.3912538e-22
1.3913711e-22
1.3916145e-22
3.0641514e-22
3.0615908e-22
3.0601652e-22
3.0594194e-22
3.0590644e-22
3.0589224e-22
3.0589019e-22
3.0589763e-22
3.0591725e-22
3.0595786e-22
3.0615908e-22
3.0590398e-22
3.0576176e-22
3.0568733e-22
3.0565192e-22
3.0563787e-22
3.0563613e-22
3.0564439e-22
3.0566627e-22
3.0571362e-22
3.0601652e-22
3.0576176e-22
3.0561976e-22
3.0554546e-22
3.0551015e-22
3.0549626e-22
3.0549488e-22
3.055039e-22
3.0552727e-22
3.0557685e-22
3.0594194e-22
3.0568733e-22
3.0554546e-22
3.0547124e-22
3.0543603e-22
3.0542227e-22
3.0542115e-22
3.0543064e-22
3.0545477e-22
3.0550516e-22
3.0590644e-22
3.0565192e-22
3.0551015e-22
3.0543603e-22
3.0540089e-22
3.0538722e-22
3.0538625e-22
3.0539601e-22
3.0542048e-22
3.0547117e-22
3.0589224e-22
3.0563787e-22
3.0549626e-22
3.0542227e-22
3.0538722e-22
3.0537363e-22
3.0537275e-22
3.0538263e-22
3.0540724e-22
3.0545805e-22
3.0589019e-22
3.0563613e-22
3.0549488e-22
3.0542115e-22
3.0538625e-22
3.0537275e-22
3.0537194e-22
3.0538187e-22
3.0540655e-22
3.054574e-22
3.0589763e-22
3.0564439e-22
3.055039e-22
3.0543064e-22
3.0539601e-22
3.0538263e-22
3.0538187e-22
3.0539184e-22
3.0541655e-22
3.0546743e-22
3.0591725e-22
3.0566627e-22
3.0552727e-22
3.0545477e-22
3.0542048e-22
3.0540724e-22
3.0540655e-22
3.0541655e-22
3.0544129e-22
3.0549221e-22
3.0595786e-22
3.0571362e-22
3.0557685e-22
3.0550516e-22
3.0547117e-22
3.0545805e-22
3.054574e-22
3.0546743e-22
3.0549221e-22
3.0554326e-22
6.8065914e-22
6.8011183e-22
6.7980605e-22
6.7964573e-22
6.795693e-22
6.7953872e-22
6.7953427e-22
6.7955013e-22
6.7959179e-22
6.7967719e-22
6.8011183e-22
6.7956655e-22
6.792615e-22
6.7910149e-22
6.7902527e-22
6.7899498e-22
6.7899123e-22
6.7900889e-22
6.7905551e-22
6.7915572e-22
6.7980605e-22
6.792615e-22
6.789569e-22
6.7879716e-22
6.7872116e-22
6.7869124e-22
6.7868826e-22
6.7870759e-22
6.7875748e-22
6.7886259e-22
6.7964573e-22
6.7910149e-22
6.7879716e-22
6.7863762e-22
6.7856181e-22
6.7853218e-22
6.7852976e-22
6.7855015e-22
6.7860169e-22
6.7870857e-22
6.795693e-22
6.7902527e-22
6.7872116e-22
6.7856181e-22
6.7848617e-22
6.7845674e-22
6.7845466e-22
6.784756e-22
6.785279e-22
6.7863544e-22
6.7953872e-22
6.7899498e-22
6.7869124e-22
6.7853218e-22
6.7845674e-22
6.7842748e-22
6.784256e-22
6.784468e-22
6.7849942e-22
6.7860721e-22
6.7953427e-22
6.7899123e-22
6.7868826e-22
6.7852976e-22
6.7845466e-22
6.784256e-22
6.7842384e-22
6.7844518e-22
6.7849794e-22
6.7860582e-22
6.7955013e-22
6.7900889e-22
6.7870759e-22
6.7855015e-22
6.784756e-22
6.784468e-22
6.7844518e-22
6.7846661e-22
6.7851943e-22
6.7862737e-22
6.7959179e-22
6.7905551e-22
6.7875748e-22
6.7860169e-22
6.785279e-22
6.7849942e-22
6.7849794e-22
6.7851943e-22
6.7857233e-22
6.7868035e-22
6.7967719e-22
6.7915572e-22
6.7886259e-22
6.7870857e-22
6.7863544e-22
6.7860721e-22
6.7860582e-22
6.7862737e-22
6.7868035e-22
6.7878865e-22
1.5298717e-21
1.5286887e-21
1.5280255e-21
1.527677e-21
1.5275106e-21
1.527444e-21
1.5274343e-21
1.5274685e-21
1.527558e-21
1.5277397e-21
1.5286887e-21
1.5275101e-21
1.5268484e-21
1.5265006e-21
1.5263347e-21
1.5262687e-21
1.5262605e-21
1.5262987e-21
1.5263992e-21
1.5266138e-21
1.5280255e-21
1.5268484e-21
1.5261877e-21
1.5258405e-21
1.5256751e-21
1.5256099e-21
1.5256034e-21
1.5256453e-21
1.5257531e-21
1.5259785e-21
1.527677e-21
1.5265006e-21
1.5258405e-21
1.5254937e-21
1.5253287e-21
1.5252641e-21
1.5252589e-21
1.5253032e-21
1.5254146e-21
1.5256439e-21
1.5275106e-21
1.5263347e-21
1.5256751e-21
1.5253287e-21
1.525164e-21
1.5251e-21
1.5250955e-21
1.525141e-21
1.5252541e-21
1.5254849e-21
1.527444e-21
1.5262687e-21
1.5256099e-21
1.5252641e-21
1.5251e-21
1.5250363e-21
1.5250322e-21
1.5250783e-21
1.5251921e-21
1.5254235e-21
1.5274343e-21
1.5262605e-21
1.5256034e-21
1.5252589e-21
1.5250955e-21
1.5250322e-21
1.5250284e-21
1.5250748e-21
1.5251889e-21
1.5254205e-21
1.5274685e-21
1.5262987e-21
1.5256453e-21
1.5253032e-21
1.525141e-21
1.5250783e-21
1.5250748e-21
1.5251214e-21
1.5252356e-21
1.5254673e-21
1.527558e-21
1.5263992e-21
1.5257531e-21
1.5254146e-21
1.5252541e-21
1.5251921e-21
1.5251889e-21
1.5252356e-21
1.52535e-21
1.5255819e-21
1.5277397e-21
1.5266138e-21
1.5259785e-21
1.5256439e-21
1.5254849e-21
1.5254235e-21
1.5254205e-21
1.5254673e-21
1.5255819e-21
1.5258144e-21
3.4791908e-21
3.4766051e-21
3.4751506e-21
3.4743847e-21
3.4740186e-21
3.4738718e-21
3.4738502e-21
3.473925e-21
3.4741195e-21
3.4745105e-21
3.4766051e-21
3.4740289e-21
3.4725777e-21
3.4718133e-21
3.4714481e-21
3.4713029e-21
3.4712847e-21
3.4713685e-21
3.4715877e-21
3.4720524e-21
3.4751506e-21
3.4725777e-21
3.4711287e-21
3.4703655e-21
3.4700015e-21
3.469858e-21
3.4698436e-21
3.4699357e-21
3.4701711e-21
3.4706603e-21
3.4743847e-21
3.4718133e-21
3.4703655e-21
3.4696032e-21
3.4692402e-21
3.4690981e-21
3.4690866e-21
3.4691839e-21
3.4694275e-21
3.4699255e-21
3.4740186e-21
3.4714481e-21
3.4700015e-21
3.4692402e-21
3.4688779e-21
3.4687368e-21
3.468727e-21
3.468827e-21
3.4690744e-21
3.4695757e-21
3.4738718e-21
3.4713029e-21
3.469858e-21
3.4690981e-21
3.4687368e-21
3.4685966e-21
3.4685877e-21
3.4686891e-21
3.4689381e-21
3.4694406e-21
3.4738502e-21
3.4712847e-21
3.4698436e-21
3.4690866e-21
3.468727e-21
3.4685877e-21
3.4685795e-21
3.4686815e-21
3.4689312e-21
3.4694342e-21
3.473925e-21
3.4713685e-21
3.4699357e-21
3.4691839e-21
3.468827e-21
3.4686891e-21
3.4686815e-21
3.468784e-21
3.469034e-21
3.4695373e-21
3.4741195e-21
3.4715877e-21
3.4701711e-21
3.4694275e-21
3.4690744e-21
3.4689381e-21
3.4689312e-21
3.469034e-21
3.4692843e-21
3.469788e-21
3.4745105e-21
3.4720524e-21
3.4706603e-21
3.4699255e-21
3.4695757e-21
3.4694406e-21
3.4694342e-21
3.4695373e-21
3.469788e-21
3.4702929e-21
8.0054541e-21
7.9997395e-21
7.9965142e-21
7.9948122e-21
7.9939977e-21
7.9936709e-21
7.9936226e-21
7.9937879e-21
7.9942155e-21
7.9950665e-21
7.9997395e-21
7.9940457e-21
7.9908277e-21
7.989129e-21
7.9883166e-21
7.9879932e-21
7.9879527e-21
7.9881383e-21
7.9886219e-21
7.9896405e-21
7.9965142e-21
7.9908277e-21
7.9876143e-21
7.9859184e-21
7.9851085e-21
7.9847891e-21
7.9847573e-21
7.9849617e-21
7.9854821e-21
7.9865562e-21
7.9948122e-21
7.989129e-21
7.9859184e-21
7.9842246e-21
7.9834168e-21
7.9831006e-21
7.9830751e-21
7.9832914e-21
7.9838305e-21
7.9849246e-21
7.9939977e-21
7.9883166e-21
7.9851085e-21
7.9834168e-21
7.9826108e-21
7.9822969e-21
7.9822752e-21
7.9824977e-21
7.9830453e-21
7.9841468e-21
7.9936709e-21
7.9879932e-21
7.9847891e-21
7.9831006e-21
7.9822969e-21
7.9819849e-21
7.9819654e-21
7.9821909e-21
7.9827421e-21
7.9838464e-21
7.9936226e-21
7.9879527e-21
7.9847573e-21
7.9830751e-21
7.9822752e-21
7.9819654e-21
7.9819474e-21
7.9821744e-21
7.9827271e-21
7.9838325e-21
7.9937879e-21
7.9881383e-21
7.9849617e-21
7.9832914e-21
7.9824977e-21
7.9821909e-21
7.9821744e-21
7.9824023e-21
7.9829558e-21
7.9840618e-21
7.9942155e-21
7.9886219e-21
7.9854821e-21
7.9838305e-21
7.9830453e-21
7.9827421e-21
7.9827271e-21
7.9829558e-21
7.98351e-21
7.9846168e-21
7.9950665e-21
7.9896405e-21
7.9865562e-21
7.9849246e-21
7.9841468e-21
7.9838464e-21
7.9838325e-21
7.9840618e-21
7.9846168e-21
7.9857263e-21
1.8636271e-20
1.8623501e-20
1.861627e-20
1.8612447e-20
1.8610615e-20
1.8609879e-20
1.860977e-20
1.861014e-20
1.861109e-20
1.8612964e-20
1.8623501e-20
1.8610778e-20
1.8603563e-20
1.8599747e-20
1.8597919e-20
1.8597191e-20
1.85971e-20
1.8597516e-20
1.8598596e-20
1.8600854e-20
1.861627e-20
1.8603563e-20
1.8596359e-20
1.8592549e-20
1.8590727e-20
1.8590008e-20
1.8589937e-20
1.8590396e-20
1.859156e-20
1.8593946e-20
1.8612447e-20
1.8599747e-20
1.8592549e-20
1.8588743e-20
1.8586926e-20
1.8586215e-20
1.8586158e-20
1.8586645e-20
1.8587851e-20
1.8590283e-20
1.8610615e-20
1.8597919e-20
1.8590727e-20
1.8586926e-20
1.8585113e-20
1.8584407e-20
1.8584359e-20
1.858486e-20
1.8586086e-20
1.8588535e-20
1.8609879e-20
1.8597191e-20
1.8590008e-20
1.8586215e-20
1.8584407e-20
1.8583706e-20
1.8583662e-20
1.858417e-20
1.8585404e-20
1.858786e-20
1.860977e-20
1.85971e-20
1.8589937e-20
1.8586158e-20
1.8584359e-20
1.8583662e-20
1.8583623e-20
1.8584134e-20
1.8585371e-20
1.8587829e-20
1.861014e-20
1.8597516e-20
1.8590396e-20
1.8586645e-20
1.858486e-20
1.858417e-20
1.8584134e-20
1.8584647e-20
1.8585886e-20
1.8588345e-20
1.861109e-20
1.8598596e-20
1.859156e-20
1.8587851e-20
1.8586086e-20
1.8585404e-20
1.8585371e-20
1.8585886e-20
1.8587127e-20
1.8589588e-20
1.8612964e-20
1.8600854e-20
1.8593946e-20
1.8590283e-20
1.8588535e-20
1.858786e-20
1.8587829e-20
1.8588345e-20