/*--------------------------------*- C++ -*----------------------------------*\
| =========                 |                                                 |
| \\      /  F ield         | OpenFOAM: The Open Source CFD Toolbox           |
|  \\    /   O peration     | Version:  dev                                   |
|   \\  /    A nd           | Web:      www.OpenFOAM.org                      |
|    \\/     M anipulation  |                                                 |
\*---------------------------------------------------------------------------*/
FoamFile
{
    version     2.0;
    format      ascii;
    class       volScalarField;
    location    "45.995";
    object      A_0;
}
// * * * * * * * * * * * * * * * * * * * * * * * * * * * * * * * * * * * * * //

dimensions      [0 0 0 0 1 0 0];

internalField   nonuniform List<scalar> 
10000
(
1.2497314e-34
1.2469183e-34
1.2459623e-34
1.245682e-34
1.2456117e-34
1.245597e-34
1.2456003e-34
1.2456296e-34
1.2457418e-34
1.2460771e-34
1.2469183e-34
1.2441214e-34
1.2431699e-34
1.2428909e-34
1.2428209e-34
1.2428064e-34
1.2428104e-34
1.2428431e-34
1.2429684e-34
1.2433507e-34
1.2459623e-34
1.2431699e-34
1.2422203e-34
1.2419418e-34
1.241872e-34
1.2418576e-34
1.2418622e-34
1.241897e-34
1.2420286e-34
1.2424238e-34
1.245682e-34
1.2428909e-34
1.2419418e-34
1.2416635e-34
1.2415938e-34
1.2415795e-34
1.2415843e-34
1.2416198e-34
1.2417535e-34
1.2421519e-34
1.2456117e-34
1.2428209e-34
1.241872e-34
1.2415938e-34
1.2415241e-34
1.2415098e-34
1.2415147e-34
1.2415505e-34
1.2416846e-34
1.2420838e-34
1.245597e-34
1.2428064e-34
1.2418576e-34
1.2415795e-34
1.2415098e-34
1.2414955e-34
1.2415005e-34
1.2415363e-34
1.2416706e-34
1.2420699e-34
1.2456003e-34
1.2428104e-34
1.2418622e-34
1.2415843e-34
1.2415147e-34
1.2415005e-34
1.2415054e-34
1.2415413e-34
1.2416756e-34
1.2420749e-34
1.2456296e-34
1.2428431e-34
1.241897e-34
1.2416198e-34
1.2415505e-34
1.2415363e-34
1.2415413e-34
1.2415771e-34
1.2417115e-34
1.2421109e-34
1.2457418e-34
1.2429684e-34
1.2420286e-34
1.2417535e-34
1.2416846e-34
1.2416706e-34
1.2416756e-34
1.2417115e-34
1.241846e-34
1.2422457e-34
1.2460771e-34
1.2433507e-34
1.2424238e-34
1.2421519e-34
1.2420838e-34
1.2420699e-34
1.2420749e-34
1.2421109e-34
1.2422457e-34
1.2426467e-34
4.6176356e-34
4.6076373e-34
4.6041571e-34
4.6031347e-34
4.6028781e-34
4.6028242e-34
4.6028361e-34
4.6029425e-34
4.6033501e-34
4.6046243e-34
4.6076373e-34
4.5976956e-34
4.5942316e-34
4.5932136e-34
4.5929581e-34
4.5929049e-34
4.5929196e-34
4.5930382e-34
4.5934943e-34
4.594943e-34
4.6041571e-34
4.5942316e-34
4.5907742e-34
4.5897582e-34
4.5895033e-34
4.5894508e-34
4.5894674e-34
4.5895937e-34
4.5900731e-34
4.5915693e-34
4.6031347e-34
4.5932136e-34
4.5897582e-34
4.588743e-34
4.5884884e-34
4.588436e-34
4.5884536e-34
4.5885827e-34
4.5890697e-34
4.5905776e-34
4.6028781e-34
4.5929581e-34
4.5895033e-34
4.5884884e-34
4.5882338e-34
4.5881816e-34
4.5881994e-34
4.5883294e-34
4.5888183e-34
4.5903288e-34
4.6028242e-34
4.5929049e-34
4.5894508e-34
4.588436e-34
4.5881816e-34
4.5881295e-34
4.5881474e-34
4.5882776e-34
4.5887669e-34
4.590278e-34
4.6028361e-34
4.5929196e-34
4.5894674e-34
4.5884536e-34
4.5881994e-34
4.5881474e-34
4.5881654e-34
4.5882956e-34
4.5887851e-34
4.5902963e-34
4.6029425e-34
4.5930382e-34
4.5895937e-34
4.5885827e-34
4.5883294e-34
4.5882776e-34
4.5882956e-34
4.588426e-34
4.5889156e-34
4.5904271e-34
4.6033501e-34
4.5934943e-34
4.5900731e-34
4.5890697e-34
4.5888183e-34
4.5887669e-34
4.5887851e-34
4.5889156e-34
4.5894057e-34
4.5909183e-34
4.6046243e-34
4.594943e-34
4.5915693e-34
4.5905776e-34
4.5903288e-34
4.590278e-34
4.5902963e-34
4.5904271e-34
4.5909183e-34
4.5924359e-34
1.1306615e-33
1.1282925e-33
1.1274604e-33
1.1272154e-33
1.1271538e-33
1.1271409e-33
1.1271437e-33
1.1271689e-33
1.1272656e-33
1.1275775e-33
1.1282925e-33
1.1259368e-33
1.1251084e-33
1.1248645e-33
1.1248032e-33
1.1247904e-33
1.1247939e-33
1.1248221e-33
1.1249306e-33
1.1252851e-33
1.1274604e-33
1.1251084e-33
1.1242816e-33
1.1240382e-33
1.123977e-33
1.1239644e-33
1.1239684e-33
1.1239984e-33
1.1241126e-33
1.1244787e-33
1.1272154e-33
1.1248645e-33
1.1240382e-33
1.1237949e-33
1.1237338e-33
1.1237213e-33
1.1237254e-33
1.1237562e-33
1.1238722e-33
1.1242411e-33
1.1271538e-33
1.1248032e-33
1.123977e-33
1.1237338e-33
1.1236728e-33
1.1236602e-33
1.1236645e-33
1.1236954e-33
1.1238119e-33
1.1241815e-33
1.1271409e-33
1.1247904e-33
1.1239644e-33
1.1237213e-33
1.1236602e-33
1.1236477e-33
1.123652e-33
1.123683e-33
1.1237996e-33
1.1241693e-33
1.1271437e-33
1.1247939e-33
1.1239684e-33
1.1237254e-33
1.1236645e-33
1.123652e-33
1.1236562e-33
1.1236872e-33
1.1238039e-33
1.1241736e-33
1.1271689e-33
1.1248221e-33
1.1239984e-33
1.1237562e-33
1.1236954e-33
1.123683e-33
1.1236872e-33
1.1237183e-33
1.123835e-33
1.1242048e-33
1.1272656e-33
1.1249306e-33
1.1241126e-33
1.1238722e-33
1.1238119e-33
1.1237996e-33
1.1238039e-33
1.123835e-33
1.1239518e-33
1.1243219e-33
1.1275775e-33
1.1252851e-33
1.1244787e-33
1.1242411e-33
1.1241815e-33
1.1241693e-33
1.1241736e-33
1.1242048e-33
1.1243219e-33
1.1246931e-33
2.6396349e-33
2.6342801e-33
2.6323906e-33
2.6318334e-33
2.6316932e-33
2.6316636e-33
2.6316698e-33
2.6317263e-33
2.631943e-33
2.6326449e-33
2.6342801e-33
2.6289549e-33
2.6270739e-33
2.626519e-33
2.6263794e-33
2.6263503e-33
2.626358e-33
2.6264215e-33
2.6266656e-33
2.6274666e-33
2.6323906e-33
2.6270739e-33
2.6251965e-33
2.6246427e-33
2.6245034e-33
2.6244746e-33
2.6244834e-33
2.6245512e-33
2.6248085e-33
2.6256364e-33
2.6318334e-33
2.626519e-33
2.6246427e-33
2.6240892e-33
2.6239501e-33
2.6239214e-33
2.6239307e-33
2.6240001e-33
2.6242617e-33
2.6250962e-33
2.6316932e-33
2.6263794e-33
2.6245034e-33
2.6239501e-33
2.623811e-33
2.6237824e-33
2.6237919e-33
2.6238618e-33
2.6241244e-33
2.6249604e-33
2.6316636e-33
2.6263503e-33
2.6244746e-33
2.6239214e-33
2.6237824e-33
2.6237538e-33
2.6237634e-33
2.6238334e-33
2.6240963e-33
2.6249325e-33
2.6316698e-33
2.626358e-33
2.6244834e-33
2.6239307e-33
2.6237919e-33
2.6237634e-33
2.623773e-33
2.623843e-33
2.624106e-33
2.6249423e-33
2.6317263e-33
2.6264215e-33
2.6245512e-33
2.6240001e-33
2.6238618e-33
2.6238334e-33
2.623843e-33
2.6239131e-33
2.6241761e-33
2.6250126e-33
2.631943e-33
2.6266656e-33
2.6248085e-33
2.6242617e-33
2.6241244e-33
2.6240963e-33
2.624106e-33
2.6241761e-33
2.6244394e-33
2.6252765e-33
2.6326449e-33
2.6274666e-33
2.6256364e-33
2.6250962e-33
2.6249604e-33
2.6249325e-33
2.6249423e-33
2.6250126e-33
2.6252765e-33
2.6261164e-33
6.1787897e-33
6.1666564e-33
6.1623616e-33
6.161093e-33
6.1607734e-33
6.1607059e-33
6.1607195e-33
6.1608463e-33
6.1613308e-33
6.1628942e-33
6.1666564e-33
6.1545893e-33
6.1503136e-33
6.1490502e-33
6.148732e-33
6.1486654e-33
6.1486826e-33
6.1488255e-33
6.1493739e-33
6.1511682e-33
6.1623616e-33
6.1503136e-33
6.1460459e-33
6.1447849e-33
6.1444675e-33
6.1444016e-33
6.1444215e-33
6.1445744e-33
6.1451534e-33
6.1470103e-33
6.161093e-33
6.1490502e-33
6.1447849e-33
6.1435248e-33
6.1432076e-33
6.1431421e-33
6.1431631e-33
6.1433198e-33
6.1439087e-33
6.1457811e-33
6.1607734e-33
6.148732e-33
6.1444675e-33
6.1432076e-33
6.1428906e-33
6.1428252e-33
6.1428466e-33
6.1430044e-33
6.1435958e-33
6.1454716e-33
6.1607059e-33
6.1486654e-33
6.1444016e-33
6.1431421e-33
6.1428252e-33
6.14276e-33
6.1427815e-33
6.1429395e-33
6.1435316e-33
6.1454081e-33
6.1607195e-33
6.1486826e-33
6.1444215e-33
6.1431631e-33
6.1428466e-33
6.1427815e-33
6.1428031e-33
6.1429612e-33
6.1435534e-33
6.1454301e-33
6.1608463e-33
6.1488255e-33
6.1445744e-33
6.1433198e-33
6.1430044e-33
6.1429395e-33
6.1429612e-33
6.1431195e-33
6.1437118e-33
6.1455888e-33
6.1613308e-33
6.1493739e-33
6.1451534e-33
6.1439087e-33
6.1435958e-33
6.1435316e-33
6.1435534e-33
6.1437118e-33
6.1443047e-33
6.1461831e-33
6.1628942e-33
6.1511682e-33
6.1470103e-33
6.1457811e-33
6.1454716e-33
6.1454081e-33
6.1454301e-33
6.1455888e-33
6.1461831e-33
6.1480676e-33
1.4636816e-32
1.4609003e-32
1.4599132e-32
1.4596211e-32
1.4595475e-32
1.4595319e-32
1.4595349e-32
1.4595637e-32
1.4596731e-32
1.4600242e-32
1.4609003e-32
1.4581341e-32
1.4571513e-32
1.4568604e-32
1.456787e-32
1.4567717e-32
1.4567755e-32
1.4568081e-32
1.4569326e-32
1.457338e-32
1.4599132e-32
1.4571513e-32
1.4561703e-32
1.4558799e-32
1.4558068e-32
1.4557916e-32
1.4557961e-32
1.455831e-32
1.4559627e-32
1.4563828e-32
1.4596211e-32
1.4568604e-32
1.4558799e-32
1.4555898e-32
1.4555167e-32
1.4555016e-32
1.4555064e-32
1.4555421e-32
1.4556762e-32
1.4561e-32
1.4595475e-32
1.456787e-32
1.4558068e-32
1.4555167e-32
1.4554436e-32
1.4554285e-32
1.4554334e-32
1.4554694e-32
1.4556041e-32
1.4560287e-32
1.4595319e-32
1.4567717e-32
1.4557916e-32
1.4555016e-32
1.4554285e-32
1.4554135e-32
1.4554184e-32
1.4554545e-32
1.4555892e-32
1.456014e-32
1.4595349e-32
1.4567755e-32
1.4557961e-32
1.4555064e-32
1.4554334e-32
1.4554184e-32
1.4554233e-32
1.4554594e-32
1.4555942e-32
1.456019e-32
1.4595637e-32
1.4568081e-32
1.455831e-32
1.4555421e-32
1.4554694e-32
1.4554545e-32
1.4554594e-32
1.4554955e-32
1.4556304e-32
1.4560553e-32
1.4596731e-32
1.4569326e-32
1.4559627e-32
1.4556762e-32
1.4556041e-32
1.4555892e-32
1.4555942e-32
1.4556304e-32
1.4557653e-32
1.4561905e-32
1.4600242e-32
1.457338e-32
1.4563828e-32
1.4561e-32
1.4560287e-32
1.456014e-32
1.456019e-32
1.4560553e-32
1.4561905e-32
1.4566171e-32
3.5152363e-32
3.5087754e-32
3.5064763e-32
3.5057951e-32
3.5056231e-32
3.5055866e-32
3.5055934e-32
3.5056595e-32
3.50591e-32
3.5067081e-32
3.5087754e-32
3.502349e-32
3.5000599e-32
3.4993814e-32
3.4992101e-32
3.4991741e-32
3.499183e-32
3.4992581e-32
3.4995444e-32
3.5004724e-32
3.5064763e-32
3.5000599e-32
3.497775e-32
3.4970977e-32
3.4969268e-32
3.4968912e-32
3.4969016e-32
3.4969823e-32
3.4972859e-32
3.498249e-32
3.5057951e-32
3.4993814e-32
3.4970977e-32
3.4964209e-32
3.4962502e-32
3.4962148e-32
3.4962258e-32
3.4963086e-32
3.4966177e-32
3.4975895e-32
3.5056231e-32
3.4992101e-32
3.4969268e-32
3.4962502e-32
3.4960795e-32
3.4960442e-32
3.4960554e-32
3.4961388e-32
3.4964494e-32
3.4974231e-32
3.5055866e-32
3.4991741e-32
3.4968912e-32
3.4962148e-32
3.4960442e-32
3.4960089e-32
3.4960202e-32
3.4961038e-32
3.4964147e-32
3.4973888e-32
3.5055934e-32
3.499183e-32
3.4969016e-32
3.4962258e-32
3.4960554e-32
3.4960202e-32
3.4960316e-32
3.4961152e-32
3.4964261e-32
3.4974004e-32
3.5056595e-32
3.4992581e-32
3.4969823e-32
3.4963086e-32
3.4961388e-32
3.4961038e-32
3.4961152e-32
3.4961989e-32
3.4965099e-32
3.4974843e-32
3.50591e-32
3.4995444e-32
3.4972859e-32
3.4966177e-32
3.4964494e-32
3.4964147e-32
3.4964261e-32
3.4965099e-32
3.4968212e-32
3.4977963e-32
3.5067081e-32
3.5004724e-32
3.498249e-32
3.4975895e-32
3.4974231e-32
3.4973888e-32
3.4974004e-32
3.4974843e-32
3.4977963e-32
3.4987745e-32
8.5624388e-32
8.5472232e-32
8.5417952e-32
8.5401844e-32
8.5397772e-32
8.5396906e-32
8.5397063e-32
8.5398603e-32
8.5404415e-32
8.5422807e-32
8.5472232e-32
8.5320881e-32
8.5266832e-32
8.5250787e-32
8.5246732e-32
8.5245878e-32
8.5246085e-32
8.5247841e-32
8.5254521e-32
8.5276057e-32
8.5417952e-32
8.5266832e-32
8.5212881e-32
8.5196866e-32
8.519282e-32
8.5191976e-32
8.5192218e-32
8.519411e-32
8.5201206e-32
8.5223592e-32
8.5401844e-32
8.5250787e-32
8.5196866e-32
8.5180862e-32
8.5176819e-32
8.517598e-32
8.5176237e-32
8.517818e-32
8.518541e-32
8.5208006e-32
8.5397772e-32
8.5246732e-32
8.519282e-32
8.5176819e-32
8.5172779e-32
8.5171942e-32
8.5172204e-32
8.5174162e-32
8.5181426e-32
8.5204069e-32
8.5396906e-32
8.5245878e-32
8.5191976e-32
8.517598e-32
8.5171942e-32
8.5171106e-32
8.517137e-32
8.5173331e-32
8.5180603e-32
8.5203255e-32
8.5397063e-32
8.5246085e-32
8.5192218e-32
8.5176237e-32
8.5172204e-32
8.517137e-32
8.5171635e-32
8.5173598e-32
8.5180872e-32
8.5203526e-32
8.5398603e-32
8.5247841e-32
8.519411e-32
8.517818e-32
8.5174162e-32
8.5173331e-32
8.5173598e-32
8.5175562e-32
8.5182838e-32
8.5205496e-32
8.5404415e-32
8.5254521e-32
8.5201206e-32
8.518541e-32
8.5181426e-32
8.5180603e-32
8.5180872e-32
8.5182838e-32
8.519012e-32
8.5212794e-32
8.5422807e-32
8.5276057e-32
8.5223592e-32
8.5208006e-32
8.5204069e-32
8.5203255e-32
8.5203526e-32
8.5205496e-32
8.5212794e-32
8.523554e-32
2.115592e-31
2.1119589e-31
2.1106595e-31
2.1102734e-31
2.1101757e-31
2.1101548e-31
2.1101585e-31
2.1101949e-31
2.1103317e-31
2.1107614e-31
2.1119589e-31
2.1083447e-31
2.1070509e-31
2.1066662e-31
2.1065689e-31
2.1065484e-31
2.1065532e-31
2.1065949e-31
2.106753e-31
2.1072598e-31
2.1106595e-31
2.1070509e-31
2.1057594e-31
2.1053754e-31
2.1052783e-31
2.105258e-31
2.1052637e-31
2.1053087e-31
2.105477e-31
2.1060047e-31
2.1102734e-31
2.1066662e-31
2.1053754e-31
2.1049917e-31
2.1048947e-31
2.1048745e-31
2.1048806e-31
2.1049269e-31
2.1050984e-31
2.1056313e-31
2.1101757e-31
2.1065689e-31
2.1052783e-31
2.1048947e-31
2.1047977e-31
2.1047776e-31
2.1047838e-31
2.1048304e-31
2.1050028e-31
2.1055368e-31
2.1101548e-31
2.1065484e-31
2.105258e-31
2.1048745e-31
2.1047776e-31
2.1047575e-31
2.1047637e-31
2.1048105e-31
2.104983e-31
2.1055173e-31
2.1101585e-31
2.1065532e-31
2.1052637e-31
2.1048806e-31
2.1047838e-31
2.1047637e-31
2.10477e-31
2.1048168e-31
2.1049894e-31
2.1055237e-31
2.1101949e-31
2.1065949e-31
2.1053087e-31
2.1049269e-31
2.1048304e-31
2.1048105e-31
2.1048168e-31
2.1048636e-31
2.1050362e-31
2.1055706e-31
2.1103317e-31
2.106753e-31
2.105477e-31
2.1050984e-31
2.1050028e-31
2.104983e-31
2.1049894e-31
2.1050362e-31
2.105209e-31
2.1057438e-31
2.1107614e-31
2.1072598e-31
2.1060047e-31
2.1056313e-31
2.1055368e-31
2.1055173e-31
2.1055237e-31
2.1055706e-31
2.1057438e-31
2.1062802e-31
5.3026292e-31
5.2938328e-31
5.2906793e-31
5.2897408e-31
5.289503e-31
5.2894522e-31
5.2894608e-31
5.289548e-31
5.2898744e-31
5.2908926e-31
5.2938328e-31
5.285082e-31
5.2819416e-31
5.2810066e-31
5.2807697e-31
5.2807197e-31
5.2807313e-31
5.2808317e-31
5.2812109e-31
5.2824211e-31
5.2906793e-31
5.2819416e-31
5.2788068e-31
5.2778735e-31
5.2776372e-31
5.2775877e-31
5.2776015e-31
5.2777101e-31
5.2781146e-31
5.2793767e-31
5.2897408e-31
5.2810066e-31
5.2778735e-31
5.2769408e-31
5.2767047e-31
5.2766555e-31
5.2766702e-31
5.2767819e-31
5.2771946e-31
5.2784695e-31
5.289503e-31
5.2807697e-31
5.2776372e-31
5.2767047e-31
5.2764687e-31
5.2764197e-31
5.2764346e-31
5.2765472e-31
5.276962e-31
5.2782397e-31
5.2894522e-31
5.2807197e-31
5.2775877e-31
5.2766555e-31
5.2764197e-31
5.2763707e-31
5.2763858e-31
5.2764986e-31
5.2769139e-31
5.2781921e-31
5.2894608e-31
5.2807313e-31
5.2776015e-31
5.2766702e-31
5.2764346e-31
5.2763858e-31
5.2764009e-31
5.2765138e-31
5.2769292e-31
5.2782077e-31
5.289548e-31
5.2808317e-31
5.2777101e-31
5.2767819e-31
5.2765472e-31
5.2764986e-31
5.2765138e-31
5.2766268e-31
5.2770423e-31
5.2783209e-31
5.2898744e-31
5.2812109e-31
5.2781146e-31
5.2771946e-31
5.276962e-31
5.2769139e-31
5.2769292e-31
5.2770423e-31
5.2774582e-31
5.2787377e-31
5.2908926e-31
5.2824211e-31
5.2793767e-31
5.2784695e-31
5.2782397e-31
5.2781921e-31
5.2782077e-31
5.2783209e-31
5.2787377e-31
5.2800211e-31
1.3483475e-30
1.3461879e-30
1.3454118e-30
1.3451805e-30
1.3451218e-30
1.3451093e-30
1.3451113e-30
1.3451325e-30
1.3452115e-30
1.3454562e-30
1.3461879e-30
1.3440394e-30
1.3432665e-30
1.343036e-30
1.3429776e-30
1.3429652e-30
1.342968e-30
1.3429925e-30
1.3430849e-30
1.343378e-30
1.3454118e-30
1.3432665e-30
1.3424949e-30
1.3422649e-30
1.3422066e-30
1.3421944e-30
1.3421977e-30
1.3422243e-30
1.342323e-30
1.3426292e-30
1.3451805e-30
1.343036e-30
1.3422649e-30
1.342035e-30
1.3419768e-30
1.3419646e-30
1.3419682e-30
1.3419956e-30
1.3420963e-30
1.3424057e-30
1.3451218e-30
1.3429776e-30
1.3422066e-30
1.3419768e-30
1.3419185e-30
1.3419064e-30
1.3419101e-30
1.3419377e-30
1.3420389e-30
1.3423491e-30
1.3451093e-30
1.3429652e-30
1.3421944e-30
1.3419646e-30
1.3419064e-30
1.3418943e-30
1.341898e-30
1.3419257e-30
1.342027e-30
1.3423373e-30
1.3451113e-30
1.342968e-30
1.3421977e-30
1.3419682e-30
1.3419101e-30
1.341898e-30
1.3419017e-30
1.3419294e-30
1.3420308e-30
1.3423411e-30
1.3451325e-30
1.3429925e-30
1.3422243e-30
1.3419956e-30
1.3419377e-30
1.3419257e-30
1.3419294e-30
1.3419571e-30
1.3420585e-30
1.3423689e-30
1.3452115e-30
1.3430849e-30
1.342323e-30
1.3420963e-30
1.3420389e-30
1.342027e-30
1.3420308e-30
1.3420585e-30
1.3421601e-30
1.3424706e-30
1.3454562e-30
1.343378e-30
1.3426292e-30
1.3424057e-30
1.3423491e-30
1.3423373e-30
1.3423411e-30
1.3423689e-30
1.3424706e-30
1.3427821e-30
3.4784465e-30
3.4730699e-30
3.4711333e-30
3.4705553e-30
3.4704085e-30
3.470377e-30
3.470382e-30
3.4704342e-30
3.4706282e-30
3.4712245e-30
3.4730699e-30
3.4677207e-30
3.4657919e-30
3.465216e-30
3.4650698e-30
3.4650388e-30
3.4650457e-30
3.4651064e-30
3.4653344e-30
3.4660546e-30
3.4711333e-30
3.4657919e-30
3.4638664e-30
3.4632915e-30
3.4631457e-30
3.463115e-30
3.4631233e-30
3.4631893e-30
3.4634336e-30
3.4641873e-30
3.4705553e-30
3.465216e-30
3.4632915e-30
3.462717e-30
3.4625713e-30
3.4625408e-30
3.4625497e-30
3.4626177e-30
3.4628672e-30
3.4636292e-30
3.4704085e-30
3.4650698e-30
3.4631457e-30
3.4625713e-30
3.4624256e-30
3.4623952e-30
3.4624043e-30
3.4624729e-30
3.4627238e-30
3.4634875e-30
3.470377e-30
3.4650388e-30
3.463115e-30
3.4625408e-30
3.4623952e-30
3.4623649e-30
3.4623741e-30
3.4624428e-30
3.462694e-30
3.4634581e-30
3.470382e-30
3.4650457e-30
3.4631233e-30
3.4625497e-30
3.4624043e-30
3.4623741e-30
3.4623833e-30
3.462452e-30
3.4627033e-30
3.4634675e-30
3.4704342e-30
3.4651064e-30
3.4631893e-30
3.4626177e-30
3.4624729e-30
3.4624428e-30
3.462452e-30
3.4625208e-30
3.4627722e-30
3.4635365e-30
3.4706282e-30
3.4653344e-30
3.4634336e-30
3.4628672e-30
3.4627238e-30
3.462694e-30
3.4627033e-30
3.4627722e-30
3.4630237e-30
3.4637885e-30
3.4712245e-30
3.4660546e-30
3.4641873e-30
3.4636292e-30
3.4634875e-30
3.4634581e-30
3.4634675e-30
3.4635365e-30
3.4637885e-30
3.4645556e-30
9.104563e-30
9.0909891e-30
9.0860885e-30
9.0846238e-30
9.0842515e-30
9.0841715e-30
9.0841837e-30
9.0843142e-30
9.0847973e-30
9.0862715e-30
9.0909891e-30
9.0774834e-30
9.0726023e-30
9.0711428e-30
9.0707719e-30
9.0706932e-30
9.0707104e-30
9.070863e-30
9.0714342e-30
9.0732297e-30
9.0860885e-30
9.0726023e-30
9.0677295e-30
9.0662727e-30
9.0659026e-30
9.0658248e-30
9.0658456e-30
9.0660119e-30
9.0666253e-30
9.0685075e-30
9.0846238e-30
9.0711428e-30
9.0662727e-30
9.0648168e-30
9.0644471e-30
9.0643697e-30
9.0643921e-30
9.0645634e-30
9.0651904e-30
9.0670941e-30
9.0842515e-30
9.0707719e-30
9.0659026e-30
9.0644471e-30
9.0640775e-30
9.0640004e-30
9.0640232e-30
9.0641961e-30
9.0648266e-30
9.066735e-30
9.0841715e-30
9.0706932e-30
9.0658248e-30
9.0643697e-30
9.0640004e-30
9.0639233e-30
9.0639464e-30
9.0641197e-30
9.0647509e-30
9.0666603e-30
9.0841837e-30
9.0707104e-30
9.0658456e-30
9.0643921e-30
9.0640232e-30
9.0639464e-30
9.0639695e-30
9.0641429e-30
9.0647744e-30
9.066684e-30
9.0843142e-30
9.070863e-30
9.0660119e-30
9.0645634e-30
9.0641961e-30
9.0641197e-30
9.0641429e-30
9.0643165e-30
9.0649481e-30
9.066858e-30
9.0847973e-30
9.0714342e-30
9.0666253e-30
9.0651904e-30
9.0648266e-30
9.0647509e-30
9.0647744e-30
9.0649481e-30
9.0655803e-30
9.0674914e-30
9.0862715e-30
9.0732297e-30
9.0685075e-30
9.0670941e-30
9.066735e-30
9.0666603e-30
9.066684e-30
9.066858e-30
9.0674914e-30
9.069408e-30
2.4178869e-29
2.4144116e-29
2.413154e-29
2.4127777e-29
2.4126819e-29
2.4126613e-29
2.4126644e-29
2.4126975e-29
2.4128195e-29
2.4131891e-29
2.4144116e-29
2.4109536e-29
2.409701e-29
2.409326e-29
2.4092306e-29
2.4092103e-29
2.4092146e-29
2.4092535e-29
2.4093988e-29
2.4098529e-29
2.413154e-29
2.409701e-29
2.4084505e-29
2.4080762e-29
2.407981e-29
2.4079609e-29
2.4079662e-29
2.4080087e-29
2.408165e-29
2.408642e-29
2.4127777e-29
2.409326e-29
2.4080762e-29
2.407702e-29
2.4076069e-29
2.407587e-29
2.4075927e-29
2.4076366e-29
2.4077964e-29
2.408279e-29
2.4126819e-29
2.4092306e-29
2.407981e-29
2.4076069e-29
2.4075119e-29
2.407492e-29
2.4074979e-29
2.4075421e-29
2.4077029e-29
2.4081867e-29
2.4126613e-29
2.4092103e-29
2.4079609e-29
2.407587e-29
2.407492e-29
2.4074722e-29
2.4074781e-29
2.4075224e-29
2.4076834e-29
2.4081675e-29
2.4126644e-29
2.4092146e-29
2.4079662e-29
2.4075927e-29
2.4074979e-29
2.4074781e-29
2.407484e-29
2.4075284e-29
2.4076894e-29
2.4081735e-29
2.4126975e-29
2.4092535e-29
2.4080087e-29
2.4076366e-29
2.4075421e-29
2.4075224e-29
2.4075284e-29
2.4075728e-29
2.4077338e-29
2.4082181e-29
2.4128195e-29
2.4093988e-29
2.408165e-29
2.4077964e-29
2.4077029e-29
2.4076834e-29
2.4076894e-29
2.4077338e-29
2.407895e-29
2.4083796e-29
2.4131891e-29
2.4098529e-29
2.408642e-29
2.408279e-29
2.4081867e-29
2.4081675e-29
2.4081735e-29
2.4082181e-29
2.4083796e-29
2.4088655e-29
6.5151428e-29
6.5061198e-29
6.5028475e-29
6.5018669e-29
6.5016172e-29
6.5015633e-29
6.5015711e-29
6.5016562e-29
6.5019689e-29
6.5029091e-29
6.5061198e-29
6.4971412e-29
6.4938817e-29
6.4929044e-29
6.4926556e-29
6.4926026e-29
6.4926138e-29
6.4927144e-29
6.493089e-29
6.4942545e-29
6.5028475e-29
6.4938817e-29
6.4906276e-29
6.4896521e-29
6.4894038e-29
6.4893514e-29
6.4893652e-29
6.4894753e-29
6.4898794e-29
6.4911057e-29
6.5018669e-29
6.4929044e-29
6.4896521e-29
6.4886772e-29
6.4884291e-29
6.4883771e-29
6.4883919e-29
6.4885057e-29
6.4889192e-29
6.4901606e-29
6.5016172e-29
6.4926556e-29
6.4894038e-29
6.4884291e-29
6.4881812e-29
6.4881293e-29
6.4881444e-29
6.4882593e-29
6.4886752e-29
6.48992e-29
6.5015633e-29
6.4926026e-29
6.4893514e-29
6.4883771e-29
6.4881293e-29
6.4880775e-29
6.4880928e-29
6.4882079e-29
6.4886244e-29
6.4898698e-29
6.5015711e-29
6.4926138e-29
6.4893652e-29
6.4883919e-29
6.4881444e-29
6.4880928e-29
6.4881081e-29
6.4882233e-29
6.48864e-29
6.4898855e-29
6.5016562e-29
6.4927144e-29
6.4894753e-29
6.4885057e-29
6.4882593e-29
6.4882079e-29
6.4882233e-29
6.4883386e-29
6.4887554e-29
6.4900011e-29
6.5019689e-29
6.493089e-29
6.4898794e-29
6.4889192e-29
6.4886752e-29
6.4886244e-29
6.48864e-29
6.4887554e-29
6.4891725e-29
6.490419e-29
6.5029091e-29
6.4942545e-29
6.4911057e-29
6.4901606e-29
6.48992e-29
6.4898698e-29
6.4898855e-29
6.4900011e-29
6.490419e-29
6.491669e-29
1.7812546e-28
1.7788789e-28
1.7780154e-28
1.7777563e-28
1.7776903e-28
1.777676e-28
1.777678e-28
1.7777002e-28
1.7777815e-28
1.7780241e-28
1.7788789e-28
1.7765147e-28
1.7756546e-28
1.7753964e-28
1.7753306e-28
1.7753166e-28
1.7753195e-28
1.7753459e-28
1.7754439e-28
1.7757474e-28
1.7780154e-28
1.7756546e-28
1.7747959e-28
1.7745382e-28
1.7744725e-28
1.7744586e-28
1.7744622e-28
1.7744912e-28
1.7745972e-28
1.7749172e-28
1.7777563e-28
1.7753964e-28
1.7745382e-28
1.7742806e-28
1.774215e-28
1.7742012e-28
1.7742051e-28
1.7742351e-28
1.7743436e-28
1.7746676e-28
1.7776903e-28
1.7753306e-28
1.7744725e-28
1.774215e-28
1.7741494e-28
1.7741357e-28
1.7741396e-28
1.7741699e-28
1.7742791e-28
1.774604e-28
1.777676e-28
1.7753166e-28
1.7744586e-28
1.7742012e-28
1.7741357e-28
1.7741219e-28
1.774126e-28
1.7741563e-28
1.7742656e-28
1.7745907e-28
1.777678e-28
1.7753195e-28
1.7744622e-28
1.7742051e-28
1.7741396e-28
1.774126e-28
1.77413e-28
1.7741603e-28
1.7742697e-28
1.7745949e-28
1.7777002e-28
1.7753459e-28
1.7744912e-28
1.7742351e-28
1.7741699e-28
1.7741563e-28
1.7741603e-28
1.7741907e-28
1.7743001e-28
1.7746253e-28
1.7777815e-28
1.7754439e-28
1.7745972e-28
1.7743436e-28
1.7742791e-28
1.7742656e-28
1.7742697e-28
1.7743001e-28
1.7744096e-28
1.774735e-28
1.7780241e-28
1.7757474e-28
1.7749172e-28
1.7746676e-28
1.774604e-28
1.7745907e-28
1.7745949e-28
1.7746253e-28
1.774735e-28
1.7750613e-28
4.9412837e-28
4.9349407e-28
4.9326304e-28
4.9319363e-28
4.9317592e-28
4.9317209e-28
4.931726e-28
4.9317849e-28
4.9319993e-28
4.9326341e-28
4.9349407e-28
4.9286283e-28
4.9263268e-28
4.925635e-28
4.9254585e-28
4.9254208e-28
4.9254286e-28
4.9254989e-28
4.9257591e-28
4.9265612e-28
4.9326304e-28
4.9263268e-28
4.9240291e-28
4.9233385e-28
4.9231624e-28
4.9231252e-28
4.9231348e-28
4.9232122e-28
4.9234942e-28
4.9243413e-28
4.9319363e-28
4.925635e-28
4.9233385e-28
4.9226484e-28
4.9224724e-28
4.9224354e-28
4.9224458e-28
4.9225259e-28
4.9228149e-28
4.9236732e-28
4.9317592e-28
4.9254585e-28
4.9231624e-28
4.9224724e-28
4.9222965e-28
4.9222596e-28
4.9222703e-28
4.9223511e-28
4.922642e-28
4.9235027e-28
4.9317209e-28
4.9254208e-28
4.9231252e-28
4.9224354e-28
4.9222596e-28
4.9222228e-28
4.9222336e-28
4.9223146e-28
4.9226059e-28
4.9234671e-28
4.931726e-28
4.9254286e-28
4.9231348e-28
4.9224458e-28
4.9222703e-28
4.9222336e-28
4.9222444e-28
4.9223255e-28
4.9226169e-28
4.9234782e-28
4.9317849e-28
4.9254989e-28
4.9232122e-28
4.9225259e-28
4.9223511e-28
4.9223146e-28
4.9223255e-28
4.9224066e-28
4.9226981e-28
4.9235596e-28
4.9319993e-28
4.9257591e-28
4.9234942e-28
4.9228149e-28
4.922642e-28
4.9226059e-28
4.9226169e-28
4.9226981e-28
4.9229898e-28
4.9238518e-28
4.9326341e-28
4.9265612e-28
4.9243413e-28
4.9236732e-28
4.9235027e-28
4.9234671e-28
4.9234782e-28
4.9235596e-28
4.9238518e-28
4.9247161e-28
1.3907766e-27
1.3890593e-27
1.3884326e-27
1.388244e-27
1.3881959e-27
1.3881854e-27
1.3881868e-27
1.3882026e-27
1.38826e-27
1.3884285e-27
1.3890593e-27
1.3873503e-27
1.3867258e-27
1.3865379e-27
1.3864899e-27
1.3864796e-27
1.3864817e-27
1.3865007e-27
1.3865708e-27
1.3867859e-27
1.3884326e-27
1.3867258e-27
1.3861024e-27
1.3859148e-27
1.3858669e-27
1.3858568e-27
1.3858594e-27
1.3858803e-27
1.3859565e-27
1.3861841e-27
1.388244e-27
1.3865379e-27
1.3859148e-27
1.3857273e-27
1.3856795e-27
1.3856694e-27
1.3856722e-27
1.3856939e-27
1.385772e-27
1.3860027e-27
1.3881959e-27
1.3864899e-27
1.3858669e-27
1.3856795e-27
1.3856317e-27
1.3856216e-27
1.3856245e-27
1.3856464e-27
1.385725e-27
1.3859564e-27
1.3881854e-27
1.3864796e-27
1.3858568e-27
1.3856694e-27
1.3856216e-27
1.3856116e-27
1.3856145e-27
1.3856365e-27
1.3857152e-27
1.3859467e-27
1.3881868e-27
1.3864817e-27
1.3858594e-27
1.3856722e-27
1.3856245e-27
1.3856145e-27
1.3856174e-27
1.3856394e-27
1.3857182e-27
1.3859497e-27
1.3882026e-27
1.3865007e-27
1.3858803e-27
1.3856939e-27
1.3856464e-27
1.3856365e-27
1.3856394e-27
1.3856614e-27
1.3857402e-27
1.3859718e-27
1.38826e-27
1.3865708e-27
1.3859565e-27
1.385772e-27
1.385725e-27
1.3857152e-27
1.3857182e-27
1.3857402e-27
1.3858191e-27
1.3860508e-27
1.3884285e-27
1.3867859e-27
1.3861841e-27
1.3860027e-27
1.3859564e-27
1.3859467e-27
1.3859497e-27
1.3859718e-27
1.3860508e-27
1.3862831e-27
3.971595e-27
3.9668806e-27
3.9651565e-27
3.9646372e-27
3.9645044e-27
3.9644756e-27
3.9644793e-27
3.9645224e-27
3.9646781e-27
3.9651319e-27
3.9668806e-27
3.9621886e-27
3.9604708e-27
3.9599532e-27
3.9598209e-27
3.9597926e-27
3.9597983e-27
3.9598503e-27
3.9600419e-27
3.9606269e-27
3.9651565e-27
3.9604708e-27
3.9587558e-27
3.9582391e-27
3.9581071e-27
3.9580791e-27
3.9580862e-27
3.9581438e-27
3.9583525e-27
3.9589729e-27
3.9646372e-27
3.9599532e-27
3.9582391e-27
3.9577227e-27
3.9575908e-27
3.957563e-27
3.9575708e-27
3.9576305e-27
3.9578446e-27
3.9584737e-27
3.9645044e-27
3.9598209e-27
3.9581071e-27
3.9575908e-27
3.9574589e-27
3.9574313e-27
3.9574392e-27
3.9574995e-27
3.9577151e-27
3.9583461e-27
3.9644756e-27
3.9597926e-27
3.9580791e-27
3.957563e-27
3.9574313e-27
3.9574036e-27
3.9574116e-27
3.9574721e-27
3.957688e-27
3.9583194e-27
3.9644793e-27
3.9597983e-27
3.9580862e-27
3.9575708e-27
3.9574392e-27
3.9574116e-27
3.9574197e-27
3.9574802e-27
3.9576962e-27
3.9583277e-27
3.9645224e-27
3.9598503e-27
3.9581438e-27
3.9576305e-27
3.9574995e-27
3.9574721e-27
3.9574802e-27
3.9575408e-27
3.9577568e-27
3.9583884e-27
3.9646781e-27
3.9600419e-27
3.9583525e-27
3.9578446e-27
3.9577151e-27
3.957688e-27
3.9576962e-27
3.9577568e-27
3.957973e-27
3.958605e-27
3.9651319e-27
3.9606269e-27
3.9589729e-27
3.9584737e-27
3.9583461e-27
3.9583194e-27
3.9583277e-27
3.9583884e-27
3.958605e-27
3.9592386e-27
1.1506477e-26
1.1493356e-26
1.1488547e-26
1.1487097e-26
1.1486726e-26
1.1486646e-26
1.1486656e-26
1.1486775e-26
1.1487203e-26
1.1488443e-26
1.1493356e-26
1.1480296e-26
1.1475505e-26
1.1474059e-26
1.147369e-26
1.147361e-26
1.1473626e-26
1.1473771e-26
1.1474302e-26
1.1475917e-26
1.1488547e-26
1.1475505e-26
1.1470721e-26
1.1469279e-26
1.146891e-26
1.1468831e-26
1.1468851e-26
1.1469012e-26
1.1469592e-26
1.1471308e-26
1.1487097e-26
1.1474059e-26
1.1469279e-26
1.1467837e-26
1.1467468e-26
1.146739e-26
1.1467412e-26
1.1467578e-26
1.1468174e-26
1.1469915e-26
1.1486726e-26
1.147369e-26
1.146891e-26
1.1467468e-26
1.1467099e-26
1.1467022e-26
1.1467044e-26
1.1467212e-26
1.1467812e-26
1.1469559e-26
1.1486646e-26
1.147361e-26
1.1468831e-26
1.146739e-26
1.1467022e-26
1.1466945e-26
1.1466967e-26
1.1467136e-26
1.1467737e-26
1.1469484e-26
1.1486656e-26
1.1473626e-26
1.1468851e-26
1.1467412e-26
1.1467044e-26
1.1466967e-26
1.146699e-26
1.1467158e-26
1.1467759e-26
1.1469507e-26
1.1486775e-26
1.1473771e-26
1.1469012e-26
1.1467578e-26
1.1467212e-26
1.1467136e-26
1.1467158e-26
1.1467327e-26
1.1467929e-26
1.1469677e-26
1.1487203e-26
1.1474302e-26
1.1469592e-26
1.1468174e-26
1.1467812e-26
1.1467737e-26
1.1467759e-26
1.1467929e-26
1.146853e-26
1.1470279e-26
1.1488443e-26
1.1475917e-26
1.1471308e-26
1.1469915e-26
1.1469559e-26
1.1469484e-26
1.1469507e-26
1.1469677e-26
1.1470279e-26
1.1472032e-26
3.3819179e-26
3.3782152e-26
3.3768557e-26
3.3764453e-26
3.3763402e-26
3.3763173e-26
3.3763201e-26
3.3763535e-26
3.3764732e-26
3.3768166e-26
3.3782152e-26
3.3745298e-26
3.3731752e-26
3.3727661e-26
3.3726613e-26
3.3726388e-26
3.3726432e-26
3.3726841e-26
3.3728335e-26
3.3732857e-26
3.3768557e-26
3.3731752e-26
3.3718227e-26
3.3714143e-26
3.3713097e-26
3.3712875e-26
3.3712932e-26
3.3713386e-26
3.3715022e-26
3.3719837e-26
3.3764453e-26
3.3727661e-26
3.3714143e-26
3.3710061e-26
3.3709016e-26
3.3708796e-26
3.3708857e-26
3.3709329e-26
3.371101e-26
3.3715898e-26
3.3763402e-26
3.3726613e-26
3.3713097e-26
3.3709016e-26
3.3707972e-26
3.3707753e-26
3.3707816e-26
3.3708292e-26
3.3709985e-26
3.3714889e-26
3.3763173e-26
3.3726388e-26
3.3712875e-26
3.3708796e-26
3.3707753e-26
3.3707533e-26
3.3707597e-26
3.3708075e-26
3.3709771e-26
3.3714677e-26
3.3763201e-26
3.3726432e-26
3.3712932e-26
3.3708857e-26
3.3707816e-26
3.3707597e-26
3.3707661e-26
3.3708139e-26
3.3709836e-26
3.3714743e-26
3.3763535e-26
3.3726841e-26
3.3713386e-26
3.3709329e-26
3.3708292e-26
3.3708075e-26
3.3708139e-26
3.3708618e-26
3.3710315e-26
3.3715223e-26
3.3764732e-26
3.3728335e-26
3.3715022e-26
3.371101e-26
3.3709985e-26
3.3709771e-26
3.3709836e-26
3.3710315e-26
3.3712013e-26
3.3716923e-26
3.3768166e-26
3.3732857e-26
3.3719837e-26
3.3715898e-26
3.3714889e-26
3.3714677e-26
3.3714743e-26