/*--------------------------------*- C++ -*----------------------------------*\
| =========                 |                                                 |
| \\      /  F ield         | OpenFOAM: The Open Source CFD Toolbox           |
|  \\    /   O peration     | Version:  dev                                   |
|   \\  /    A nd           | Web:      www.OpenFOAM.org                      |
|    \\/     M anipulation  |                                                 |
\*---------------------------------------------------------------------------*/
FoamFile
{
    version     2.0;
    format      ascii;
    class       volScalarField;
    location    "1";
    object      A;
}
// * * * * * * * * * * * * * * * * * * * * * * * * * * * * * * * * * * * * * //

dimensions      [0 0 0 0 1 0 0];

internalField   nonuniform List<scalar> 
10000
(
0.99803233
0.99803631
0.99804032
0.99804401
0.99804713
0.99804951
0.99805114
0.99805213
0.99805275
0.99805365
0.99803631
0.99804126
0.99804601
0.99805022
0.99805368
0.99805627
0.99805797
0.99805887
0.99805914
0.99805937
0.99804032
0.99804601
0.99805153
0.99805637
0.99806025
0.99806305
0.99806474
0.99806537
0.99806507
0.9980646
0.99804402
0.99805022
0.99805637
0.99806173
0.99806597
0.99806892
0.99807053
0.99807084
0.99807002
0.99806903
0.99804713
0.99805368
0.99806025
0.99806597
0.99807043
0.99807345
0.99807497
0.99807502
0.99807382
0.99807248
0.99804951
0.99805627
0.99806305
0.99806892
0.99807345
0.99807647
0.99807791
0.99807781
0.99807641
0.99807485
0.99805114
0.99805797
0.99806475
0.99807053
0.99807497
0.99807791
0.99807932
0.9980792
0.99807775
0.99807612
0.99805213
0.99805887
0.99806537
0.99807084
0.99807502
0.99807781
0.9980792
0.99807917
0.9980779
0.99807635
0.99805275
0.99805914
0.99806507
0.99807002
0.99807382
0.99807641
0.99807775
0.9980779
0.99807697
0.99807574
0.99805365
0.99805937
0.9980646
0.99806903
0.99807248
0.99807485
0.99807612
0.99807635
0.99807574
0.9980749
0.99404198
0.99405352
0.99406557
0.99407672
0.99408612
0.99409332
0.99409824
0.99410119
0.9941029
0.99410512
0.99405352
0.99406799
0.99408229
0.99409504
0.9941055
0.99411333
0.99411847
0.99412115
0.99412179
0.99412191
0.99406557
0.99408229
0.99409896
0.99411361
0.99412536
0.99413384
0.99413894
0.99414078
0.99413969
0.99413765
0.99407672
0.99409504
0.99411361
0.99412985
0.99414268
0.99415161
0.99415647
0.99415735
0.99415468
0.99415103
0.99408613
0.9941055
0.99412536
0.99414268
0.99415619
0.99416533
0.99416992
0.99417001
0.99416618
0.99416146
0.99409332
0.99411334
0.99413384
0.99415161
0.99416533
0.99417448
0.99417884
0.99417847
0.99417398
0.99416862
0.99409824
0.99411847
0.99413894
0.99415647
0.99416992
0.99417884
0.99418306
0.99418264
0.99417804
0.99417245
0.99410119
0.99412115
0.99414078
0.99415735
0.99417001
0.99417847
0.99418264
0.99418252
0.99417844
0.99417312
0.9941029
0.99412179
0.99413969
0.99415467
0.99416617
0.99417398
0.99417804
0.99417844
0.99417543
0.99417109
0.99410512
0.99412191
0.99413765
0.99415103
0.99416146
0.99416862
0.99417245
0.99417312
0.99417109
0.99416804
0.98995134
0.98996947
0.98998945
0.99000814
0.99002393
0.990036
0.99004419
0.990049
0.99005136
0.99005376
0.98996947
0.98999246
0.99001628
0.9900377
0.99005531
0.99006848
0.99007705
0.99008138
0.99008187
0.99008062
0.98998945
0.99001628
0.99004414
0.9900688
0.99008861
0.99010288
0.99011138
0.99011428
0.99011179
0.99010681
0.99000814
0.9900377
0.9900688
0.99009619
0.99011782
0.99013285
0.99014094
0.99014219
0.99013699
0.99012926
0.99002393
0.99005531
0.99008861
0.99011782
0.9901406
0.990156
0.99016362
0.99016353
0.99015635
0.99014677
0.990036
0.99006848
0.99010288
0.99013285
0.990156
0.99017139
0.99017863
0.99017777
0.99016947
0.99015879
0.99004419
0.99007705
0.99011138
0.99014094
0.99016362
0.99017863
0.99018565
0.99018469
0.99017623
0.99016515
0.990049
0.99008138
0.99011428
0.99014219
0.99016353
0.99017777
0.99018469
0.99018427
0.99017671
0.99016612
0.99005136
0.99008187
0.99011179
0.99013699
0.99015635
0.99016947
0.99017623
0.99017671
0.99017104
0.99016222
0.99005376
0.99008062
0.99010681
0.99012926
0.99014677
0.99015879
0.99016515
0.99016612
0.99016222
0.99015587
0.98575965
0.9857833
0.98581091
0.98583712
0.98585932
0.98587625
0.9858876
0.98589398
0.98589633
0.98589769
0.9857833
0.98581358
0.98584665
0.98587678
0.98590162
0.98592013
0.98593203
0.98593769
0.98593723
0.9859333
0.98581091
0.98584665
0.98588551
0.98592029
0.98594828
0.98596837
0.98598015
0.98598372
0.98597895
0.98596964
0.98583712
0.98587678
0.98592029
0.98595897
0.98598956
0.98601074
0.98602193
0.98602313
0.98601444
0.98600115
0.98585932
0.98590162
0.98594828
0.98598956
0.98602179
0.98604349
0.98605399
0.98605328
0.98604174
0.98602579
0.98587625
0.98592013
0.98596837
0.98601074
0.98604349
0.98606518
0.98607515
0.98607334
0.9860602
0.98604266
0.9858876
0.98593203
0.98598015
0.98602193
0.98605399
0.98607514
0.98608481
0.98608288
0.98606953
0.98605144
0.98589398
0.98593769
0.98598372
0.98602313
0.98605328
0.98607334
0.98608288
0.98608176
0.98606976
0.98605243
0.98589633
0.98593723
0.98597895
0.98601444
0.98604174
0.9860602
0.98606953
0.98606976
0.98606058
0.986046
0.98589769
0.9859333
0.98596964
0.98600115
0.98602579
0.98604265
0.98605144
0.98605242
0.986046
0.98603543
0.9814654
0.98149362
0.98152844
0.98156205
0.9815906
0.9816123
0.98162658
0.98163408
0.98163562
0.98163491
0.98149362
0.98153002
0.9815719
0.98161066
0.9816427
0.98166648
0.98168146
0.98168793
0.9816856
0.98167792
0.98152845
0.9815719
0.98162136
0.98166622
0.98170241
0.98172826
0.98174306
0.98174672
0.98173866
0.98172389
0.98156205
0.98161066
0.98166622
0.98171621
0.98175582
0.98178308
0.98179707
0.98179759
0.98178434
0.98176431
0.98159061
0.98164271
0.98170241
0.98175582
0.98179757
0.98182551
0.9818386
0.9818366
0.98181958
0.98179603
0.9816123
0.98166649
0.98172826
0.98178308
0.98182551
0.98185344
0.98186583
0.9818624
0.9818433
0.98181766
0.98162658
0.98168147
0.98174306
0.98179707
0.98183859
0.98186583
0.98187785
0.98187429
0.98185497
0.98182865
0.98163408
0.98168793
0.98174672
0.98179759
0.98183659
0.9818624
0.98187429
0.98187187
0.98185442
0.98182924
0.98163562
0.9816856
0.98173866
0.98178434
0.98181958
0.9818433
0.98185497
0.98185442
0.98184087
0.9818196
0.98163491
0.98167792
0.98172389
0.98176431
0.98179603
0.98181766
0.98182865
0.98182924
0.9818196
0.98180422
0.97706673
0.97709879
0.97714035
0.97718111
0.97721588
0.97724214
0.97725901
0.97726707
0.97726699
0.97726343
0.97709879
0.9771403
0.97719044
0.97723761
0.97727674
0.97730559
0.97732327
0.97732987
0.97732475
0.97731255
0.97714035
0.97719044
0.97724994
0.97730471
0.977349
0.97738042
0.97739781
0.97740082
0.97738846
0.97736749
0.97718111
0.97723761
0.97730471
0.97736586
0.97741439
0.97744755
0.97746391
0.97746296
0.9774441
0.97741656
0.97721588
0.97727674
0.977349
0.9774144
0.9774656
0.9774996
0.97751482
0.97751071
0.97748715
0.97745519
0.97724214
0.97730559
0.97738042
0.97744755
0.9774996
0.97753358
0.97754794
0.97754208
0.97751594
0.97748139
0.97725901
0.97732327
0.97739781
0.97746391
0.97751482
0.97754794
0.97756188
0.97755591
0.97752958
0.97749427
0.97726707
0.97732987
0.97740082
0.97746296
0.97751071
0.97754208
0.97755591
0.97755147
0.97752763
0.97749396
0.97726699
0.97732475
0.97738846
0.9774441
0.97748715
0.97751594
0.97752958
0.97752763
0.97750892
0.97748051
0.97726343
0.97731255
0.97736749
0.97741655
0.97745519
0.97748139
0.97749427
0.97749395
0.97748051
0.97746005
0.97256158
0.97259692
0.97264471
0.97269232
0.97273306
0.97276359
0.97278262
0.97279056
0.97278813
0.97278118
0.97259692
0.97264275
0.97270054
0.97275579
0.97280176
0.97283538
0.97285525
0.97286121
0.97285246
0.97283531
0.97264471
0.97270054
0.97276944
0.97283378
0.97288594
0.97292259
0.97294203
0.97294355
0.97292602
0.97289845
0.97269232
0.97275579
0.97283378
0.97290577
0.97296301
0.97300173
0.97301989
0.97301658
0.97299119
0.97295574
0.97273306
0.97280176
0.97288594
0.97296302
0.97302346
0.97306317
0.97307994
0.97307283
0.97304179
0.97300103
0.9727636
0.97283538
0.97292259
0.97300173
0.97306317
0.97310288
0.97311863
0.97310944
0.97307535
0.97303151
0.97278262
0.97285525
0.97294203
0.97301989
0.97307994
0.97311863
0.97313392
0.9731247
0.9730905
0.9730459
0.97279057
0.97286121
0.97294355
0.97301658
0.97307283
0.97310944
0.9731247
0.97311745
0.97308647
0.97304413
0.97278813
0.97285246
0.97292602
0.97299119
0.97304179
0.97307535
0.9730905
0.97308647
0.97306197
0.97302641
0.97278118
0.97283531
0.97289845
0.97295574
0.97300103
0.97303151
0.97304589
0.97304413
0.9730264
0.9730009
0.96794771
0.96798592
0.96803945
0.96809353
0.96813991
0.96817434
0.96819499
0.96820214
0.96819669
0.96818605
0.96798592
0.96803547
0.9681003
0.96816319
0.96821565
0.96825361
0.96827508
0.9682796
0.96826652
0.96824423
0.96803945
0.9681003
0.96817791
0.96825135
0.96831101
0.96835245
0.96837328
0.96837244
0.96834901
0.96831476
0.96809354
0.9681632
0.96825135
0.96833372
0.9683993
0.9684431
0.96846237
0.96845581
0.96842317
0.96837976
0.96813991
0.96821565
0.96831101
0.9683993
0.96846859
0.96851355
0.96853117
0.96852016
0.96848092
0.96843132
0.96817434
0.96825361
0.96835245
0.9684431
0.96851355
0.96855849
0.96857495
0.96856156
0.96851883
0.96846571
0.96819499
0.96827508
0.96837328
0.96846237
0.96853117
0.96857495
0.96859094
0.96857763
0.96853494
0.96848113
0.96820214
0.9682796
0.96837244
0.96845581
0.96852016
0.96856156
0.96857763
0.96856682
0.96852818
0.96847737
0.96819669
0.96826652
0.96834901
0.96842317
0.96848092
0.96851883
0.96853494
0.96852818
0.96849749
0.96845506
0.96818605
0.96824423
0.96831476
0.96837975
0.96843132
0.96846571
0.96848113
0.96847737
0.96845506
0.96842475
0.96322275
0.96326354
0.96332234
0.96338246
0.96343407
0.96347191
0.96349362
0.96349929
0.9634903
0.96347585
0.96326354
0.96331638
0.96338765
0.96345768
0.96351616
0.96355792
0.96358033
0.96358263
0.96356467
0.96353729
0.96332234
0.96338765
0.96347325
0.96355524
0.96362189
0.96366754
0.96368903
0.963685
0.96365516
0.96361436
0.96338246
0.96345768
0.96355524
0.96364737
0.96372076
0.96376906
0.96378868
0.96377802
0.96373762
0.96368645
0.96343407
0.96351616
0.96362189
0.96372076
0.96379838
0.96384796
0.96386568
0.96384993
0.963802
0.96374382
0.96347192
0.96355793
0.96366754
0.96376906
0.96384796
0.96389754
0.96391396
0.96389555
0.96384375
0.96378165
0.96349362
0.96358033
0.96368903
0.96378868
0.96386568
0.96391396
0.96392993
0.96391176
0.96386023
0.96379761
0.96349929
0.96358263
0.963685
0.96377802
0.96384992
0.96389555
0.96391176
0.96389669
0.96385013
0.96379138
0.9634903
0.96356467
0.96365516
0.96373762
0.963802
0.96384375
0.96386023
0.96385013
0.96381306
0.9637643
0.96347585
0.96353729
0.96361436
0.96368645
0.96374381
0.96378165
0.96379761
0.96379137
0.9637643
0.96372957
0.95838423
0.95842739
0.95849101
0.95855669
0.95861304
0.95865377
0.95867592
0.95867948
0.95866654
0.9586483
0.95842739
0.95848319
0.95856032
0.95863692
0.95870089
0.95874586
0.95876849
0.95876786
0.95874465
0.95871233
0.95849101
0.95856032
0.95865323
0.95874311
0.95881615
0.95886534
0.95888674
0.95887876
0.95884216
0.95879513
0.95855669
0.95863692
0.95874311
0.95884431
0.95892486
0.95897694
0.95899612
0.95898061
0.95893216
0.95887363
0.95861304
0.95870089
0.95881615
0.95892486
0.95901011
0.95906361
0.95908063
0.95905939
0.95900254
0.95893623
0.95865377
0.95874586
0.95886534
0.95897694
0.95906361
0.9591171
0.95913271
0.95910857
0.95904752
0.95897699
0.95867593
0.95876849
0.95888674
0.95899612
0.95908063
0.95913271
0.95914792
0.95912423
0.95906377
0.95899296
0.95867948
0.95876786
0.95887876
0.9589806
0.95905938
0.95910857
0.95912423
0.95910434
0.95904983
0.95898383
0.95866654
0.95874465
0.95884216
0.95893215
0.95900254
0.95904752
0.95906377
0.95904983
0.95900638
0.95895196
0.9586483
0.95871233
0.95879513
0.95887363
0.95893623
0.95897698
0.95899296
0.95898382
0.95895196
0.95891327
0.95342955
0.95347492
0.95354294
0.95361366
0.95367422
0.95371727
0.95373925
0.95374012
0.95372295
0.95370102
0.95347492
0.95353346
0.95361591
0.95369848
0.95376731
0.95381481
0.95383698
0.9538328
0.95380409
0.95376712
0.95354294
0.95361591
0.95371545
0.95381252
0.95389124
0.95394323
0.95396377
0.95395121
0.95390769
0.95385485
0.95361366
0.95369848
0.95381252
0.95392198
0.95400893
0.95406402
0.95408197
0.95406097
0.95400438
0.95393902
0.95367423
0.95376731
0.95389124
0.95400893
0.95410104
0.95415765
0.95417318
0.95414584
0.95408006
0.95400622
0.95371727
0.95381481
0.95394323
0.95406402
0.95415765
0.95421426
0.95422828
0.95419786
0.9541276
0.95404932
0.95373925
0.95383698
0.95396377
0.95408197
0.95417318
0.95422828
0.954242
0.95421231
0.95414302
0.9540648
0.95374012
0.9538328
0.95395121
0.95406097
0.95414584
0.95419786
0.95421231
0.95418713
0.95412486
0.95405243
0.95372295
0.95380409
0.95390768
0.95400438
0.95408005
0.9541276
0.95414302
0.95412486
0.9540752
0.95401587
0.95370102
0.95376712
0.95385484
0.95393902
0.95400622
0.95404932
0.9540648
0.95405243
0.95401586
0.9539737
0.94835604
0.94840347
0.94847549
0.94855073
0.94861493
0.94865968
0.94868088
0.9486786
0.94865703
0.94863158
0.94840347
0.94846458
0.94855185
0.94863974
0.94871277
0.94876212
0.94878314
0.94877489
0.94874059
0.94869929
0.94847549
0.94855185
0.94865738
0.94876087
0.94884452
0.94889854
0.94891749
0.94889982
0.94884937
0.94879118
0.94855073
0.94863974
0.94876088
0.94887776
0.94897027
0.94902755
0.94904352
0.94901653
0.94895188
0.94888027
0.94861493
0.94871277
0.94884452
0.94897027
0.94906834
0.94912722
0.94914052
0.94910664
0.94903207
0.94895139
0.94865968
0.94876212
0.94889854
0.94902755
0.94912722
0.94918611
0.94919783
0.94916071
0.9490815
0.94899623
0.94868089
0.94878314
0.94891749
0.94904352
0.94914052
0.94919783
0.94920938
0.94917332
0.94909552
0.94901073
0.9486786
0.94877489
0.94889982
0.94901653
0.94910664
0.94916071
0.94917332
0.94914256
0.94907287
0.94899487
0.94865703
0.94874059
0.94884937
0.94895188
0.94903207
0.9490815
0.94909552
0.94907286
0.94901731
0.94895379
0.94863158
0.94869929
0.94879118
0.94888027
0.94895138
0.94899623
0.94901073
0.94899487
0.94895379
0.94890863
0.9431609
0.94321029
0.94328592
0.94336514
0.94343237
0.94347821
0.94349808
0.94349224
0.94346619
0.94343743
0.94321029
0.94327382
0.94336542
0.943458
0.94353452
0.94358502
0.94360427
0.94359154
0.94355167
0.94350637
0.94328592
0.94336542
0.94347634
0.94358549
0.94367325
0.94372852
0.94374521
0.94372203
0.94366478
0.94360173
0.94336514
0.943458
0.94358549
0.94370892
0.9438061
0.94386473
0.94387803
0.9438447
0.94377222
0.94369496
0.94343237
0.94353453
0.94367326
0.94380611
0.9439092
0.94396949
0.94397987
0.94393914
0.9438561
0.94376929
0.94347821
0.94358503
0.94372852
0.94386473
0.94396949
0.94402979
0.94403854
0.94399449
0.94390672
0.94381526
0.94349809
0.94360427
0.94374521
0.94387803
0.94397987
0.94403854
0.9440473
0.94400468
0.94391884
0.94382833
0.94349225
0.94359154
0.94372203
0.9438447
0.94393913
0.94399449
0.94400468
0.94396818
0.94389153
0.94380882
0.94346619
0.94355167
0.94366478
0.94377221
0.9438561
0.94390672
0.94391884
0.94389153
0.94383045
0.94376347
0.94343743
0.94350637
0.94360173
0.94369496
0.94376929
0.94381526
0.94382833
0.94380881
0.94376347
0.94371578
0.93784127
0.9378925
0.93797136
0.93805402
0.93812368
0.93817001
0.93818805
0.93817835
0.93814782
0.93811595
0.9378925
0.93795831
0.93805379
0.93815043
0.93822974
0.9382807
0.93829762
0.93828012
0.93823478
0.93818583
0.93797136
0.9380538
0.93816951
0.93828355
0.93837462
0.93843037
0.93844419
0.93841526
0.93835142
0.93828399
0.93805402
0.93815043
0.93828355
0.93841264
0.9385136
0.93857274
0.93858277
0.93854289
0.9384629
0.93838061
0.93812368
0.93822974
0.93837462
0.9385136
0.93862075
0.9386816
0.93868846
0.93864073
0.93854966
0.93845742
0.93817001
0.93828071
0.93843037
0.93857274
0.9386816
0.93874247
0.93874768
0.9386966
0.93860078
0.93850392
0.93818805
0.93829762
0.93844419
0.93858277
0.93868846
0.93874768
0.93875311
0.93870388
0.93861055
0.93851516
0.93817835
0.93828012
0.93841526
0.93854288
0.93864073
0.93869659
0.93870388
0.9386616
0.93857854
0.93849191
0.93814782
0.93823478
0.93835142
0.93846289
0.93854966
0.93860077
0.93861055
0.93857854
0.93851239
0.93844258
0.93811595
0.93818583
0.93828399
0.9383806
0.93845742
0.93850392
0.93851516
0.93849191
0.93844258
0.93839278
0.93239419
0.93244714
0.93252888
0.93261444
0.93268593
0.93273218
0.93274793
0.93273416
0.93269922
0.93266448
0.93244714
0.93251511
0.93261404
0.93271409
0.93279551
0.93284629
0.93286038
0.93283793
0.93278728
0.93273501
0.93252888
0.93261404
0.932734
0.93285217
0.93294575
0.93300125
0.93301169
0.93297686
0.93290672
0.93283537
0.93261444
0.93271409
0.93285217
0.93298604
0.93308987
0.93314876
0.93315499
0.93310848
0.93302139
0.93293464
0.93268594
0.93279551
0.93294575
0.93308987
0.93320014
0.93326074
0.93326358
0.93320882
0.93311023
0.93301324
0.93273218
0.93284629
0.93300125
0.93314876
0.93326074
0.93332137
0.93332256
0.93326447
0.93316119
0.93305969
0.93274793
0.93286038
0.9330117
0.93315499
0.93326358
0.93332256
0.93332422
0.93326844
0.93316824
0.93306876
0.93273416
0.93283793
0.93297686
0.93310848
0.93320882
0.93326447
0.93326844
0.93322045
0.93313157
0.93304176
0.93269922
0.93278728
0.93290672
0.93302139
0.93311022
0.93316119
0.93316824
0.93313157
0.93306081
0.93298876
0.93266448
0.93273501
0.93283537
0.93293463
0.93301323
0.93305969
0.93306876
0.93304176
0.93298876
0.93293722
0.92681664
0.92687118
0.92695543
0.92704338
0.92711613
0.92716177
0.92717485
0.92715688
0.92711764
0.92708025
0.92687118
0.92694116
0.92704313
0.92714599
0.92722884
0.92727884
0.92728971
0.92726222
0.92720649
0.92715121
0.92695543
0.92704313
0.92716681
0.92728838
0.92738368
0.92743828
0.92744493
0.92740417
0.92732807
0.92725321
0.92704338
0.92714599
0.92728838
0.92742617
0.92753202
0.92758994
0.92759195
0.92753884
0.92744512
0.92735443
0.92711613
0.92722884
0.92738369
0.92753202
0.92764447
0.92770408
0.9277025
0.92764081
0.92753525
0.92743415
0.92716178
0.92727884
0.92743828
0.92758994
0.92770408
0.92776373
0.92776053
0.92769558
0.92758547
0.92748003
0.92717486
0.92728971
0.92744493
0.92759195
0.9277025
0.92776053
0.92775807
0.92769591
0.9275895
0.92748663
0.92715688
0.92726222
0.92740417
0.92753884
0.92764081
0.92769558
0.92769591
0.92764237
0.92754827
0.92745592
0.92711764
0.92720649
0.92732807
0.92744511
0.92753525
0.92758547
0.9275895
0.92754827
0.92747337
0.92739957
0.92708025
0.92715121
0.92725321
0.92735443
0.92743414
0.92748002
0.92748663
0.92745592
0.92739957
0.92734662
0.92110553
0.92116151
0.92124794
0.92133778
0.92141124
0.92145579
0.9214659
0.92144366
0.9214003
0.92136046
0.92116152
0.92123336
0.92133796
0.92144305
0.92152672
0.92157541
0.92158275
0.9215502
0.92148965
0.92143164
0.92124794
0.92133796
0.92146485
0.92158913
0.92168545
0.92173854
0.92174108
0.92169444
0.92161276
0.92153478
0.92133778
0.92144305
0.92158913
0.92173005
0.92183711
0.92189342
0.92189091
0.92183132
0.92173144
0.92163731
0.92141124
0.92152672
0.92168545
0.92183711
0.92195086
0.92200882
0.92200254
0.92193411
0.92182216
0.92171751
0.9214558
0.92157541
0.92173855
0.92189342
0.92200882
0.92206683
0.92205897
0.9219874
0.9218711
0.92176234
0.92146591
0.92158275
0.92174108
0.92189091
0.92200254
0.92205897
0.92205214
0.92198386
0.92187188
0.92176626
0.92144366
0.9215502
0.92169444
0.92183132
0.92193411
0.9219874
0.92198386
0.92192499
0.92182626
0.92173193
0.9214003
0.92148965
0.92161276
0.92173144
0.92182215
0.9218711
0.92187188
0.92182625
0.92174767
0.92167254
0.92136046
0.92143164
0.92153478
0.92163731
0.92171751
0.92176233
0.92176626
0.92173193
0.92167254
0.92161845
0.91525769
0.91531498
0.91540323
0.91549449
0.91556817
0.91561123
0.91561813
0.91559163
0.91554431
0.91550223
0.91531498
0.91538853
0.91549537
0.91560216
0.91568608
0.915733
0.91573657
0.91569904
0.91563394
0.91557346
0.91540324
0.91549537
0.915625
0.91575135
0.91584802
0.91589911
0.9158973
0.91584493
0.91575805
0.9156773
0.9154945
0.91560216
0.91575135
0.91589464
0.91600217
0.91605632
0.91604908
0.91598323
0.91587768
0.91578055
0.91556818
0.91568608
0.91584802
0.91600217
0.91611644
0.91617218
0.91616099
0.91608609
0.91596833
0.91586066
0.91561123
0.915733
0.91589911
0.91605632
0.91617218
0.91622797
0.91621529
0.9161374
0.91601553
0.91590401
0.91561813
0.91573657
0.9158973
0.91604908
0.91616099
0.91621529
0.91620393
0.91612983
0.91601292
0.91590509
0.91559163
0.91569904
0.91584493
0.91598323
0.91608609
0.9161374
0.91612983
0.91606591
0.9159631
0.91586726
0.91554432
0.91563394
0.91575805
0.91587768
0.91596833
0.91601553
0.91601292
0.91596309
0.91588125
0.91580512
0.91550223
0.91557346
0.9156773
0.91578054
0.91586065
0.91590401
0.91590509
0.91586725
0.91580512
0.91575012
0.90926993
0.90932836
0.90941813
0.90951038
0.90958382
0.90962502
0.90962855
0.90959785
0.9095468
0.90950265
0.90932836
0.90940345
0.90951216
0.90962014
0.90970381
0.90974858
0.90974824
0.90970585
0.90963649
0.90957378
0.90941813
0.90951216
0.90964408
0.90977191
0.90986835
0.909917
0.90991073
0.90985282
0.90976113
0.90967792
0.90951038
0.90962015
0.90977191
0.90991689
0.91002423
0.91007577
0.91006368
0.90999183
0.90988111
0.90978136
0.90958382
0.90970381
0.90986835
0.91002423
0.91013832
0.91019137
0.91017518
0.91009413
0.90997113
0.90986087
0.90962503
0.90974859
0.90991701
0.91007577
0.91019137
0.91024447
0.91022688
0.91014302
0.9100162
0.9099024
0.90962856
0.90974824
0.90991073
0.91006368
0.91017518
0.91022688
0.91021093
0.91013137
0.9100101
0.90990053
0.90959785
0.90970585
0.90985282
0.90999183
0.91009413
0.91014302
0.91013136
0.9100627
0.90995631
0.90985934
0.9095468
0.90963649
0.90976113
0.90988111
0.90997112
0.9100162
0.91001009
0.90995631
0.9098716
0.90979475
0.90950265
0.90957378
0.90967791
0.90978136
0.90986087
0.9099024
0.90990052
0.90985934
0.90979474
0.90973903
0.903139
0.90319842
0.9032894
0.90338223
0.90345505
0.90349411
0.90349417
0.90345938
0.90340481
0.90335876
0.90319842
0.90327487
0.90338511
0.90349383
0.9035768
0.90361912
0.90361478
0.90356771
0.90349439
0.90342965
0.9032894
0.90338511
0.90351889
0.90364766
0.90374337
0.90378927
0.90377847
0.90371527
0.90361916
0.90353376
0.90338224
0.90349383
0.90364766
0.90379372
0.90390031
0.90394889
0.90393192
0.90385438
0.90373896
0.90363693
0.90345505
0.9035768
0.90374337
0.90390031
0.90401361
0.90406359
0.9040424
0.90395556
0.90382785
0.90371542
0.90349412
0.90361912
0.90378927
0.90394889
0.90406359
0.90411363
0.90409114
0.90400171
0.9038705
0.90375483
0.90349418
0.90361479
0.90377848
0.90393192
0.9040424
0.90409114
0.9040706
0.90398595
0.90386087
0.90374994
0.90345939
0.90356771
0.90371527
0.90385438
0.90395556
0.90400171
0.90398595
0.90391286
0.90380336
0.90370557
0.90340481
0.90349439
0.90361916
0.90373896
0.90382785
0.90387049
0.90386087
0.90380336
0.90371613
0.90363877
0.90335876
0.90342965
0.90353375
0.90363693
0.90371541
0.90375483
0.90374994
0.90370557
0.90363877
0.90358248
0.89686165
0.89692189
0.89701379
0.89710685
0.8971787
0.89721541
0.89721197
0.89717323
0.89711536
0.89706758
0.89692189
0.89699951
0.89711095
0.89722001
0.89730191
0.89734156
0.89733322
0.89728167
0.89720469
0.89713812
0.89701379
0.89711095
0.89724621
0.89737545
0.89747001
0.8975129
0.89749761
0.8974294
0.89732925
0.89724189
0.89710685
0.89722001
0.89737545
0.89752204
0.89762742
0.89767277
0.89765098
0.89756809
0.89744842
0.89734442
0.89717871
0.89730192
0.89747001
0.89762742
0.89773941
0.89778607
0.89775994
0.89766769
0.89753579
0.8974215
0.89721542
0.89734156
0.8975129
0.89767277
0.89778607
0.89783278
0.89780546
0.89771085
0.89757577
0.89745859
0.89721197
0.89733323
0.89749761
0.89765098
0.89775994
0.89780546
0.89778041
0.89769105
0.89756265
0.89745067
0.89717323
0.89728168
0.8974294
0.89756809
0.89766769
0.89771085
0.89769105
0.89761387
0.89750167
0.8974033
0.89711536
0.89720469
0.89732925
0.89744842
0.89753578
0.89757577
0.89756265
0.89750167
0.89741224
0.89733452
0.89706758
0.89713812
0.89724189
0.89734441
0.8974215
0.89745858
0.89745066
0.8974033
0.89733452
0.89727778
0.89043458
0.89049549
0.89058804
0.89068102
0.89075163
0.89078583
0.8907789
0.89073639
0.89067545
0.89062609
0.89049549
0.8905741
0.89068643
0.89079548
0.89087601
0.89091283
0.89090055
0.89084477
0.8907644
0.89069619
0.89058804
0.89068643
0.89082281
0.89095212
0.89104518
0.89108491
0.89106521
0.8909923
0.89088846
0.89079938
0.89068102
0.89079548
0.89095212
0.89109878
0.89120255
0.89124451
0.89121801
0.89113015
0.89100665
0.89090093
0.89075163
0.89087602
0.89104518
0.89120255
0.89131284
0.89135599
0.89132506
0.89122781
0.89109217
0.89097633
0.89078584
0.89091283
0.89108491
0.89124451
0.89135599
0.8913992
0.8913672
0.89126782
0.89112934
0.89101092
0.8907789
0.89090055
0.89106522
0.89121801
0.89132506
0.89136719
0.89133775
0.89124407
0.89111279
0.89100001
0.89073639
0.89084477
0.8909923
0.89113015
0.8912278
0.89126782
0.89124407
0.89116313
0.89104859
0.89094982
0.89067545
0.8907644
0.89088846
0.89100664
0.89109216
0.89112933
0.89111278
0.89104859
0.89095722
0.89087927
0.89062609
0.89069619
0.89079938
0.89090092
0.89097632
0.89101092
0.891
0.89094982
0.89087927
0.89082217
0.88385451
0.88391593
0.88400889
0.88410152
0.88417067
0.88420227
0.88419191
0.88414583
0.88408206
0.88403125
0.88391593
0.88399535
0.8841083
0.88421704
0.88429597
0.88432987
0.88431375
0.88425399
0.88417053
0.88410082
0.88400889
0.8841083
0.88424548
0.8843745
0.88446581
0.88450229
0.88447833
0.88440103
0.88429386
0.88420325
0.88410152
0.88421704
0.8843745
0.88452085
0.88462272
0.88466121
0.88463016
0.8845377
0.88441077
0.88430356
0.88417067
0.88429597
0.88446581
0.88462273
0.88473099
0.88477055
0.884735
0.88463315
0.88449421
0.88437705
0.88420227
0.88432987
0.8845023
0.88466121
0.88477055
0.88481017
0.88477367
0.88466993
0.88452847
0.88440906
0.88419191
0.88431375
0.88447833
0.88463016
0.884735
0.88477366
0.88474001
0.88464239
0.8845086
0.88439521
0.88414583
0.88425399
0.88440103
0.88453769
0.88463315
0.88466993
0.88464238
0.884558
0.88444143
0.88434239
0.88408206
0.88417053
0.88429386
0.88441077
0.8844942
0.88452847
0.88450859
0.88444143
0.88434836
0.88427026
0.88403125
0.88410082
0.88420325
0.88430355
0.88437705
0.88440906
0.88439521
0.88434239
0.88427026
0.88421287
0.87711816
0.87717995
0.8772731
0.87736514
0.87743267
0.87746162
0.87744795
0.87739852
0.87733213
0.87728001
0.87717995
0.87726
0.87737333
0.8774815
0.87755865
0.8775896
0.87756979
0.87750633
0.87742005
0.877349
0.8772731
0.87737333
0.87751101
0.87763946
0.87772882
0.87776205
0.877734
0.87765266
0.87754248
0.8774505
0.87736515
0.8774815
0.87763947
0.87778517
0.87788494
0.87791994
0.87788457
0.87778787
0.87765789
0.87754938
0.87743268
0.87755866
0.87772882
0.87788494
0.87799096
0.87802692
0.87798698
0.87788094
0.87773908
0.87762081
0.87746163
0.87758961
0.87776205
0.87791994
0.87802692
0.87806294
0.87802217
0.87791447
0.87777042
0.8776502
0.87744795
0.8775698
0.877734
0.87788457
0.87798698
0.87802217
0.87798452
0.87788331
0.87774735
0.87763351
0.87739852
0.87750633
0.87765266
0.87778787
0.87788093
0.87791446
0.8778833
0.87779578
0.87767746
0.87757825
0.87733213
0.87742005
0.87754247
0.87765788
0.87773907
0.87777041
0.87774735
0.87767745
0.87758289
0.8775047
0.87728001
0.877349
0.8774505
0.87754938
0.87762081
0.87765019
0.87763351
0.87757824
0.87750469
0.87744706
0.87022226
0.87028429
0.87037743
0.87046871
0.87053451
0.87056082
0.87054396
0.87049141
0.87042263
0.87036932
0.87028429
0.87036481
0.87047828
0.87058569
0.87066095
0.87068899
0.87066566
0.87059877
0.87050993
0.87043768
0.87037744
0.87047828
0.87061622
0.87074387
0.87083116
0.87086117
0.87082927
0.87074421
0.87063132
0.87053815
0.87046872
0.87058569
0.87074388
0.8708887
0.87098623
0.87101779
0.87097834
0.87087779
0.87074508
0.87063545
0.87053451
0.87066096
0.87083116
0.87098623
0.87108986
0.87112228
0.87107821
0.87096836
0.87082393
0.87070473
0.87056082
0.87068899
0.87086117
0.87101779
0.87112228
0.87115475
0.87110997
0.87099868
0.87085237
0.8707315
0.87054396
0.87066566
0.87082927
0.87097834
0.87107821
0.87110997
0.87106856
0.87096411
0.87082627
0.8707121
0.87049141
0.87059877
0.87074421
0.87087778
0.87096835
0.87099868
0.87096411
0.87087373
0.87075388
0.87065457
0.87042263
0.87050993
0.87063132
0.87074508
0.87082393
0.87085237
0.87082627
0.87075388
0.870658
0.87057974
0.87036932
0.87043768
0.87053814
0.87063545
0.87070473
0.87073149
0.87071209
0.87065457
0.87057974
0.8705219
0.86316358
0.86322571
0.86331869
0.86340906
0.86347305
0.86349677
0.8634769
0.86342146
0.86335051
0.86329613
0.86322572
0.86330656
0.86341998
0.86352647
0.86359978
0.86362496
0.86359833
0.86352829
0.86343715
0.86336383
0.86331869
0.86341999
0.86355795
0.86368464
0.86376978
0.86379667
0.86376116
0.86367271
0.86355741
0.86346318
0.86340907
0.86352647
0.86368464
0.86382838
0.8639236
0.86395184
0.86390858
0.86380454
0.86366943
0.86355883
0.86347306
0.86359978
0.86376979
0.8639236
0.86402479
0.86405377
0.86400586
0.86389257
0.8637459
0.86362592
0.86349678
0.86362497
0.86379668
0.86395184
0.86405377
0.86408282
0.8640343
0.86391978
0.86377151
0.86365011
0.86347691
0.86359833
0.86376116
0.86390858
0.86400586
0.8640343
0.86398939
0.86388202
0.86374256
0.86362814
0.86342146
0.8635283
0.86367271
0.86380453
0.86389257
0.86391978
0.86388202
0.86378907
0.8636679
0.86356852
0.86335051
0.86343715
0.86355741
0.86366943
0.8637459
0.86377151
0.86374256
0.86366789
0.86357085
0.86349255
0.86329613
0.86336382
0.86346317
0.86355882
0.86362591
0.86365011
0.86362813
0.86356852
0.86349255
0.86343454
0.8559389
0.85600104
0.85609371
0.85618306
0.85624522
0.85626644
0.85624374
0.85618564
0.85611273
0.85605739
0.85600104
0.85608207
0.85619529
0.85630073
0.85637206
0.85639452
0.8563648
0.8562919
0.85619868
0.85612441
0.85609371
0.85619529
0.8563331
0.85645868
0.85654168
0.85656558
0.85652671
0.85643521
0.85631776
0.8562226
0.85618307
0.85630073
0.85645868
0.85660121
0.85669412
0.85671917
0.85667241
0.85656521
0.85642799
0.85631655
0.85624523
0.85637207
0.85654168
0.85669412
0.85679285
0.85681855
0.8567671
0.85665073
0.85650211
0.85638146
0.85626644
0.85639452
0.85656558
0.85671917
0.85681855
0.85684432
0.85679236
0.85667497
0.856525
0.85640317
0.85624374
0.8563648
0.85652672
0.85667241
0.8567671
0.85679236
0.85674422
0.85663425
0.85649339
0.85637877
0.85618564
0.8562919
0.85643521
0.85656521