/*--------------------------------*- C++ -*----------------------------------*\
| =========                 |                                                 |
| \\      /  F ield         | OpenFOAM: The Open Source CFD Toolbox           |
|  \\    /   O peration     | Version:  dev                                   |
|   \\  /    A nd           | Web:      www.OpenFOAM.org                      |
|    \\/     M anipulation  |                                                 |
\*---------------------------------------------------------------------------*/
FoamFile
{
    version     2.0;
    format      ascii;
    class       volScalarField;
    location    "1";
    object      A_0;
}
// * * * * * * * * * * * * * * * * * * * * * * * * * * * * * * * * * * * * * //

dimensions      [0 0 0 0 1 0 0];

internalField   nonuniform List<scalar> 
10000
(
0.99802575
0.99802974
0.99803377
0.99803747
0.99804059
0.99804298
0.99804462
0.99804561
0.99804623
0.99804714
0.99802974
0.99803471
0.99803947
0.9980437
0.99804717
0.99804977
0.99805148
0.99805238
0.99805265
0.99805288
0.99803377
0.99803947
0.99804502
0.99804987
0.99805376
0.99805657
0.99805827
0.99805889
0.9980586
0.99805812
0.99803747
0.9980437
0.99804987
0.99805525
0.9980595
0.99806246
0.99806407
0.99806438
0.99806357
0.99806257
0.99804059
0.99804717
0.99805376
0.9980595
0.99806397
0.998067
0.99806853
0.99806858
0.99806738
0.99806603
0.99804298
0.99804977
0.99805657
0.99806246
0.998067
0.99807003
0.99807148
0.99807138
0.99806997
0.99806841
0.99804462
0.99805148
0.99805827
0.99806407
0.99806853
0.99807148
0.99807289
0.99807277
0.99807132
0.99806968
0.99804561
0.99805238
0.99805889
0.99806438
0.99806858
0.99807138
0.99807277
0.99807275
0.99807147
0.99806992
0.99804623
0.99805265
0.9980586
0.99806357
0.99806738
0.99806997
0.99807132
0.99807147
0.99807053
0.9980693
0.99804714
0.99805288
0.99805812
0.99806257
0.99806603
0.99806841
0.99806968
0.99806992
0.9980693
0.99806846
0.99402205
0.99403363
0.99404572
0.99405691
0.99406634
0.99407356
0.99407849
0.99408146
0.99408318
0.99408541
0.99403363
0.99404815
0.9940625
0.99407528
0.99408578
0.99409364
0.9940988
0.99410148
0.99410212
0.99410225
0.99404572
0.9940625
0.99407922
0.99409391
0.99410571
0.99411422
0.99411933
0.99412118
0.99412009
0.99411804
0.99405691
0.99407528
0.99409391
0.99411021
0.99412308
0.99413204
0.99413692
0.9941378
0.99413512
0.99413146
0.99406634
0.99408578
0.99410571
0.99412308
0.99413664
0.99414581
0.99415041
0.9941505
0.99414666
0.99414193
0.99407356
0.99409364
0.99411422
0.99413204
0.99414581
0.99415498
0.99415936
0.994159
0.99415449
0.99414911
0.99407849
0.9940988
0.99411933
0.99413692
0.99415041
0.99415936
0.9941636
0.99416317
0.99415856
0.99415295
0.99408146
0.99410148
0.99412118
0.9941378
0.9941505
0.994159
0.99416317
0.99416305
0.99415896
0.99415362
0.99408318
0.99410212
0.99412009
0.99413512
0.99414666
0.99415449
0.99415856
0.99415896
0.99415595
0.99415159
0.99408541
0.99410225
0.99411804
0.99413146
0.99414193
0.99414911
0.99415295
0.99415362
0.99415159
0.99414853
0.98991774
0.98993592
0.98995597
0.98997472
0.98999056
0.99000267
0.99001089
0.99001571
0.99001809
0.99002049
0.98993592
0.98995899
0.98998289
0.99000438
0.99002205
0.99003525
0.99004386
0.99004821
0.99004869
0.99004744
0.98995597
0.98998289
0.99001084
0.99003558
0.99005546
0.99006977
0.9900783
0.99008121
0.99007871
0.99007371
0.98997472
0.99000438
0.99003558
0.99006306
0.99008476
0.99009984
0.99010796
0.99010921
0.990104
0.99009624
0.98999056
0.99002205
0.99005546
0.99008476
0.99010762
0.99012306
0.99013071
0.99013062
0.99012342
0.99011381
0.99000267
0.99003525
0.99006977
0.99009984
0.99012306
0.99013851
0.99014577
0.99014491
0.99013658
0.99012587
0.99001089
0.99004386
0.9900783
0.99010796
0.99013071
0.99014577
0.99015281
0.99015185
0.99014336
0.99013225
0.99001571
0.99004821
0.99008121
0.99010921
0.99013062
0.99014491
0.99015185
0.99015144
0.99014385
0.99013322
0.99001809
0.99004869
0.99007871
0.990104
0.99012342
0.99013658
0.99014336
0.99014385
0.99013815
0.99012931
0.99002049
0.99004744
0.99007371
0.99009624
0.99011381
0.99012587
0.99013225
0.99013322
0.99012931
0.99012295
0.98571204
0.98573576
0.98576346
0.98578976
0.98581203
0.98582902
0.9858404
0.98584681
0.98584916
0.98585053
0.98573576
0.98576614
0.98579932
0.98582955
0.98585447
0.98587304
0.98588498
0.98589066
0.9858902
0.98588626
0.98576346
0.98579932
0.9858383
0.9858732
0.98590128
0.98592144
0.98593326
0.98593684
0.98593206
0.98592272
0.98578976
0.98582955
0.9858732
0.98591201
0.9859427
0.98596394
0.98597517
0.98597638
0.98596766
0.98595433
0.98581203
0.98585447
0.98590128
0.9859427
0.98597504
0.98599681
0.98600734
0.98600663
0.98599505
0.98597905
0.98582902
0.98587304
0.98592144
0.98596394
0.98599681
0.98601857
0.98602857
0.98602675
0.98601357
0.98599597
0.9858404
0.98588498
0.98593326
0.98597517
0.98600734
0.98602857
0.98603827
0.98603632
0.98602294
0.98600478
0.98584681
0.98589066
0.98593684
0.98597638
0.98600663
0.98602675
0.98603632
0.9860352
0.98602316
0.98600578
0.98584916
0.9858902
0.98593206
0.98596766
0.98599505
0.98601357
0.98602294
0.98602316
0.98601396
0.98599933
0.98585053
0.98588626
0.98592272
0.98595433
0.98597905
0.98599597
0.98600478
0.98600578
0.98599933
0.98598873
0.98140344
0.98143176
0.98146669
0.98150041
0.98152906
0.98155082
0.98156515
0.98157268
0.98157423
0.98157352
0.98143176
0.98146827
0.98151029
0.98154917
0.98158132
0.98160518
0.98162021
0.9816267
0.98162437
0.98161666
0.98146669
0.98151029
0.98155991
0.98160492
0.98164123
0.98166716
0.98168201
0.98168569
0.9816776
0.98166278
0.9815004
0.98154917
0.98160492
0.98165507
0.98169481
0.98172216
0.9817362
0.98173672
0.98172343
0.98170334
0.98152906
0.98158132
0.98164123
0.98169481
0.98173669
0.98176473
0.98177786
0.98177585
0.98175878
0.98173516
0.98155082
0.98160518
0.98166716
0.98172216
0.98176473
0.98179275
0.98180518
0.98180175
0.98178258
0.98175686
0.98156515
0.98162021
0.98168201
0.9817362
0.98177786
0.98180518
0.98181725
0.98181368
0.98179429
0.98176789
0.98157268
0.9816267
0.98168569
0.98173672
0.98177585
0.98180175
0.98181368
0.98181125
0.98179374
0.98176848
0.98157423
0.98162437
0.9816776
0.98172343
0.98175879
0.98178258
0.98179429
0.98179374
0.98178015
0.98175881
0.98157352
0.98161666
0.98166278
0.98170334
0.98173516
0.98175686
0.98176789
0.98176848
0.98175881
0.98174338
0.9769901
0.97702226
0.97706395
0.97710485
0.97713973
0.97716608
0.97718301
0.97719109
0.97719102
0.97718744
0.97702226
0.9770639
0.97711421
0.97716153
0.97720078
0.97722974
0.97724747
0.9772541
0.97724896
0.97723672
0.97706395
0.97711421
0.9771739
0.97722885
0.97727328
0.9773048
0.97732225
0.97732528
0.97731288
0.97729184
0.97710485
0.97716153
0.97722885
0.97729019
0.97733889
0.97737216
0.97738858
0.97738762
0.9773687
0.97734107
0.97713973
0.97720078
0.97727328
0.97733889
0.97739027
0.97742438
0.97743965
0.97743553
0.97741189
0.97737983
0.97716608
0.97722974
0.9773048
0.97737216
0.97742438
0.97745847
0.97747288
0.977467
0.97744078
0.97740611
0.97718301
0.97724747
0.97732225
0.97738858
0.97743965
0.97747288
0.97748687
0.97748088
0.97745447
0.97741904
0.97719109
0.9772541
0.97732528
0.97738762
0.97743553
0.977467
0.97748088
0.97747643
0.97745251
0.97741873
0.97719102
0.97724896
0.97731288
0.9773687
0.97741189
0.97744078
0.97745447
0.97745251
0.97743374
0.97740524
0.97718744
0.97723672
0.97729185
0.97734107
0.97737983
0.97740611
0.97741904
0.97741873
0.97740524
0.97738472
0.97246993
0.97250538
0.97255332
0.97260109
0.97264196
0.9726726
0.97269169
0.97269966
0.97269722
0.97269025
0.97250538
0.97255135
0.97260934
0.97266476
0.97271088
0.97274461
0.97276455
0.97277054
0.97276176
0.97274455
0.97255332
0.97260934
0.97267846
0.97274301
0.97279534
0.97283211
0.97285162
0.97285314
0.97283556
0.9728079
0.97260109
0.97266476
0.97274301
0.97281523
0.97287267
0.97291152
0.97292973
0.97292642
0.97290094
0.97286538
0.97264196
0.97271088
0.97279534
0.97287267
0.97293331
0.97297315
0.97298998
0.97298285
0.97295171
0.97291081
0.9726726
0.97274461
0.97283211
0.97291152
0.97297315
0.97301299
0.9730288
0.97301958
0.97298538
0.9729414
0.97269169
0.97276455
0.97285162
0.97292973
0.97298998
0.9730288
0.97304414
0.97303489
0.97300058
0.97295583
0.97269966
0.97277054
0.97285314
0.97292642
0.97298285
0.97301958
0.97303489
0.97302762
0.97299654
0.97295406
0.97269722
0.97276176
0.97283556
0.97290094
0.97295171
0.97298538
0.97300058
0.97299654
0.97297196
0.97293628
0.97269025
0.97274455
0.9728079
0.97286538
0.97291081
0.9729414
0.97295583
0.97295406
0.97293628
0.9729107
0.9678407
0.96787903
0.96793273
0.96798699
0.96803352
0.96806806
0.96808879
0.96809596
0.9680905
0.96807983
0.96787903
0.96792874
0.96799378
0.96805688
0.9681095
0.96814758
0.96816913
0.96817367
0.96816054
0.96813819
0.96793273
0.96799378
0.96807164
0.96814532
0.96820517
0.96824675
0.96826765
0.96826681
0.96824331
0.96820894
0.96798699
0.96805688
0.96814532
0.96822795
0.96829375
0.9683377
0.96835703
0.96835045
0.96831771
0.96827415
0.96803352
0.9681095
0.96820517
0.96829375
0.96836327
0.96840838
0.96842606
0.96841502
0.96837565
0.96832589
0.96806806
0.96814758
0.96824675
0.9683377
0.96840838
0.96845347
0.96846999
0.96845655
0.96841369
0.96836039
0.96808879
0.96816913
0.96826765
0.96835703
0.96842606
0.96846999
0.96848603
0.96847267
0.96842985
0.96837587
0.96809596
0.96817367
0.96826681
0.96835045
0.96841502
0.96845655
0.96847267
0.96846183
0.96842307
0.9683721
0.9680905
0.96816054
0.96824331
0.96831771
0.96837565
0.96841369
0.96842985
0.96842307
0.96839228
0.96834971
0.96807983
0.96813819
0.96820895
0.96827415
0.96832589
0.96836039
0.96837587
0.9683721
0.96834971
0.96831931
0.96310004
0.96314095
0.96319994
0.96326026
0.96331203
0.96335
0.96337178
0.96337747
0.96336846
0.96335397
0.96314095
0.96319396
0.96326545
0.96333571
0.96339439
0.96343629
0.96345877
0.96346108
0.96344307
0.9634156
0.96319994
0.96326545
0.96335133
0.96343359
0.96350046
0.96354626
0.96356783
0.96356379
0.96353385
0.96349292
0.96326026
0.96333571
0.96343359
0.96352602
0.96359966
0.96364811
0.96366779
0.96365711
0.96361658
0.96356524
0.96331203
0.96339439
0.96350046
0.96359966
0.96367753
0.96372727
0.96374505
0.96372925
0.96368117
0.9636228
0.96335
0.96343629
0.96354626
0.96364811
0.96372727
0.96377701
0.96379349
0.96377502
0.96372305
0.96366076
0.96337178
0.96345877
0.96356783
0.96366779
0.96374505
0.96379349
0.96380952
0.96379128
0.96373959
0.96367677
0.96337747
0.96346108
0.96356379
0.96365711
0.96372925
0.96377502
0.96379128
0.96377617
0.96372946
0.96367052
0.96336846
0.96344307
0.96353385
0.96361658
0.96368117
0.96372305
0.96373959
0.96372946
0.96369227
0.96364336
0.96335397
0.9634156
0.96349292
0.96356525
0.9636228
0.96366076
0.96367677
0.96367052
0.96364336
0.96360852
0.95824546
0.95828875
0.95835257
0.95841846
0.958475
0.95851586
0.95853809
0.95854166
0.95852869
0.95851039
0.95828875
0.95834473
0.9584221
0.95849895
0.95856313
0.95860824
0.95863095
0.95863033
0.95860704
0.95857463
0.95835257
0.9584221
0.95851531
0.95860549
0.95867876
0.95872811
0.95874958
0.95874159
0.95870487
0.95865769
0.95841846
0.95849895
0.95860549
0.95870701
0.95878782
0.95884008
0.95885932
0.95884376
0.95879516
0.95873645
0.958475
0.95856313
0.95867876
0.95878782
0.95887336
0.95892703
0.95894411
0.9589228
0.95886577
0.95879925
0.95851586
0.95860824
0.95872811
0.95884008
0.95892703
0.9589807
0.95899636
0.95897215
0.9589109
0.95884014
0.95853809
0.95863095
0.95874958
0.95885932
0.95894411
0.95899636
0.95901162
0.95898787
0.9589272
0.95885617
0.95854166
0.95863033
0.95874159
0.95884376
0.9589228
0.95897215
0.95898787
0.95896791
0.95891322
0.95884701
0.95852869
0.95860704
0.95870487
0.95879516
0.95886577
0.9589109
0.9589272
0.95891322
0.95886964
0.95881504
0.95851039
0.95857463
0.95865769
0.95873645
0.95879925
0.95884014
0.95885617
0.95884701
0.95881504
0.95877623
0.95327437
0.95331987
0.95338811
0.95345906
0.95351982
0.953563
0.95358506
0.95358594
0.95356872
0.95354672
0.95331987
0.95337859
0.95346131
0.95354414
0.9536132
0.95366086
0.9536831
0.95367891
0.95365011
0.95361303
0.95338811
0.95346131
0.95356117
0.95365855
0.95373754
0.9537897
0.95381031
0.9537977
0.95375404
0.95370104
0.95345906
0.95354414
0.95365855
0.95376837
0.95385561
0.95391088
0.95392889
0.95390782
0.95385105
0.95378548
0.95351982
0.9536132
0.95373753
0.95385561
0.95394801
0.95400481
0.9540204
0.95399297
0.95392697
0.9538529
0.953563
0.95366086
0.9537897
0.95391088
0.95400481
0.95406161
0.95407568
0.95404516
0.95397468
0.95389614
0.95358506
0.9536831
0.95381031
0.95392889
0.9540204
0.95407568
0.95408945
0.95405966
0.95399015
0.95391168
0.95358594
0.95367891
0.9537977
0.95390782
0.95399297
0.95404516
0.95405966
0.95403441
0.95397193
0.95389927
0.95356872
0.95365011
0.95375404
0.95385105
0.95392697
0.95397468
0.95399015
0.95397193
0.95392212
0.95386259
0.95354672
0.95361303
0.95370104
0.95378548
0.9538529
0.95389614
0.95391168
0.95389927
0.95386259
0.95382029
0.94818408
0.94823166
0.94830391
0.94837939
0.9484438
0.94848869
0.94850997
0.94850768
0.94848604
0.94846052
0.94823166
0.94829296
0.9483805
0.94846868
0.94854194
0.94859146
0.94861255
0.94860427
0.94856987
0.94852844
0.94830391
0.9483805
0.94848638
0.9485902
0.94867412
0.94872832
0.94874734
0.94872961
0.948679
0.94862063
0.94837939
0.94846868
0.9485902
0.94870747
0.94880028
0.94885774
0.94887377
0.9488467
0.94878184
0.94871
0.94844379
0.94854194
0.94867412
0.94880028
0.94889867
0.94895775
0.94897109
0.9489371
0.94886229
0.94878135
0.94848869
0.94859146
0.94872832
0.94885774
0.94895775
0.94901683
0.94902858
0.94899135
0.94891189
0.94882634
0.94850997
0.94861255
0.94874734
0.94887377
0.94897109
0.94902859
0.94904018
0.949004
0.94892596
0.94884089
0.94850768
0.94860427
0.94872961
0.9488467
0.9489371
0.94899135
0.949004
0.94897315
0.94890323
0.94882498
0.94848604
0.94856987
0.948679
0.94878184
0.94886229
0.94891189
0.94892596
0.94890323
0.9488475
0.94878378
0.94846052
0.94852844
0.94862063
0.94871
0.94878135
0.94882634
0.94884089
0.94882498
0.94878378
0.94873848
0.9429718
0.94302134
0.94309721
0.94317669
0.94324414
0.94329012
0.94331007
0.94330421
0.94327808
0.94324923
0.94302134
0.94308507
0.94317696
0.94326984
0.94334661
0.94339728
0.94341659
0.94340383
0.94336383
0.94331839
0.94309721
0.94317696
0.94328823
0.94339774
0.94348579
0.94354124
0.94355798
0.94353474
0.9434773
0.94341406
0.94317668
0.94326984
0.94339774
0.94352157
0.94361907
0.94367789
0.94369124
0.9436578
0.94358509
0.94350759
0.94324414
0.94334661
0.94348579
0.94361907
0.9437225
0.94378299
0.94379341
0.94375255
0.94366925
0.94358215
0.94329012
0.94339728
0.94354124
0.94367789
0.94378299
0.94384349
0.94385227
0.94380808
0.94372003
0.94362828
0.94331007
0.94341659
0.94355798
0.94369124
0.94379341
0.94385227
0.94386106
0.94381831
0.94373219
0.94364139
0.94330421
0.94340383
0.94353474
0.9436578
0.94375255
0.94380808
0.94381831
0.9437817
0.9437048
0.94362182
0.94327808
0.94336383
0.9434773
0.94358509
0.94366925
0.94372003
0.94373219
0.9437048
0.94364353
0.94357633
0.94324923
0.94331839
0.94341406
0.94350759
0.94358216
0.94362828
0.94364139
0.94362182
0.94357633
0.9435285
0.93763467
0.93768605
0.93776517
0.93784809
0.93791798
0.93796446
0.93798256
0.93797283
0.93794221
0.93791025
0.93768605
0.93775207
0.93784786
0.9379448
0.93802437
0.9380755
0.93809247
0.93807492
0.93802944
0.93798034
0.93776517
0.93784786
0.93796394
0.93807835
0.93816972
0.93822565
0.93823952
0.9382105
0.93814645
0.93807881
0.93784809
0.9379448
0.93807835
0.93820785
0.93830914
0.93836848
0.93837854
0.93833854
0.93825829
0.93817574
0.93791798
0.93802437
0.93816972
0.93830914
0.93841665
0.9384777
0.93848458
0.9384367
0.93834534
0.9382528
0.93796446
0.9380755
0.93822565
0.93836848
0.9384777
0.93853877
0.938544
0.93849275
0.93839662
0.93829945
0.93798256
0.93809247
0.93823952
0.93837854
0.93848458
0.938544
0.93854944
0.93850006
0.93840643
0.93831074
0.93797283
0.93807492
0.9382105
0.93833854
0.9384367
0.93849275
0.93850006
0.93845764
0.93837432
0.93828742
0.93794221
0.93802944
0.93814645
0.93825829
0.93834534
0.93839662
0.93840643
0.93837432
0.93830796
0.93823794
0.93791025
0.93798034
0.93807881
0.93817574
0.9382528
0.93829946
0.93831074
0.93828742
0.93823794
0.93818798
0.93216972
0.93222283
0.93230482
0.93239066
0.93246238
0.93250878
0.93252458
0.93251077
0.93247573
0.93244089
0.93222283
0.932291
0.93239025
0.93249062
0.9325723
0.93262324
0.93263738
0.93261487
0.93256407
0.93251163
0.93230482
0.93239025
0.93251059
0.93262914
0.93272302
0.93277871
0.93278919
0.93275425
0.93268389
0.93261231
0.93239065
0.93249062
0.93262914
0.93276344
0.93286761
0.93292669
0.93293294
0.93288629
0.93279892
0.93271189
0.93246238
0.9325723
0.93272302
0.93286761
0.93297823
0.93303903
0.93304189
0.93298695
0.93288804
0.93279075
0.93250878
0.93262324
0.93277871
0.93292669
0.93303903
0.93309986
0.93310106
0.93304279
0.93293918
0.93283736
0.93252458
0.93263738
0.93278919
0.93293294
0.93304189
0.93310106
0.93310273
0.93304677
0.93294626
0.93284646
0.93251077
0.93261487
0.93275425
0.93288629
0.93298695
0.93304279
0.93304677
0.93299863
0.93290947
0.93281937
0.93247572
0.93256407
0.93268389
0.93279892
0.93288805
0.93293918
0.93294626
0.93290947
0.93283849
0.93276621
0.93244089
0.93251163
0.93261231
0.93271189
0.93279075
0.93283736
0.93284646
0.93281938
0.93276621
0.93271451
0.92657392
0.92662862
0.92671314
0.92680137
0.92687435
0.92692014
0.92693327
0.92691524
0.92687589
0.92683838
0.92662862
0.92669882
0.9268011
0.92690429
0.92698741
0.92703758
0.92704849
0.92702091
0.92696501
0.92690956
0.92671314
0.9268011
0.92692517
0.92704714
0.92714275
0.92719753
0.9272042
0.92716331
0.92708697
0.92701188
0.92680137
0.92690429
0.92704714
0.92718537
0.92729156
0.92734967
0.9273517
0.92729842
0.92720439
0.92711343
0.92687435
0.92698741
0.92714275
0.92729156
0.92740437
0.92746418
0.9274626
0.92740072
0.92729482
0.9271934
0.92692014
0.92703758
0.92719753
0.92734967
0.92746418
0.92752402
0.92752082
0.92745567
0.92734521
0.92723943
0.92693327
0.92704849
0.9272042
0.9273517
0.9274626
0.92752082
0.92751835
0.927456
0.92734926
0.92724606
0.92691524
0.92702091
0.92716331
0.92729842
0.92740072
0.92745567
0.927456
0.92740229
0.9273079
0.92721526
0.92687589
0.92696501
0.92708697
0.92720439
0.92729482
0.92734521
0.92734926
0.9273079
0.92723276
0.92715873
0.92683838
0.92690956
0.92701188
0.92711343
0.9271934
0.92723943
0.92724606
0.92721526
0.92715873
0.92710562
0.92084418
0.92090033
0.92098702
0.92107715
0.92115085
0.92119555
0.92120569
0.92118338
0.92113989
0.92109993
0.92090033
0.9209724
0.92107732
0.92118275
0.92126669
0.92131554
0.9213229
0.92129026
0.92122952
0.92117133
0.92098702
0.92107732
0.92120461
0.9213293
0.92142592
0.92147919
0.92148174
0.92143496
0.92135302
0.9212748
0.92107715
0.92118275
0.9213293
0.92147066
0.92157806
0.92163456
0.92163204
0.92157227
0.92147207
0.92137765
0.92115084
0.92126669
0.92142592
0.92157806
0.92169219
0.92175034
0.92174403
0.92167539
0.92156308
0.92145811
0.92119555
0.92131554
0.92147919
0.92163456
0.92175034
0.92180853
0.92180066
0.92172886
0.92161219
0.92150308
0.92120569
0.9213229
0.92148174
0.92163204
0.92174403
0.92180066
0.9217938
0.92172531
0.92161298
0.92150703
0.92118338
0.92129026
0.92143496
0.92157228
0.92167539
0.92172886
0.92172531
0.92166626
0.92156721
0.92147259
0.92113989
0.92122952
0.92135302
0.92147207
0.92156309
0.92161219
0.92161298
0.92156721
0.92148838
0.92141301
0.92109993
0.92117133
0.9212748
0.92137765
0.92145811
0.92150308
0.92150703
0.92147259
0.92141301
0.92135876
0.91497734
0.91503479
0.91512332
0.91521487
0.91528878
0.91533198
0.9153389
0.91531232
0.91526487
0.91522266
0.91503479
0.91510857
0.91521574
0.91532286
0.91540705
0.91545413
0.91545771
0.91542007
0.91535477
0.9152941
0.91512332
0.91521574
0.91534578
0.91547253
0.91556951
0.91562076
0.91561895
0.91556642
0.91547927
0.91539827
0.91521487
0.91532286
0.91547253
0.91561627
0.91572415
0.91577848
0.91577121
0.91570516
0.91559928
0.91550184
0.91528878
0.91540705
0.91556951
0.91572415
0.91583879
0.91589471
0.91588349
0.91580835
0.91569022
0.91558221
0.91533197
0.91545412
0.91562076
0.91577848
0.91589471
0.91595068
0.91593796
0.91585983
0.91573757
0.9156257
0.9153389
0.91545771
0.91561895
0.91577121
0.91588349
0.91593796
0.91592657
0.91585224
0.91573496
0.91562679
0.91531232
0.91542007
0.91556642
0.91570516
0.91580835
0.91585983
0.91585224
0.91578813
0.91568498
0.91558885
0.91526487
0.91535477
0.91547927
0.91559928
0.91569022
0.91573758
0.91573496
0.91568498
0.91560289
0.91552652
0.91522266
0.9152941
0.91539827
0.91550184
0.91558221
0.9156257
0.91562679
0.91558885
0.91552652
0.91547136
0.90897018
0.90902878
0.90911883
0.90921136
0.90928504
0.90932638
0.90932992
0.90929913
0.90924792
0.90920364
0.90902878
0.90910409
0.90921315
0.90932147
0.9094054
0.90945032
0.90944997
0.90940746
0.90933789
0.90927498
0.90911883
0.90921315
0.90934548
0.90947371
0.90957046
0.90961927
0.90961298
0.90955489
0.90946292
0.90937945
0.90921136
0.90932147
0.90947371
0.90961915
0.90972684
0.90977855
0.90976642
0.90969435
0.90958327
0.90948322
0.90928504
0.9094054
0.90957046
0.90972684
0.90984129
0.90989451
0.90987828
0.90979697
0.90967358
0.90956298
0.90932638
0.90945032
0.90961927
0.90977854
0.90989451
0.90994778
0.90993014
0.90984602
0.9097188
0.90960465
0.90932992
0.90944997
0.90961298
0.90976642
0.90987828
0.90993014
0.90991414
0.90983433
0.90971268
0.90960277
0.90929913
0.90940746
0.90955489
0.90969435
0.90979697
0.90984602
0.90983433
0.90976546
0.90965873
0.90956146
0.90924792
0.90933789
0.90946292
0.90958327
0.90967358
0.9097188
0.90971268
0.90965873
0.90957376
0.90949667
0.90920364
0.90927498
0.90937945
0.90948322
0.90956298
0.90960465
0.90960277
0.90956146
0.90949667
0.90944079
0.90281947
0.90287906
0.90297032
0.90306344
0.90313649
0.90317568
0.90317575
0.90314085
0.90308611
0.90303993
0.90287906
0.90295573
0.90306631
0.90317538
0.90325861
0.90330107
0.90329672
0.90324951
0.90317596
0.90311103
0.90297032
0.90306631
0.90320052
0.90332969
0.90342571
0.90347175
0.90346093
0.90339753
0.90330112
0.90321546
0.90306344
0.90317538
0.90332969
0.90347621
0.90358314
0.90363188
0.90361486
0.90353708
0.9034213
0.90331896
0.90313649
0.90325861
0.90342571
0.90358314
0.9036968
0.90374695
0.9037257
0.90363858
0.90351047
0.90339769
0.90317568
0.90330107
0.90347175
0.90363188
0.90374695
0.90379715
0.90377459
0.90368488
0.90355326
0.90343723
0.90317574
0.90329672
0.90346093
0.90361486
0.9037257
0.90377459
0.90375399
0.90366908
0.90354361
0.90343233
0.90314085
0.90324951
0.90339753
0.90353708
0.90363858
0.90368488
0.90366908
0.90359577
0.90348592
0.90338783
0.90308611
0.90317597
0.90330112
0.9034213
0.90351047
0.90355326
0.90354361
0.90348593
0.90339843
0.90332083
0.90303993
0.90311103
0.90321546
0.90331896
0.90339769
0.90343723
0.90343233
0.90338783
0.90332083
0.90326438
0.89652194
0.89658236
0.89667454
0.89676789
0.89683997
0.8968768
0.89687335
0.89683449
0.89677645
0.89672853
0.89658236
0.89666021
0.89677199
0.89688139
0.89696355
0.89700333
0.89699497
0.89694327
0.89686605
0.89679928
0.89667454
0.89677199
0.89690767
0.89703732
0.89713217
0.89717521
0.89715987
0.89709145
0.89699099
0.89690337
0.89676789
0.89688139
0.89703732
0.89718437
0.89729008
0.89733558
0.89731372
0.89723058
0.89711053
0.89700621
0.89683997
0.89696355
0.89713217
0.89729008
0.89740243
0.89744923
0.89742303
0.89733049
0.89719818
0.89708354
0.8968768
0.89700332
0.8971752
0.89733558
0.89744923
0.8974961
0.8974687
0.8973738
0.89723829
0.89712075
0.89687335
0.89699497
0.89715987
0.89731372
0.89742303
0.8974687
0.89744357
0.89735394
0.89722513
0.89711281
0.89683449
0.89694326
0.89709145
0.89723058
0.8973305
0.8973738
0.89735394
0.89727652
0.89716397
0.8970653
0.89677645
0.89686605
0.89699099
0.89711053
0.89719818
0.89723829
0.89722514
0.89716397
0.89707426
0.89699632
0.89672853
0.89679928
0.89690337
0.89700621
0.89708354
0.89712075
0.89711281
0.8970653
0.89699632
0.89693941
0.89007431
0.8901354
0.89022823
0.89032149
0.89039233
0.89042664
0.89041969
0.89037705
0.89031593
0.89026643
0.8901354
0.89021423
0.89032691
0.8904363
0.89051709
0.89055402
0.89054171
0.89048575
0.89040515
0.89033673
0.89022822
0.89032691
0.89046372
0.89059342
0.89068678
0.89072664
0.89070688
0.89063374
0.89052959
0.89044024
0.89032149
0.8904363
0.89059342
0.89074055
0.89084465
0.89088674
0.89086016
0.89077202
0.89064814
0.8905421
0.89039233
0.89051709
0.89068678
0.89084464
0.89095528
0.89099857
0.89096754
0.89086999
0.89073393
0.89061774
0.89042664
0.89055402
0.89072664
0.89088674
0.89099857
0.89104192
0.89100982
0.89091013
0.89077122
0.89065244
0.89041969
0.89054171
0.89070688
0.89086016
0.89096754
0.89100982
0.89098029
0.89088632
0.89075462
0.8906415
0.89037705
0.89048575
0.89063374
0.89077202
0.89086999
0.89091013
0.89088632
0.89080513
0.89069024
0.89059116
0.89031593
0.89040515
0.89052959
0.89064814
0.89073393
0.89077122
0.89075463
0.89069024
0.89059859
0.89052041
0.89026643
0.89033673
0.89044024
0.8905421
0.89061774
0.89065244
0.8906415
0.89059116
0.89052041
0.89046314
0.88347329
0.88353489
0.88362812
0.88372103
0.8837904
0.8838221
0.88381171
0.8837655
0.88370153
0.88365058
0.88353489
0.88361453
0.88372783
0.8838369
0.88391608
0.88395008
0.88393392
0.88387398
0.88379027
0.88372036
0.88362812
0.88372783
0.88386543
0.88399485
0.88408644
0.88412304
0.88409901
0.88402148
0.88391398
0.88382309
0.88372103
0.8838369
0.88399485
0.88414165
0.88424385
0.88428246
0.88425132
0.88415856
0.88403125
0.88392371
0.8837904
0.88391608
0.88408644
0.88424385
0.88435245
0.88439214
0.88435648
0.88425432
0.88411495
0.88399743
0.8838221
0.88395008
0.88412304
0.88428246
0.88439214
0.88443189
0.88439527
0.88429122
0.88414932
0.88402955
0.88381171
0.88393392
0.88409901
0.88425132
0.88435648
0.88439527
0.88436152
0.88426359
0.88412939
0.88401566
0.8837655
0.88387398
0.88402148
0.88415856
0.88425432
0.88429122
0.88426359
0.88417895
0.88406203
0.88396269
0.88370153
0.88379027
0.88391398
0.88403125
0.88411495
0.88414932
0.88412939
0.88406203
0.88396868
0.88389034
0.88365058
0.88372036
0.88382309
0.88392371
0.88399744
0.88402955
0.88401566
0.88396269
0.88389034
0.88383279
0.87671559
0.87677756
0.87687098
0.87696331
0.87703105
0.87706009
0.87704637
0.8769968
0.87693021
0.87687795
0.87677756
0.87685784
0.8769715
0.87708001
0.8771574
0.87718845
0.87716859
0.87710493
0.87701839
0.87694713
0.87687098
0.8769715
0.87710961
0.87723846
0.87732809
0.87736142
0.8773333
0.87725171
0.87714119
0.87704894
0.87696331
0.87708001
0.87723846
0.87738462
0.8774847
0.87751981
0.87748433
0.87738734
0.87725695
0.87714812
0.87703105
0.8771574
0.87732809
0.8774847
0.87759105
0.87762712
0.87758707
0.87748069
0.8773384
0.87721978
0.87706009
0.87718845
0.87736142
0.87751981
0.87762712
0.87766326
0.87762236
0.87751433
0.87736984
0.87724925
0.87704637
0.87716858
0.8773333
0.87748433
0.87758707
0.87762236
0.8775846
0.87748308
0.87734671
0.87723253
0.8769968
0.87710492
0.87725171
0.87738734
0.87748069
0.87751433
0.87748308
0.87739529
0.8772766
0.8771771
0.87693021
0.87701839
0.87714119
0.87725696
0.8773384
0.87736984
0.87734671
0.8772766
0.87718176
0.87710333
0.87687795
0.87694713
0.87704894
0.87714812
0.87721978
0.87724926
0.87723253
0.8771771
0.87710333
0.87704553
0.86979795
0.86986015
0.86995357
0.87004513
0.87011113
0.87013752
0.87012062
0.87006791
0.86999893
0.86994547
0.86986015
0.86994091
0.87005472
0.87016245
0.87023795
0.87026607
0.87024268
0.87017558
0.87008648
0.87001402
0.86995357
0.87005472
0.87019307
0.87032112
0.87040867
0.87043878
0.87040678
0.87032146
0.87020824
0.87011479
0.87004513
0.87016245
0.87032112
0.87046638
0.87056422
0.87059588
0.87055631
0.87045545
0.87032235
0.87021239
0.87011112
0.87023794
0.87040867
0.87056422
0.87066818
0.87070069
0.8706565
0.8705463
0.87040144
0.87028188
0.87013752
0.87026607
0.87043878
0.87059588
0.87070069
0.87073327
0.87068835
0.87057672
0.87042997
0.87030873
0.87012061
0.87024267
0.87040678
0.87055631
0.8706565
0.87068836
0.87064682
0.87054205
0.8704038
0.87028928
0.8700679
0.87017558
0.87032146
0.87045545
0.8705463
0.87057672
0.87054205
0.8704514
0.87033119
0.87023158
0.86999893
0.87008648
0.87020824
0.87032235
0.87040144
0.87042997
0.8704038
0.87033119
0.87023503
0.87015654
0.86994547
0.87001402
0.87011479
0.87021239
0.87028189
0.87030874
0.87028928
0.87023159
0.87015654
0.87009854
0.86271714
0.86277945
0.8628727
0.86296334
0.86302752
0.86305132
0.86303139
0.86297578
0.86290463
0.8628501
0.86277945
0.86286052
0.86297428
0.86308109
0.86315462
0.86317989
0.86315318
0.86308293
0.86299152
0.86291798
0.8628727
0.86297428
0.86311266
0.86323974
0.86332514
0.86335212
0.8633165
0.86322779
0.86311214
0.86301763
0.86296334
0.86308109
0.86323973
0.86338391
0.86347943
0.86350776
0.86346438
0.86336001
0.8632245
0.86311357
0.86302752
0.86315462
0.86332514
0.86347943
0.86358093
0.86361
0.86356196
0.86344832
0.86330121
0.86318086
0.86305132
0.86317989
0.86335212
0.86350776
0.86361
0.86363914
0.86359048
0.86347562
0.8633269
0.86320514
0.86303139
0.86315318
0.8633165
0.86346438
0.86356196
0.86359048
0.86354544
0.86343774
0.86329787
0.8631831
0.86297578
0.86308293
0.86322779
0.86336001
0.86344832
0.86347562
0.86343775
0.86334452
0.86322298
0.86312331
0.86290463
0.86299152
0.86311214
0.8632245
0.86330121
0.8633269
0.86329787
0.86322298
0.86312565
0.86304712
0.8628501
0.86291798
0.86301763
0.86311357
0.86318086
0.86320514
0.8631831
0.86312331
0.86304712
0.86298894
0.85546995
0.85553225
0.85562519
0.85571481
0.85577716
0.85579844
0.85577568
0.85571741
0.85564428
0.85558879
0.85553225
0.8556135
0.85572706
0.85583282
0.85590437
0.85592689
0.85589709
0.85582397
0.85573048
0.85565599
0.85562519
0.85572706
0.85586528
0.85599125
0.8560745
0.85609847
0.85605949
0.85596771
0.85584991
0.85575447
0.85571481
0.85583282
0.85599124
0.8561342
0.8562274
0.85625253
0.85620562
0.85609811
0.85596047
0.85584871
0.85577716
0.85590437
0.8560745
0.8562274
0.85632643
0.85635221
0.85630061
0.85618389
0.85603481
0.85591381
0.85579844
0.85592689
0.85609847
0.85625253
0.85635221
0.85637807
0.85632595
0.8562082
0.85605778
0.85593559
0.85577567
0.85589709
0.85605949
0.85620562
0.85630061
0.85632595
0.85627767
0.85616736
0.85602608
0.85591112
0.85571741
0.85582397
0.85596771
0.85609811
0.85618389