/*--------------------------------*- C++ -*----------------------------------*\
| =========                 |                                                 |
| \\      /  F ield         | OpenFOAM: The Open Source CFD Toolbox           |
|  \\    /   O peration     | Version:  dev                                   |
|   \\  /    A nd           | Web:      www.OpenFOAM.org                      |
|    \\/     M anipulation  |                                                 |
\*---------------------------------------------------------------------------*/
FoamFile
{
    version     2.0;
    format      ascii;
    class       volScalarField;
    location    "1";
    object      p;
}
// * * * * * * * * * * * * * * * * * * * * * * * * * * * * * * * * * * * * * //

dimensions      [0 2 -2 0 0 0 0];

internalField   nonuniform List<scalar> 
10000
(
24.38146
25.623036
25.680202
25.753859
25.838817
26.009366
26.252822
26.839261
27.497116
33.133679
25.623034
26.634971
26.552799
26.567415
26.613674
26.753413
26.955297
27.5063
28.130469
33.920492
25.680198
26.552797
26.405808
26.382067
26.402444
26.526259
26.714445
27.272649
27.906615
33.800667
25.753854
26.56741
26.382065
26.329601
26.330992
26.444461
26.62843
27.197451
27.852079
33.804164
25.83881
26.613668
26.402441
26.330991
26.321413
26.430847
26.616904
27.198828
27.873581
33.864801
26.00936
26.753408
26.526256
26.44446
26.430847
26.540446
26.730851
27.323407
28.01425
34.036356
26.252817
26.955294
26.714443
26.62843
26.616905
26.730852
26.928646
27.532065
28.242715
34.306175
26.839258
27.506299
27.272649
27.197453
27.198832
27.32341
27.532067
28.143225
28.864898
34.965431
27.497115
28.130469
27.906618
27.852084
27.873586
28.014255
28.24272
28.864901
29.632402
35.802926
33.13368
33.920494
33.800671
33.80417
33.864808
34.036362
34.306181
34.965434
35.802928
41.901042
24.97115
25.732228
25.801283
25.879928
25.968556
26.143811
26.394688
26.994703
27.634733
31.951493
25.732227
26.46102
26.436941
26.470793
26.528633
26.679543
26.896949
27.470133
28.081111
32.446529
25.801279
26.436938
26.362219
26.364311
26.400088
26.537667
26.743007
27.32304
27.935229
32.369201
25.879922
26.470789
26.364309
26.341245
26.360013
26.488198
26.689164
27.277969
27.90444
32.381376
25.968548
26.528627
26.400084
26.360012
26.368799
26.493254
26.695864
27.295925
27.938548
32.446394
26.143804
26.679538
26.537664
26.488197
26.493254
26.617876
26.824531
27.434275
28.090399
32.622667
26.394683
26.896945
26.743005
26.689164
26.695866
26.824532
27.038486
27.658929
28.333385
32.899218
26.9947
27.470132
27.32304
27.277972
27.295929
27.434279
27.658931
28.287644
28.973261
33.568374
27.634732
28.081112
27.935231
27.904445
27.938554
28.090405
28.333389
28.973263
29.707654
34.357316
31.951494
32.446531
32.369205
32.381382
32.446401
32.622674
32.899224
33.568378
34.357317
38.946225
25.420158
25.829871
25.898989
25.98313
26.075793
26.2559
26.510646
27.116195
27.695265
30.910784
25.829869
26.310829
26.328615
26.382615
26.452197
26.614184
26.842512
27.428619
27.974324
31.154402
25.898985
26.328612
26.311649
26.341323
26.393133
26.544712
26.762639
27.355165
27.893725
31.114662
25.983123
26.38261
26.341321
26.349945
26.387051
26.530365
26.743729
27.342801
27.888928
31.13834
26.075786
26.452191
26.393129
26.38705
26.415359
26.55534
26.769853
27.378387
27.936368
31.208785
26.255892
26.614178
26.544708
26.530364
26.55534
26.69549
26.913653
27.530743
28.099325
31.38989
26.51064
26.842508
26.762638
26.74373
26.769855
26.913655
27.138929
27.766394
28.351702
31.668854
27.116192
27.428617
27.355166
27.342804
27.378391
27.530747
27.766397
28.40247
28.998685
32.337425
27.695264
27.974325
27.893728
27.888933
27.936374
28.099332
28.351707
28.998687
29.644618
33.027783
30.910785
31.154404
31.114666
31.138346
31.208792
31.389897
31.66886
32.337429
33.027784
36.413979
25.643864
25.885153
25.94893
26.034033
26.129561
26.311603
26.564255
27.149937
27.661608
30.111662
25.885151
26.215318
26.25473
26.321075
26.39967
26.568309
26.799344
27.369458
27.839957
30.20768
25.948926
26.254727
26.271871
26.320249
26.384807
26.545453
26.767325
27.342851
27.800546
30.192907
26.034026
26.32107
26.320246
26.351394
26.403438
26.556904
26.774116
27.354235
27.81429
30.224445
26.129553
26.399663
26.384803
26.403437
26.447838
26.598373
26.816309
27.404266
27.87265
30.299765
26.311595
26.568302
26.545449
26.556903
26.598373
26.749077
26.970262
27.565678
28.042253
30.482794
26.564249
26.799339
26.767323
26.774117
26.816311
26.970264
27.198249
27.803539
28.295387
30.757612
27.149933
27.369456
27.342851
27.354238
27.40427
27.565682
27.803542
28.417465
28.920044
31.39921
27.661607
27.839958
27.800549
27.814296
27.872657
28.042259
28.295392
28.920047
29.471142
31.991723
30.111663
30.207683
30.192912
30.224451
30.299773
30.482802
30.757619
31.399214
31.991725
34.590686
25.753896
25.91503
25.973198
26.056442
26.153492
26.334251
26.57987
27.127176
27.575242
29.462593
25.915028
26.154135
26.203993
26.276664
26.361619
26.532524
26.759933
27.293363
27.694168
29.477269
25.973193
26.20399
26.240589
26.300436
26.374493
26.539323
26.758514
27.296097
27.680537
29.477644
26.056435
26.276659
26.300433
26.346459
26.410018
26.568675
26.783203
27.323733
27.706583
29.513617
26.153483
26.361612
26.374488
26.410017
26.467021
26.623129
26.838026
27.384964
27.773305
29.592604
26.334243
26.532518
26.539319
26.568673
26.62313
26.779404
26.997162
27.550553
27.945132
29.774311
26.579864
26.759928
26.758512
26.783203
26.838028
26.997163
27.221323
27.784003
28.192506
30.039862
27.127172
27.293361
27.296098
27.323736
27.384969
27.550557
27.784005
28.355227
28.774477
30.636619
27.575241
27.694169
27.68054
27.706589
27.773312
27.945139
28.192511
28.774479
29.240109
31.144376
29.462594
29.477272
29.477649
29.513624
29.592613
29.774319
30.039869
30.636623
31.144377
33.181104
25.818481
25.933666
25.986883
26.067279
26.164617
26.341269
26.576201
27.075509
27.463238
28.912963
25.933664
26.111829
26.166077
26.241571
26.330595
26.500116
26.719459
27.205835
27.543207
28.881251
25.986878
26.166074
26.213405
26.280142
26.360881
26.525861
26.737791
27.227032
27.546006
28.890024
26.067271
26.241565
26.28014
26.336027
26.408094
26.567817
26.775151
27.265911
27.580358
28.928334
26.164608
26.330588
26.360877
26.408092
26.474612
26.632143
26.839548
27.335418
27.653099
29.009572
26.34126
26.500109
26.525857
26.567816
26.632144
26.789836
26.999734
27.501126
27.823488
29.187112
26.576194
26.719454
26.737789
26.775151
26.83955
26.999736
27.215602
27.725658
28.060746
29.439858
27.075505
27.205833
27.227032
27.265914
27.335423
27.501131
27.725661
28.244091
28.589986
29.983245
27.463237
27.543207
27.546009
27.580363
27.653106
27.823495
28.060751
28.589989
28.97992
30.416978
28.912964
28.881253
28.890029
28.928341
29.009581
29.187121
29.439865
29.983249
30.41698
32.015848
25.860558
25.946236
25.995192
26.072414
26.168878
26.339018
26.560455
27.007542
27.338568
28.444699
25.946234
26.080842
26.135743
26.211774
26.302782
26.467867
26.675886
27.110773
27.391187
28.387053
25.995187
26.13574
26.187956
26.258326
26.343167
26.504922
26.706257
27.142832
27.403973
28.399632
26.072407
26.211769
26.258323
26.320344
26.39812
26.555436
26.752299
27.189192
27.443703
28.438846
26.168869
26.302775
26.343163
26.398119
26.471256
26.6267
26.823389
27.264241
27.520213
28.520838
26.33901
26.46786
26.504917
26.555434
26.626701
26.782296
26.98114
27.426675
27.686097
28.691791
26.560448
26.675881
26.706255
26.752299
26.823391
26.981142
27.1855
27.639075
27.910113
28.929254
27.007538
27.11077
27.142832
27.189195
27.264246
27.426679
27.639078
28.100863
28.382827
29.416108
27.338567
27.391188
27.403977
27.443709
27.52022
27.686105
27.910118
28.38283
28.706309
29.784809
28.4447
28.387055
28.399637
28.438853
28.520847
28.691799
28.929261
29.416113
29.784811
31.03597
25.887848
25.95401
25.999374
26.073245
26.167733
26.32939
26.535265
26.929163
27.208147
28.046009
25.954008
26.056585
26.109785
26.184657
26.275751
26.433895
26.628235
27.010711
27.241103
27.975563
25.999369
26.109782
26.162852
26.23429
26.320876
26.476615
26.664958
27.048125
27.259271
27.988903
26.073237
26.184651
26.234287
26.299406
26.380295
26.532303
26.716355
27.098874
27.302006
28.027876
26.167724
26.275744
26.320871
26.380293
26.45734
26.607758
26.791441
27.176924
27.380165
28.109142
26.329381
26.433888
26.476611
26.532301
26.607758
26.758318
26.943851
27.333287
27.539032
28.271531
26.535258
26.62823
26.664955
26.716356
26.791442
26.943852
27.134441
27.531312
27.747648
28.492019
26.929159
27.010709
27.048125
27.098877
27.176929
27.333292
27.531315
27.936241
28.163605
28.92234
27.208146
27.241104
27.259274
27.302012
27.380172
27.539039
27.747654
28.163608
28.429834
29.234425
28.04601
27.975566
27.988908
28.027884
28.109151
28.27154
28.492026
28.922345
29.234427
30.210196
25.904237
25.957116
25.999447
26.06982
26.161326
26.312978
26.501929
26.843951
27.076165
27.705533
25.957114
26.035564
26.085653
26.158085
26.247601
26.396862
26.575958
26.907495
27.094779
27.630645
25.999442
26.08565
26.136899
26.207392
26.293645
26.441191
26.614944
26.946382
27.115125
27.642838
26.069812
26.158079
26.207389
26.273143
26.354833
26.499247
26.668938
26.998991
27.158947
27.680635
26.161317
26.247593
26.293641
26.354831
26.433358
26.576421
26.745597
27.07778
27.236851
27.759808
26.312969
26.396855
26.441187
26.499245
26.576422
26.719615
26.890374
27.225886
27.386755
27.912108
26.501922
26.575953
26.614942
26.668938
26.745599
26.890376
27.06575
27.408123
27.578645
28.114622
26.843946
26.907492
26.946382
26.998994
27.077785
27.225891
27.408126
27.758385
27.939961
28.490525
27.076164
27.094779
27.115128
27.158953
27.236859
27.386762
27.578651
27.939964
28.157664
28.753769
27.705533
27.630647
27.642843
27.680643
27.759817
27.912117
28.114629
28.490529
28.753771
29.511898
25.911805
25.95523
25.994916
26.061644
26.149294
26.28986
26.461172
26.754214
26.945086
27.413048
25.955228
26.015056
26.061256
26.130298
26.216834
26.355812
26.518801
26.802469
26.95311
27.338803
25.994912
26.061253
26.109002
26.177012
26.261182
26.398942
26.557215
26.840207
26.973489
27.348768
26.061637
26.130292
26.177009
26.241464
26.321982
26.457109
26.611587
26.892672
27.016883
27.384654
26.149285
26.216826
26.261178
26.32198
26.399898
26.533875
26.687738
26.970269
27.092904
27.460548
26.289851
26.355805
26.398938
26.457107
26.533875
26.667967
26.823187
27.108524
27.232446
27.601683
26.461165
26.518796
26.557213
26.611587
26.68774
26.823189
26.982608
27.274265
27.40698
27.785818
26.754209
26.802466
26.840207
26.892675
26.970274
27.108528
27.274268
27.573617
27.717304
28.110811
26.945085
26.95311
26.973492
27.016889
27.092912
27.232454
27.406986
27.717307
27.894331
28.332143
27.413049
27.338806
27.348773
27.384662
27.460557
27.601692
27.785825
28.110815
28.332145
28.918534
25.911419
25.947794
25.985061
26.047993
26.131045
26.259865
26.413378
26.661342
26.816191
27.159872
25.947792
25.992981
26.034918
26.099883
26.182307
26.310097
26.456699
26.696536
26.816367
27.089219
25.985056
26.034915
26.078193
26.142587
26.223258
26.350174
26.492664
26.731442
26.835403
27.096457
26.047986
26.099878
26.142584
26.204269
26.281999
26.406693
26.545683
26.782223
26.877206
27.129881
26.131036
26.1823
26.223253
26.281998
26.357584
26.48129
26.619606
26.857048
26.950012
27.201523
26.259856
26.31009
26.35017
26.406691
26.48129
26.605098
26.744582
26.984397
27.078293
27.330835
26.413371
26.456694
26.492661
26.545683
26.619608
26.744584
26.887879
27.133508
27.235402
27.496674
26.661338
26.696533
26.731443
26.782226
26.857053
26.984402
27.133511
27.386602
27.499264
27.775081
26.816189
26.816367
26.835406
26.877212
26.950019
27.0783
27.235408
27.499267
27.642467
27.960569
27.159873
27.089221
27.096462
27.129888
27.201532
27.330844
27.496682
27.775086
27.960571
28.411858
25.903287
25.93419
25.969133
26.028116
26.105977
26.22276
26.358783
26.566116
26.689995
26.938673
25.934188
25.96775
26.005312
26.065727
26.143166
26.259298
26.389702
26.590229
26.684408
26.873201
25.969128
26.005309
26.043644
26.103626
26.179704
26.295191
26.422059
26.621317
26.701281
26.877609
26.028109
26.065721
26.103624
26.161468
26.235146
26.348741
26.472424
26.669274
26.740633
26.90818
26.105968
26.143158
26.1797
26.235144
26.307039
26.419778
26.542764
26.740096
26.809186
26.974829
26.222751
26.259291
26.295187
26.348739
26.419778
26.532606
26.656604
26.855957
26.925741
27.092033
26.358776
26.389696
26.422056
26.472424
26.542765
26.656606
26.784055
26.988748
27.065795
27.240045
26.566112
26.590227
26.621317
26.669277
26.740101
26.855962
26.98875
27.200632
27.28812
27.476571
26.689994
26.684408
26.701284
26.740639
26.809193
26.925748
27.0658
27.288123
27.403378
27.631493
26.938673
26.873203
26.877614
26.908187
26.974839
27.092042
27.240053
27.476575
27.631495
27.976981
25.887353
25.913852
25.946487
26.001375
26.073606
26.178377
26.297584
26.468943
26.566543
26.743233
25.91385
25.938149
25.971389
26.026958
26.098787
26.20316
26.317921
26.483802
26.55682
26.683672
25.946482
25.971386
26.004665
26.05972
26.130412
26.234282
26.34605
26.51059
26.571107
26.685399
26.001367
26.026952
26.059717
26.112993
26.181685
26.283928
26.392836
26.55493
26.607406
26.712871
26.073597
26.098779
26.130407
26.181683
26.24887
26.350363
26.458579
26.620845
26.670952
26.774015
26.178368
26.203153
26.234277
26.283927
26.350363
26.451933
26.561034
26.725036
26.775686
26.879142
26.297577
26.317915
26.346047
26.392836
26.458581
26.561036
26.673259
26.842153
26.899383
27.010091
26.468939
26.4838
26.51059
26.554933
26.620849
26.725041
26.842156
27.01792
27.085153
27.209512
26.566542
26.55682
26.57111
26.607412
26.670959
26.775694
26.899388
27.085156
27.177448
27.338443
26.743234
26.683675
26.685404
26.712878
26.774024
26.879151
27.010099
27.209517
27.338445
27.601514
25.863484
25.886323
25.916614
25.967292
26.033606
26.126654
26.23
26.370002
26.445589
26.568291
25.886321
25.903265
25.932351
25.98292
26.048737
26.141549
26.241497
26.377299
26.433021
26.514833
25.916609
25.932348
25.960688
26.010536
26.075324
26.167716
26.265174
26.399671
26.444582
26.514169
25.967284
25.982915
26.010534
26.058804
26.121879
26.212858
26.30778
26.439895
26.477447
26.538426
26.033597
26.048729
26.07532
26.121878
26.183661
26.273971
26.368229
26.500296
26.535491
26.593764
26.126645
26.141542
26.167712
26.212856
26.273971
26.364348
26.459389
26.592963
26.628611
26.68711
26.229992
26.241492
26.265171
26.30778
26.368231
26.459391
26.557252
26.695295
26.736886
26.801978
26.369998
26.377296
26.399672
26.439898
26.500301
26.592968
26.695298
26.839851
26.890911
26.968934
26.445588
26.433022
26.444585
26.477453
26.535499
26.628619
26.736892
26.890914
26.964428
27.075824
26.568292
26.514836
26.514174
26.538434
26.593773
26.687119
26.801986
26.968938
27.075826
27.275053
25.831561
25.851279
25.879174
25.925568
25.98582
26.067641
26.15628
26.269339
26.326723
26.409419
25.851277
25.862423
25.887595
25.933137
25.99274
26.074427
26.160586
26.27062
26.31234
26.361922
25.879169
25.887592
25.911273
25.955827
26.014434
26.095744
26.179871
26.288715
26.321228
26.359235
25.92556
25.933131
25.955824
25.998896
26.055992
26.136059
26.217966
26.324566
26.350464
26.380269
25.985811
25.992733
26.014429
26.05599
26.111953
26.191418
26.272706
26.379113
26.402745
26.429694
26.067632
26.07442
26.095739
26.136058
26.191418
26.270941
26.352928
26.460657
26.484692
26.511761
26.156273
26.160581
26.179868
26.217966
26.272707
26.35293
26.43746
26.549259
26.578643
26.61168
26.269334
26.270618
26.288715
26.324569
26.379118
26.460662
26.549262
26.667171
26.705416
26.750533
26.326722
26.312341
26.321232
26.35047
26.402752
26.484699
26.578649
26.705419
26.763643
26.838789
26.40942
26.361924
26.359241
26.380277
26.429704
26.51177
26.611688
26.750538
26.838791
26.98885
25.79152
25.808519
25.833977
25.876066
25.930244
26.001491
26.076703
26.166914
26.209445
26.262914
25.808517
25.815153
25.836694
25.877285
25.930649
26.001824
26.075342
26.163571
26.194075
26.221046
25.833972
25.836691
25.856093
25.895422
25.947777
26.018595
26.09049
26.177694
26.200468
26.21673
25.876058
25.877279
25.895419
25.933292
25.984277
26.053991
26.123967
26.209115
26.22603
26.234624
25.930235
25.930642
25.947772
25.984276
26.034246
26.103411
26.172822
26.257693
26.272486
26.278193
26.001482
26.001817
26.01859
26.05399
26.103412
26.172625
26.242668
26.328709
26.34388
26.349641
26.076695
26.075336
26.090487
26.123967
26.172824
26.24267
26.315002
26.404734
26.424701
26.435834
26.16691
26.163569
26.177695
26.209118
26.257697
26.328714
26.404737
26.50015
26.528318
26.550592
26.209443
26.194075
26.200472
26.226036
26.272494
26.343888
26.424707
26.528321
26.574147
26.623142
26.262914
26.221048
26.216735
26.234632
26.278203
26.349651
26.435842
26.550597
26.623144
26.735558
25.743364
25.757966
25.78097
25.81879
25.867001
25.928436
25.991565
26.062645
26.09323
26.125696
25.757964
25.761152
25.779372
25.815178
25.862422
25.923823
25.985912
26.055901
26.077518
26.089036
25.780965
25.779369
25.794932
25.829225
25.875428
25.93648
25.997307
26.066461
26.081678
26.083472
25.818782
25.815172
25.829222
25.862052
25.906985
25.967047
26.026234
26.093549
26.103647
26.098384
25.866991
25.862414
25.875424
25.906983
25.95099
26.010549
26.069232
26.136229
26.144382
26.136291
25.928427
25.923816
25.936475
25.967046
26.010549
26.070149
26.129406
26.197448
26.205966
26.19789
25.991557
25.985907
25.997304
26.026234
26.069234
26.129408
26.190723
26.262096
26.274895
26.271625
26.06264
26.055899
26.066461
26.093552
26.136234
26.197453
26.262099
26.338707
26.359016
26.365895
26.093228
26.077519
26.081682
26.103653
26.14439
26.205974
26.274901
26.359019
26.394834
26.425253
26.125697
26.089039
26.083477
26.098392
26.136301
26.197899
26.271633
26.3659
26.425255
26.509017
25.687176
25.699648
25.720214
25.753861
25.796312
25.848769
25.90117
25.956424
25.977551
25.995235
25.699646
25.70026
25.715483
25.746737
25.7881
25.840546
25.892438
25.947333
25.962001
25.963318
25.720208
25.71548
25.727667
25.757206
25.797495
25.849593
25.900533
25.954791
25.964232
25.95686
25.753853
25.746731
25.757203
25.78526
25.824352
25.875559
25.925113
25.977762
25.982781
25.969004
25.796302
25.788092
25.79749
25.82435
25.862586
25.913327
25.962442
26.014764
26.018031
26.001551
25.848759
25.840538
25.849588
25.875557
25.913327
25.964104
26.013743
26.067003
26.070628
26.054139
25.901162
25.892432
25.90053
25.925113
25.962444
26.013745
26.065226
26.121479
26.128908
26.116689
25.95642
25.94733
25.954791
25.977765
26.014769
26.067008
26.121482
26.182511
26.196748
26.193672
25.97755
25.962001
25.964235
25.982787
26.018039
26.070636
26.128914
26.196751
26.224519
26.241991
25.995236
25.963321
25.956866
25.969012
26.001561
26.054149
26.116697
26.193677
26.241993
26.304073
25.623104
25.633681
25.651863
25.681491
25.718473
25.762818
25.805819
25.848139
25.861909
25.869462
25.633679
25.632438
25.644989
25.671979
25.707791
25.752139
25.795045
25.837583
25.846901
25.841813
25.651858
25.644985
25.654262
25.679394
25.714107
25.758112
25.800327
25.842417
25.847521
25.834783
25.681482
25.671973
25.679391
25.703027
25.736605
25.779803
25.820862
25.86157
25.862894
25.844412
25.718463
25.707783
25.714103
25.736603
25.769381
25.812149
25.852829
25.893227
25.892996
25.871981
25.762808
25.752131
25.758107
25.779801
25.812149
25.854945
25.896107
25.937349
25.937469
25.916431
25.805811
25.79504
25.800325
25.820862
25.852831
25.896109
25.938915
25.98283
25.986313
25.969039
25.848134
25.83758
25.842418
25.861573
25.893232
25.937354
25.982833
26.031066
26.040661
26.031536
25.861907
25.846901
25.847525
25.862901
25.893004
25.937478
25.986319
26.040664
26.061995
26.070655
25.869462
25.841815
25.834788
25.84442
25.871991
25.916441
25.969047
26.031541
26.070657
26.116425
25.551366
25.560259
25.576147
25.601957
25.633828
25.670934
25.705799
25.737676
25.745839
25.746693
25.560256
25.557739
25.567939
25.590993
25.62165
25.65877
25.693852
25.726378
25.731653
25.722855
25.576142
25.567935
25.574751
25.595864
25.625418
25.6622
25.696807
25.729057
25.730979
25.715531
25.601949
25.590986
25.595861
25.615483
25.643955
25.680007
25.71366
25.744746
25.743467
25.722924
25.633818
25.621642
25.625413
25.643954
25.671678
25.707331
25.740664
25.771468
25.768826
25.745951
25.670924
25.658762
25.662195
25.680006
25.707331
25.743009
25.776783
25.808347
25.806048
25.78314
25.705791
25.693846
25.696804
25.71366
25.740666
25.776785
25.812019
25.845959
25.846614
25.827002
25.737671
25.726375
25.729058
25.744749
25.771473
25.808352
25.845962
25.883769
25.88986
25.877437
25.745837
25.731653
25.730983
25.743473
25.768835
25.806056
25.84662
25.889863
25.906075
25.908922
25.746693
25.722858
25.715537
25.722932
25.745961
25.78315
25.82701
25.877442
25.908924
25.942487
25.472224
25.479629
25.493347
25.515586
25.542746
25.573468
25.60138
25.624931
25.628924
25.625573
25.479627
25.476296
25.484454
25.503923
25.529869
25.560611
25.588962
25.613462
25.615754
25.605118
25.493342
25.484451
25.489227
25.506734
25.531589
25.562005
25.590054
25.614428
25.614085
25.597735
25.515577
25.503917
25.506731
25.522771
25.546601
25.576357
25.603626
25.627035
25.624004
25.603182
25.542736
25.529861
25.531584
25.546599
25.569728
25.599118
25.626121
25.649285
25.645073
25.622133
25.573458
25.560603
25.562
25.576356
25.599118
25.628528
25.655933
25.679781
25.675898
25.65292
25.601372
25.588956
25.590051
25.603626
25.626123
25.655935
25.684633
25.710577
25.709276
25.689161
25.624926
25.61346
25.614428
25.627039
25.64929
25.679786
25.710581
25.739957
25.743447
25.729612
25.628922
25.615754
25.614088
25.624011
25.645082
25.675906
25.709283
25.743451
25.755616
25.754794
25.625573
25.60512
25.597741
25.60319
25.622144
25.65293
25.689169
25.729618
25.754797
25.779277
25.385986
25.392085
25.403783
25.422726
25.445609
25.470765
25.492807
25.509808
25.510794
25.505015
25.392083
25.388302
25.394711
25.410958
25.43266
25.457841
25.480468
25.498606
25.498762
25.487549
25.403778
25.394708
25.397831
25.412148
25.432792
25.457664
25.480123
25.498257
25.49637
25.480301
25.422717
25.410952
25.412145
25.425044
25.444722
25.469001
25.49083
25.508178
25.50405
25.484091
25.445599
25.432652
25.432787
25.44472
25.463745
25.487687
25.509299
25.52644
25.5213
25.499445
25.470755
25.457833
25.457659
25.468999
25.487687
25.511646
25.533623
25.551377
25.546548
25.524651
25.492799
25.480462
25.480121
25.49083
25.509301
25.533625
25.55674
25.576333
25.573746
25.554316
25.509803
25.498603
25.498258
25.508181
25.526446
25.551383
25.576336
25.598948
25.600546
25.586552
25.510792
25.498762
25.496373
25.504057
25.521309
25.546557
25.573752
25.60055
25.609541
25.606555
25.505016
25.487552
25.480306
25.4841
25.499456
25.524661
25.554324
25.586557
25.606557
25.624312
25.292982
25.297945
25.307794
25.323738
25.342791
25.36315
25.380297
25.392218
25.391124
25.384157
25.297943
25.293989
25.298922
25.312314
25.330244
25.350633
25.368449
25.381603
25.380294
25.369321
25.307788
25.298919
25.300735
25.312274
25.329197
25.349298
25.367049
25.380293
25.377419
25.36236
25.32373
25.312307
25.312271
25.32246
25.338484
25.358053
25.375299
25.387913
25.383186
25.364775
25.342781
25.330236
25.329192
25.338482
25.353899
25.373162
25.390234
25.40268
25.397092
25.377004
25.36314
25.350625
25.349293
25.358051
25.373162
25.392439
25.40984
25.422833
25.417534
25.397401
25.380289
25.368443
25.367046
25.3753
25.390236
25.409842
25.428239
25.442833
25.439469
25.421444
25.392213
25.3816
25.380293
25.387917
25.402685
25.422838
25.442836
25.460061
25.460321
25.446958
25.391123
25.380294
25.377422
25.383193
25.397101
25.417543
25.439475
25.460324
25.466846
25.462729
25.384158
25.369324
25.362366
25.364784
25.377014
25.397411
25.421453
25.446963
25.462731
25.475532
25.193557
25.197544
25.205724
25.218981
25.234648
25.250921
25.264041
25.272084
25.269635
25.262316
25.197541
25.193621
25.197326
25.20822
25.222846
25.239153
25.252974
25.262273
25.26002
25.249786
25.205719
25.197323
25.198134
25.207289
25.220974
25.237015
25.250846
25.260303
25.256868
25.243227
25.218972
25.208214
25.207285
25.215177
25.228032
25.243601
25.257033
25.265992
25.261034
25.244531
25.234638
25.222838
25.220968
25.22803
25.240329
25.255622
25.268915
25.277742
25.272058
25.254087
25.250911
25.239144
25.23701
25.243599
25.255622
25.270926
25.284514
25.293825
25.288406
25.270389
25.264033
25.252968
25.250843
25.257033
25.268917
25.284516
25.298969
25.309664
25.305903
25.289674
25.272079
25.26227
25.260303
25.265996
25.277747
25.29383
25.309667
25.322636
25.321986
25.309717
25.269633
25.26002
25.256871
25.261041
25.272067
25.288414
25.30591
25.321989
25.32661
25.32205
25.262316
25.249789
25.243233
25.24454
25.254098
25.270399
25.289682
25.309722
25.322052
25.33122
25.088061
25.091216
25.097917
25.108796
25.121513
25.134346
25.144195
25.149331
25.146081
25.138953
25.091214
25.087474
25.090175
25.098913
25.110683
25.123552
25.134098
25.140457
25.13766
25.128437
25.097912
25.090172
25.090238
25.097375
25.108281
25.120911
25.131518
25.138079
25.134401
25.122363
25.108788
25.098906
25.097372
25.103348
25.113497
25.125711
25.136005
25.142179
25.137257
25.122796
25.121503
25.110674
25.108276
25.113495
25.12314
25.135106
25.145292
25.151365
25.145836
25.130105
25.134335
25.123543
25.120906
25.125709
25.135106
25.147081
25.157529
25.164027
25.158737
25.142958
25.144186
25.134092
25.131515
25.136005
25.145294
25.157531
25.168725
25.176411
25.17253
25.158255
25.149326
25.140454
25.138079
25.142183
25.151371
25.164033
25.176415
25.186048
25.184814
25.173873
25.146079
25.13766
25.134404
25.137263
25.145845
25.158745
25.172537
25.184817
25.187991
25.183431
25.138953
25.128439
25.122369
25.122804
25.130115
25.142969
25.158264
25.173879
25.183433
25.18995
24.976833
24.979291
24.984699
24.993506
25.003685
25.013656
25.020887
25.023891
25.020254
25.013645
24.979289
24.975826
24.977721
24.984624
24.993959
25.003968
25.011864
25.016017
25.012974
25.004879
24.984694
24.977718
24.977258
24.982715
24.991269
25.001066
25.009056
25.013435
25.009744
24.999344
24.993497
24.984618
24.982711
24.987117
24.994992
25.004425
25.012171
25.016255
25.011553
24.99912
25.003675
24.993951
24.991264
24.99499
25.002412
25.011626
25.019289
25.023298
25.018092
25.004571
25.013646
25.00396
25.001061
25.004423
25.011626
25.020847
25.02874
25.03312
25.028125
25.014558
25.020879
25.011858
25.009053
25.012171
25.019291
25.028742
25.037275
25.042665
25.038861
25.026546
25.023885
25.016014
25.013436
25.016259
25.023303
25.033125
25.042669
25.049711
25.048139
25.038606
25.020253
25.012974
25.009747
25.01156
25.018101
25.028134
25.038868
25.048142
25.05023
25.045938
25.013646
25.004882
24.99935
24.999129
25.004582
25.014568
25.026555
25.038612
25.045941
25.050531
24.860199
24.862079
24.866375
24.873401
24.881428
24.889049
24.894216
24.895696
24.891972
24.886059
24.862077
24.858949
24.860211
24.865574
24.872862
24.880522
24.886303
24.888833
24.885758
24.878808
24.86637
24.860208
24.8594
24.863479
24.870074
24.877549
24.883441
24.886206
24.882661
24.873838
24.873393
24.865568
24.863476
24.866619
24.872611
24.879771
24.885476
24.888018
24.883658
24.873144
24.881418
24.872854
24.870069
24.872609
24.878199
24.885167
24.890809
24.893298
24.888523
24.877086
24.889039
24.880513
24.877544
24.879769
24.885167
24.89214
24.897983
24.900791
24.8962
24.884718
24.894207
24.886297
24.883438
24.885477
24.890811
24.897985
24.904372
24.908033
24.904438
24.893991
24.89569
24.88883
24.886206
24.888021
24.893303
24.900797
24.908036
24.913086
24.911357
24.903209
24.89197
24.885759
24.882664
24.883665
24.888531
24.896209
24.904444
24.91136
24.912648
24.90877
24.88606
24.87881
24.873844
24.873152
24.877097
24.884729
24.893999
24.903215
24.908773
24.911971
24.738459
24.739867
24.743223
24.748741
24.754969
24.760685
24.764252
24.764679
24.761075
24.755931
24.739865
24.737102
24.737877
24.741967
24.747559
24.753313
24.757434
24.758797
24.75584
24.749982
24.743217
24.737874
24.73686
24.739829
24.744815
24.750411
24.754649
24.756242
24.752949
24.745584
24.748732
24.74196
24.739826
24.741974
24.746433
24.751759
24.755854
24.757282
24.753336
24.744576
24.754958
24.74755
24.74481
24.746431
24.750538
24.755698
24.759746
24.761137
24.756851
24.747318
24.760675
24.753305
24.750406
24.751757
24.755698
24.760862
24.765082
24.766747
24.762619
24.753043
24.764243
24.757427
24.754646
24.755855
24.759748
24.765085
24.769764
24.772142
24.76884
24.76011
24.764673
24.758794
24.756242
24.757286
24.761143
24.766753
24.772145
24.77568
24.773923
24.767075
24.761073
24.75584
24.752953
24.753343
24.75686
24.762628
24.768847
24.773926
24.774637
24.771239
24.755932
24.749984
24.74559
24.744585
24.747329
24.753053
24.760119
24.767081
24.771242
24.773438
24.611886
24.612915
24.615488
24.619747
24.624493
24.628689
24.631038
24.630771
24.627422
24.62305
24.612913
24.610518
24.610931
24.613984
24.618191
24.622424
24.625261
24.62581
24.623068
24.618213
24.615482
24.610928
24.609817
24.611908
24.615595
24.619693
24.622646
24.623412
24.620433
24.614375
24.619739
24.613977
24.611905
24.613287
24.616519
24.620389
24.623234
24.623879
24.62038
24.613184
24.624483
24.618183
24.61559
24.616517
24.619444
24.623171
24.625982
24.626603
24.622828
24.61499
24.628678
24.622415
24.619688
24.620387
24.623171
24.626902
24.629859
24.630711
24.62707
24.619191
24.631029
24.625254
24.622643
24.623234
24.625984
24.629861
24.633202
24.634645
24.631683
24.62449
24.630766
24.625807
24.623412
24.623882
24.626608
24.630717
24.634649
24.637046
24.635351
24.629683
24.62742
24.623068
24.620437
24.620386
24.622837
24.627079
24.63169
24.635354
24.635659
24.632754
24.623051
24.618216
24.614381
24.613193
24.615001
24.619202
24.624499
24.629689
24.632756
24.634238
24.48072
24.48145
24.483381
24.486607
24.49015
24.49315
24.494594
24.4939
24.490884
24.487244
24.481448
24.47941
24.479561
24.481784
24.484879
24.487913
24.489777
24.489781
24.487312
24.483351
24.483376
24.479558
24.478433
24.479843
24.482497
24.485419
24.487393
24.487594
24.48496
24.480047
24.486599
24.481777
24.479839
24.480647
24.482914
24.485645
24.487538
24.487652
24.484607
24.478774
24.49014
24.48487
24.482491
24.482912