/*--------------------------------*- C++ -*----------------------------------*\
| =========                 |                                                 |
| \\      /  F ield         | OpenFOAM: The Open Source CFD Toolbox           |
|  \\    /   O peration     | Version:  dev                                   |
|   \\  /    A nd           | Web:      www.OpenFOAM.org                      |
|    \\/     M anipulation  |                                                 |
\*---------------------------------------------------------------------------*/
FoamFile
{
    version     2.0;
    format      ascii;
    class       volVectorField;
    location    "1";
    object      U;
}
// * * * * * * * * * * * * * * * * * * * * * * * * * * * * * * * * * * * * * //

dimensions      [0 1 -1 0 0 0 0];

internalField   nonuniform List<vector> 
10000
(
(0.069651429 0.069651431 0.078660549)
(0.078823279 0.076121251 0.087571713)
(0.082505722 0.076882811 0.088116653)
(0.082682492 0.077076362 0.088136134)
(0.082198738 0.077201254 0.088149847)
(0.08126593 0.077282075 0.088150364)
(0.079375696 0.077392583 0.088225204)
(0.076872412 0.077320069 0.088237901)
(0.065137963 0.077376358 0.089630395)
(0.062474085 0.072578513 0.094585592)
(0.076121248 0.078823284 0.087571714)
(0.087488716 0.087488721 0.098446591)
(0.091900319 0.089058964 0.099169898)
(0.091957787 0.08964049 0.099235967)
(0.091105848 0.089963025 0.09928186)
(0.089608525 0.090162927 0.099307335)
(0.086819668 0.090310714 0.099428503)
(0.083135721 0.090187303 0.099481844)
(0.068685469 0.089278914 0.10102773)
(0.064271472 0.080696876 0.10533104)
(0.076882809 0.082505728 0.088116655)
(0.089058959 0.091900325 0.099169899)
(0.093562667 0.093562674 0.099898463)
(0.093536796 0.094188465 0.09997368)
(0.092487513 0.094510012 0.10002542)
(0.090721748 0.094667895 0.10005276)
(0.087561348 0.094689678 0.10017749)
(0.083489569 0.094347586 0.10022061)
(0.068472929 0.092967434 0.10175388)
(0.064034525 0.083456371 0.10586937)
(0.07707636 0.082682497 0.088136137)
(0.089640485 0.091957791 0.09923597)
(0.094188459 0.0935368 0.099973681)
(0.094105603 0.094105608 0.10005591)
(0.09292817 0.094370698 0.10011143)
(0.091003279 0.094471075 0.10014017)
(0.087649106 0.09441337 0.10026575)
(0.083396806 0.094006756 0.10030315)
(0.068203085 0.092532519 0.10182535)
(0.063904279 0.083143195 0.10588039)
(0.077201252 0.082198739 0.088149851)
(0.089963019 0.09110585 0.099281862)
(0.094510005 0.092487514 0.10002542)
(0.094370693 0.092928171 0.10011143)
(0.093098599 0.093098601 0.10016827)
(0.091067025 0.093131179 0.10019689)
(0.087593765 0.09302706 0.10032166)
(0.08324053 0.092636599 0.10035387)
(0.06797265 0.091280393 0.10186927)
(0.063792677 0.082351991 0.10588944)
(0.077282073 0.081265927 0.088150367)
(0.090162922 0.089608523 0.099307338)
(0.094667888 0.090721745 0.10005276)
(0.09447107 0.091003276 0.10014017)
(0.093131178 0.091067022 0.10019689)
(0.091034459 0.091034457 0.1002255)
(0.087493413 0.090905423 0.10035039)
(0.083082821 0.09057626 0.1003812)
(0.067773022 0.089434265 0.10189472)
(0.063711931 0.081170109 0.10589002)
(0.077392581 0.079375691 0.088225206)
(0.090310708 0.086819663 0.099428505)
(0.094689672 0.087561343 0.10017749)
(0.094413365 0.087649101 0.10026575)
(0.093027058 0.08759376 0.10032165)
(0.090905425 0.087493408 0.10035039)
(0.087342302 0.087342297 0.10047559)
(0.082896785 0.087094395 0.10050695)
(0.067533984 0.086244135 0.1020179)
(0.063588295 0.078970697 0.10596979)
(0.077320067 0.076872406 0.088237903)
(0.090187298 0.083135715 0.099481845)
(0.09434758 0.083489563 0.10022061)
(0.094006751 0.0833968 0.10030315)
(0.092636597 0.083240524 0.10035387)
(0.090576262 0.083082814 0.10038119)
(0.0870944 0.082896779 0.10050695)
(0.082707345 0.082707338 0.10054269)
(0.067345996 0.082066696 0.10206574)
(0.063597079 0.075974819 0.10599086)
(0.077376356 0.065137958 0.089630395)
(0.089278909 0.068685463 0.10102773)
(0.092967428 0.068472923 0.10175388)
(0.092532514 0.06820308 0.10182535)
(0.091280391 0.067972645 0.10186927)
(0.089434267 0.067773017 0.10189472)
(0.08624414 0.067533979 0.10201789)
(0.082066703 0.067345991 0.10206574)
(0.06689124 0.066891235 0.10360853)
(0.06300969 0.063306439 0.10738965)
(0.072578511 0.062474083 0.094585592)
(0.080696871 0.06427147 0.10533104)
(0.083456365 0.064034523 0.10586937)
(0.083143191 0.063904277 0.10588039)
(0.082351989 0.063792675 0.10588944)
(0.081170111 0.063711929 0.10589002)
(0.078970702 0.063588293 0.10596978)
(0.075974825 0.063597076 0.10599086)
(0.063306444 0.063009688 0.10738965)
(0.059576052 0.05957605 0.11051889)
(0.035786846 0.03578685 0.049578929)
(0.051822044 0.045814667 0.067359909)
(0.058020117 0.047464711 0.069791845)
(0.058426343 0.047901247 0.070318739)
(0.057215202 0.048170232 0.070517093)
(0.054861834 0.048334938 0.070720004)
(0.050314912 0.048562097 0.071221407)
(0.044468554 0.048373727 0.072432211)
(0.023680501 0.048503209 0.076608548)
(0.022960448 0.041181736 0.091284042)
(0.045814663 0.051822054 0.06735991)
(0.067577603 0.067577613 0.09091989)
(0.076099824 0.071342984 0.094426338)
(0.076408484 0.072764868 0.095345115)
(0.074200933 0.073536798 0.095766094)
(0.070204934 0.073997452 0.09617393)
(0.063079733 0.074292743 0.096975323)
(0.053973641 0.073875867 0.098643546)
(0.026729319 0.07147289 0.10336884)
(0.022965209 0.055541933 0.11561884)
(0.047464707 0.058020128 0.06979185)
(0.071342974 0.076099836 0.094426341)
(0.080386884 0.080386896 0.09828478)
(0.080565688 0.082022324 0.099385729)
(0.077837443 0.082844053 0.099914837)
(0.073082544 0.083235646 0.10039526)
(0.064924839 0.083254819 0.1012504)
(0.054767411 0.082311352 0.10290445)
(0.02617367 0.078666683 0.10735665)
(0.022393189 0.060117594 0.11823291)
(0.047901243 0.058426352 0.070318746)
(0.072764858 0.076408493 0.095345121)
(0.082022312 0.080565697 0.099385731)
(0.082091061 0.08209107 0.10058632)
(0.079034354 0.082789169 0.10117075)
(0.073849606 0.083046152 0.1016762)
(0.065177517 0.08287431 0.10252571)
(0.054562422 0.081761359 0.10411176)
(0.025580584 0.077861915 0.10835957)
(0.022124824 0.059507503 0.11872216)
(0.048170228 0.057215205 0.070517102)
(0.073536788 0.074200936 0.095766101)
(0.082844041 0.077837446 0.099914841)
(0.08278916 0.079034357 0.10117075)
(0.079493315 0.079493317 0.10178135)
(0.074028857 0.079578896 0.10229333)
(0.065050907 0.079292786 0.10312868)
(0.05419031 0.078228383 0.10466148)
(0.025061267 0.074664516 0.10878657)
(0.021895727 0.057576211 0.1188928)
(0.048334934 0.05486183 0.070720012)
(0.073997442 0.070204929 0.096173937)
(0.083235635 0.073082539 0.10039526)
(0.083046143 0.073849601 0.1016762)
(0.079578893 0.074028853 0.10229333)
(0.073945087 0.073945082 0.1028053)
(0.064795623 0.073599367 0.10363413)
(0.053800418 0.072711758 0.10514197)
(0.024602035 0.069778122 0.10919461)
(0.021731457 0.054618443 0.11909627)
(0.048562093 0.050314902 0.071221413)
(0.074292733 0.063079723 0.096975328)
(0.083254807 0.064924829 0.1012504)
(0.082874301 0.065177508 0.10252571)
(0.079292783 0.065050897 0.10312867)
(0.073599371 0.064795614 0.10363413)
(0.064401887 0.064401877 0.10446523)
(0.053337019 0.063747354 0.10597685)
(0.024057981 0.061659933 0.10999068)
(0.021465426 0.049347332 0.11962692)
(0.048373723 0.044468542 0.072432215)
(0.073875857 0.053973629 0.098643548)
(0.08231134 0.0547674 0.10290445)
(0.081761351 0.054562411 0.10411175)
(0.07822838 0.054190299 0.10466148)
(0.072711762 0.053800407 0.10514197)
(0.063747363 0.053337008 0.10597685)
(0.05285868 0.052858668 0.10752499)
(0.023650606 0.051435673 0.11157535)
(0.021486488 0.042477589 0.12087703)
(0.048503205 0.023680492 0.076608549)
(0.071472881 0.02672931 0.10336884)
(0.078666672 0.026173661 0.10735664)
(0.077861907 0.025580575 0.10835956)
(0.074664513 0.025061258 0.10878656)
(0.069778126 0.024602026 0.1091946)
(0.061659942 0.024057972 0.10999067)
(0.051435684 0.023650597 0.11157535)
(0.022852481 0.022852472 0.11581984)
(0.02027948 0.020039334 0.12487406)
(0.041181732 0.022960445 0.091284042)
(0.055541924 0.022965205 0.11561884)
(0.060117584 0.022393185 0.1182329)
(0.059507495 0.02212482 0.11872215)
(0.057576208 0.021895723 0.1188928)
(0.054618447 0.021731453 0.11909626)
(0.049347341 0.021465422 0.11962691)
(0.0424776 0.021486485 0.12087703)
(0.020039343 0.020279476 0.12487405)
(0.017607538 0.017607535 0.1330212)
(0.018421371 0.018421376 0.031567553)
(0.034102039 0.027443234 0.051688007)
(0.04064205 0.029355847 0.055766003)
(0.041095376 0.0299123 0.056929099)
(0.039326977 0.03025129 0.057435408)
(0.035929433 0.030451614 0.05798911)
(0.029631293 0.030728011 0.059112119)
(0.021935217 0.030475352 0.061781338)
(-0.00042260021 0.030534162 0.067864059)
(0.0029526898 0.022775401 0.083742772)
(0.02744323 0.03410205 0.05168801)
(0.051304978 0.05130499 0.081524259)
(0.061422077 0.056275989 0.088127989)
(0.061896981 0.058235318 0.090316497)
(0.05861345 0.059294059 0.091408643)
(0.052627748 0.059908372 0.092495608)
(0.042356166 0.060258161 0.094325004)
(0.029882583 0.059581906 0.098022998)
(-0.0006554806 0.056244049 0.10481604)
(0.0010717942 0.038395072 0.1154468)
(0.029355842 0.040642063 0.055766008)
(0.056275977 0.061422091 0.088127993)
(0.067402112 0.067402126 0.095760005)
(0.067773214 0.069773879 0.098480976)
(0.063709455 0.070959869 0.099887761)
(0.056536126 0.071513932 0.10118728)
(0.044677465 0.071507725 0.10315585)
(0.030645115 0.07009688 0.10681191)
(-0.0016635187 0.064947725 0.11283357)
(0.00029466688 0.043318307 0.12030543)
(0.029912295 0.041095385 0.056929108)
(0.058235306 0.061896991 0.090316503)
(0.069773865 0.067773225 0.098480979)
(0.070025391 0.070025402 0.10149405)
(0.065480906 0.071055832 0.10306363)
(0.057654201 0.071429674 0.10443831)
(0.045026231 0.071160262 0.10638819)
(0.030340495 0.069502713 0.10985584)
(-0.0024501242 0.063978083 0.11531022)
(-3.7516059e-05 0.042558395 0.12148093)
(0.030251286 0.039326979 0.057435418)
(0.059294047 0.058613453 0.091408651)
(0.070959855 0.063709459 0.099887765)
(0.071055821 0.065480909 0.10306364)
(0.066166046 0.066166049 0.10471268)
(0.057923711 0.066293123 0.10610949)
(0.044849109 0.065863347 0.108019)
(0.029823311 0.064288456 0.11133977)
(-0.0031335553 0.059296745 0.1164481)
(-0.00031585558 0.039815837 0.12195103)
(0.030451609 0.035929428 0.057989119)
(0.05990836 0.052627742 0.092495616)
(0.071513918 0.05653612 0.10118729)
(0.071429663 0.057654196 0.10443831)
(0.066293119 0.057923706 0.10610949)
(0.057801451 0.057801446 0.10750632)
(0.044479715 0.057290375 0.10939386)
(0.029273153 0.055998849 0.11263977)
(-0.0037450188 0.05201981 0.1175362)
(-0.00051534485 0.035573524 0.12250604)
(0.030728007 0.029631282 0.059112126)
(0.060258149 0.042356154 0.09432501)
(0.071507711 0.044677454 0.10315586)
(0.071160251 0.04502622 0.10638819)
(0.065863344 0.044849098 0.108019)
(0.057290379 0.044479704 0.10939385)
(0.043908536 0.043908525 0.11128314)
(0.028621405 0.042986003 0.11453264)
(-0.004462886 0.040344927 0.11932297)
(-0.00085051826 0.02829534 0.12366872)
(0.030475347 0.021935204 0.061781343)
(0.059581895 0.029882569 0.098023)
(0.070096867 0.030645101 0.10681191)
(0.069502703 0.030340482 0.10985584)
(0.064288452 0.029823298 0.11133977)
(0.055998854 0.029273139 0.11263977)
(0.042986014 0.028621391 0.11453264)
(0.027982177 0.027982164 0.11786776)
(-0.0049497254 0.026416494 0.12273655)
(-0.00081983468 0.019374594 0.12633136)
(0.030534158 -0.00042261098 0.06786406)
(0.056244038 -0.00065549182 0.10481604)
(0.064947712 -0.0016635296 0.11283357)
(0.063978073 -0.0024501347 0.11531022)
(0.059296741 -0.0031335656 0.11644809)
(0.052019814 -0.0037450292 0.11753619)
(0.040344938 -0.0044628966 0.11932296)
(0.026416507 -0.0049497362 0.12273655)
(-0.0055564372 -0.005556448 0.12812348)
(-0.0020102179 -0.004639115 0.13164539)
(0.022775398 0.0029526857 0.083742771)
(0.038395062 0.0010717898 0.1154468)
(0.043318295 0.0002946628 0.12030543)
(0.042558386 -3.7519875e-05 0.12148092)
(0.039815834 -0.00031585928 0.12195102)
(0.035573528 -0.00051534857 0.12250603)
(0.02829535 -0.00085052215 0.12366871)
(0.019374606 -0.00081983878 0.12633136)
(-0.0046391049 -0.0020102222 0.13164539)
(-0.0013717503 -0.0013717542 0.13597827)
(0.009512133 0.0095121378 0.021145109)
(0.022392567 0.016376542 0.040130791)
(0.02827597 0.018188956 0.045351298)
(0.028600963 0.018776935 0.047191457)
(0.026404073 0.019138057 0.048097807)
(0.022298912 0.019346656 0.049113932)
(0.01502417 0.019636659 0.050939678)
(0.0066835786 0.019369077 0.055040748)
(-0.013633916 0.019353191 0.061848145)
(-0.0064943068 0.012229887 0.074574622)
(0.016376537 0.022392579 0.040130793)
(0.038288902 0.038288915 0.07188909)
(0.048379394 0.0436643 0.081313307)
(0.048807736 0.045899506 0.08502501)
(0.044676566 0.047114443 0.087025442)
(0.037226201 0.047805281 0.089019249)
(0.024965891 0.04816174 0.092037639)
(0.010990951 0.0473144 0.097728129)
(-0.017605242 0.043600875 0.10496158)
(-0.0097059672 0.026646592 0.10912866)
(0.018188951 0.028275985 0.045351303)
(0.043664287 0.048379409 0.08131331)
(0.055155224 0.05515524 0.092688457)
(0.055525859 0.05798198 0.097438792)
(0.050409988 0.059404603 0.10005641)
(0.041419801 0.060061551 0.10246284)
(0.027147448 0.060028021 0.10572447)
(0.01128717 0.058317998 0.11129855)
(-0.019175496 0.05243629 0.11706286)
(-0.010617864 0.031154548 0.11603319)
(0.01877693 0.028600974 0.047191464)
(0.045899493 0.048807748 0.085025016)
(0.057981964 0.05552587 0.097438795)
(0.058246069 0.05824608 0.10276971)
(0.05253747 0.05950477 0.10571306)
(0.042717932 0.059959853 0.10827037)
(0.027487079 0.059622836 0.11149172)
(0.010854417 0.057618221 0.11669976)
(-0.020092659 0.051294617 0.12138954)
(-0.010975819 0.030265447 0.11803282)
(0.019138053 0.026404076 0.048097816)
(0.047114431 0.044676569 0.08702545)
(0.059404587 0.050409991 0.10005642)
(0.059504759 0.052537474 0.10571306)
(0.05337706 0.053377064 0.10881837)
(0.043040434 0.053534678 0.11142286)
(0.027263838 0.053010386 0.11456495)
(0.010238564 0.051125073 0.11948906)
(-0.020858238 0.045510543 0.12351395)
(-0.011264659 0.026960848 0.1189205)
(0.019346652 0.022298907 0.049113941)
(0.047805268 0.037226195 0.089019256)
(0.060061536 0.041419795 0.10246284)
(0.059959841 0.042717926 0.10827038)
(0.053534674 0.043040428 0.11142286)
(0.042891149 0.042891143 0.11402752)
(0.026816334 0.04227498 0.11712289)
(0.0095878252 0.040767473 0.12189674)
(-0.021545004 0.036494447 0.12551062)
(-0.011472243 0.021864245 0.11993919)
(0.019636655 0.015024158 0.050939685)
(0.048161727 0.024965879 0.092037644)
(0.060028006 0.027147436 0.10572447)
(0.059622825 0.027487066 0.11149172)
(0.053010382 0.027263826 0.11456495)
(0.042274986 0.026816322 0.11712289)
(0.026137624 0.026137611 0.12021606)
(0.0088306066 0.025112007 0.12499004)
(-0.02234104 0.022573057 0.12841231)
(-0.011832404 0.013474502 0.12179001)
(0.019369072 0.0066835641 0.055040752)
(0.047314387 0.010990935 0.097728132)
(0.058317984 0.011287155 0.11129855)
(0.05761821 0.010854402 0.11669976)
(0.051125069 0.01023855 0.11948905)
(0.040767479 0.0095878107 0.12189674)
(0.025112019 0.0088305918 0.12499004)
(0.0081702624 0.0081702476 0.12991742)
(-0.022799007 0.0070115102 0.13349653)
(-0.011792217 0.0039048444 0.12574271)
(0.019353186 -0.013633928 0.061848147)
(0.043600863 -0.017605254 0.10496158)
(0.052436276 -0.019175507 0.11706285)
(0.051294606 -0.020092671 0.12138954)
(0.04551054 -0.020858249 0.12351394)
(0.036494452 -0.021545016 0.12551061)
(0.022573069 -0.022341051 0.1284123)
(0.0070115248 -0.022799018 0.13349653)
(-0.022872134 -0.022872145 0.13807269)
(-0.012674026 -0.017831736 0.1308894)
(0.012229882 -0.0064943112 0.074574621)
(0.026646581 -0.0097059718 0.10912866)
(0.031154536 -0.010617868 0.11603318)
(0.030265437 -0.010975823 0.11803281)
(0.026960844 -0.011264663 0.11892049)
(0.02186425 -0.011472247 0.11993918)
(0.013474513 -0.011832408 0.12179001)
(0.0039048578 -0.011792221 0.1257427)
(-0.017831725 -0.012674031 0.13088939)
(-0.0091982135 -0.0091982178 0.128084)
(0.0048744596 0.0048744649 0.014785138)
(0.014596312 0.0097077961 0.031688607)
(0.019430794 0.011256665 0.037592882)
(0.019506903 0.011815655 0.040055282)
(0.01699056 0.012167911 0.041408565)
(0.012470187 0.012368536 0.042933219)
(0.0048452284 0.012652586 0.045427009)
(-0.0032787269 0.012397209 0.050613964)
(-0.020064736 0.012360774 0.057244656)
(-0.010291929 0.0063420886 0.065630463)
(0.0097077906 0.014596325 0.031688608)
(0.028039268 0.028039282 0.063195478)
(0.037132868 0.03325115 0.074899338)
(0.037295504 0.035550735 0.080178164)
(0.03251376 0.036819254 0.08322966)
(0.024102671 0.037532572 0.086240915)
(0.010886477 0.037876628 0.090410852)
(-0.0031120009 0.036963107 0.097586208)
(-0.027190159 0.033320281 0.10391409)
(-0.014242069 0.018554699 0.10050088)
(0.01125666 0.01943081 0.037592886)
(0.033251136 0.037132884 0.07489934)
(0.043969926 0.043969943 0.089587365)
(0.04410293 0.046989226 0.096516546)
(0.038177993 0.048533121 0.10055976)
(0.027959714 0.049244912 0.10422298)
(0.012447277 0.049197038 0.10873683)
(-0.0035782681 0.047363717 0.11565321)
(-0.029351227 0.041404975 0.11967951)
(-0.015231439 0.022290744 0.10905341)
(0.01181565 0.019506914 0.040055288)
(0.035550721 0.037295517 0.080178169)
(0.046989209 0.044102943 0.096516548)
(0.047033312 0.047033325 0.10439183)
(0.040436147 0.048418164 0.10897054)
(0.029259104 0.048923689 0.1128808)
(0.012663293 0.048558014 0.11732284)
(-0.0041824899 0.046412273 0.12364583)
(-0.030370172 0.040005446 0.12599191)
(-0.015591196 0.021247297 0.11189744)
(0.012167906 0.016990564 0.041408571)
(0.036819239 0.032513764 0.083229666)
(0.048533104 0.038177997 0.10055977)
(0.048418151 0.040436151 0.10897055)
(0.041354449 0.041354453 0.11381955)
(0.029590138 0.041532556 0.11781031)
(0.012386689 0.040968971 0.12212318)
(-0.0048692926 0.03898133 0.12798934)
(-0.031166619 0.033437128 0.12928244)
(-0.015868916 0.017573845 0.11327888)
(0.012368531 0.012470181 0.042933226)
(0.037532558 0.024102665 0.086240921)
(0.049244895 0.027959708 0.10422298)
(0.048923677 0.029259098 0.1128808)
(0.041532552 0.029590132 0.11781031)
(0.029423668 0.029423662 0.12180151)
(0.011891535 0.028766224 0.12603488)
(-0.0055729873 0.027234968 0.13165524)
(-0.031875163 0.023293107 0.13229885)
(-0.01606857 0.011987087 0.11480795)
(0.012652582 0.0048452153 0.045427015)
(0.037876614 0.010886463 0.090410856)
(0.049197021 0.012447263 0.10873683)
(0.048558002 0.012663279 0.11732284)
(0.040968967 0.012386675 0.12212318)
(0.02876623 0.011891521 0.12603488)
(0.011174324 0.01117431 0.1302588)
(-0.0063624503 0.010208078 0.13587529)
(-0.032680391 0.0082792448 0.136242)
(-0.016425342 0.0031966617 0.11728425)
(0.012397204 -0.0032787427 0.050613968)
(0.036963093 -0.0031120177 0.097586211)
(0.047363701 -0.0035782847 0.11565321)
(0.046412261 -0.004182506 0.12364583)
(0.038981326 -0.0048693086 0.12798933)
(0.027234974 -0.0055730034 0.13165523)
(0.010208092 -0.0063624665 0.13587529)
(-0.006917775 -0.0069177913 0.14173634)
(-0.033034559 -0.0073032119 0.14239949)
(-0.016367237 -0.0060635778 0.1221064)
(0.012360769 -0.020064749 0.057244657)
(0.033320268 -0.027190173 0.10391409)
(0.041404959 -0.02935124 0.11967951)
(0.040005435 -0.030370184 0.1259919)
(0.033437124 -0.031166631 0.12928244)
(0.023293113 -0.031875175 0.13229884)
(0.008279258 -0.032680404 0.136242)
(-0.0073031958 -0.033034572 0.14239948)
(-0.032430082 -0.032430095 0.14469487)
(-0.016890168 -0.023990148 0.12612038)
(0.0063420839 -0.010291933 0.065630463)
(0.018554687 -0.014242074 0.10050088)
(0.02229073 -0.015231444 0.10905341)
(0.021247286 -0.015591201 0.11189743)
(0.017573841 -0.01586892 0.11327887)
(0.011987092 -0.016068574 0.11480794)
(0.0031966736 -0.016425346 0.11728425)
(-0.0060635631 -0.016367242 0.12210639)
(-0.023990136 -0.016890173 0.12612038)
(-0.011757538 -0.011757542 0.11656845)
(0.0024424904 0.0024424961 0.010780489)
(0.0093703092 0.0056847414 0.02560739)
(0.013062219 0.0069251654 0.031875297)
(0.012826673 0.0074207693 0.034873015)
(0.010089933 0.0077455135 0.036683404)
(0.0054002427 0.0079294396 0.038708622)
(-0.0020993133 0.0081980554 0.041761741)
(-0.009450347 0.0079725456 0.047577996)
(-0.022344429 0.0079664231 0.053438219)
(-0.011111914 0.0031324091 0.057468146)
(0.0056847353 0.0093703235 0.02560739)
(0.020069254 0.02006927 0.055921467)
(0.027647567 0.02476116 0.069361342)
(0.027374116 0.026965927 0.076130488)
(0.022119845 0.028210312 0.080291766)
(0.013204695 0.028909659 0.084329915)
(-0.00011337737 0.029239088 0.089478407)
(-0.013079949 0.028357006 0.097444464)
(-0.031687488 0.025092005 0.10193612)
(-0.015310722 0.012952916 0.091282198)
(0.0069251597 0.013062235 0.031875299)
(0.024761144 0.027647585 0.069361343)
(0.034011596 0.034011614 0.086824617)
(0.033697823 0.036999052 0.095911916)
(0.027179944 0.03856465 0.10148571)
(0.016276983 0.03929397 0.10643406)
(0.0005181612 0.039253387 0.11200574)
(-0.014448043 0.037458967 0.11949327)
(-0.034385956 0.031915788 0.12077196)
(-0.016326835 0.015789099 0.10104777)
(0.007420764 0.012826686 0.034873018)
(0.026965912 0.027374129 0.076130491)
(0.036999033 0.033697837 0.095911918)
(0.036605584 0.036605598 0.10636496)
(0.029361378 0.038021997 0.11271958)
(0.017414416 0.038552293 0.11802488)
(0.00050824078 0.038200662 0.12348148)
(-0.015262832 0.036105266 0.13010682)
(-0.035491628 0.030166033 0.12904134)
(-0.01667409 0.014561552 0.10468399)
(0.0077455084 0.010089936 0.036683408)
(0.028210297 0.022119849 0.080291769)
(0.038564632 0.027179948 0.10148571)
(0.038021983 0.029361382 0.11271958)
(0.030284523 0.030284528 0.11947371)
(0.017707803 0.030474224 0.12489927)
(0.00016476445 0.02992727 0.1301674)
(-0.01600565 0.028029809 0.1361355)
(-0.036288696 0.023082727 0.13358511)
(-0.016929632 0.010672661 0.10659234)
(0.0079294346 0.0054002364 0.038708626)
(0.028909644 0.013204688 0.084329919)
(0.039293952 0.016276977 0.10643406)
(0.038552279 0.017414409 0.11802489)
(0.030474219 0.017707797 0.12489927)
(0.017532207 0.0175322 0.13032567)
(-0.0003532359 0.016895256 0.13547546)
(-0.016725845 0.01551372 0.14108879)
(-0.036983243 0.012353838 0.13763121)
(-0.017112765 0.0048931704 0.1086241)
(0.0081980502 -0.0020993274 0.041761745)
(0.029239073 -0.00011339258 0.08947841)
(0.03925337 0.00051814607 0.11200574)
(0.038200648 0.0005082259 0.12348148)
(0.029927265 0.00016474973 0.1301674)
(0.016895262 -0.00035325064 0.13547546)
(-0.0010459359 -0.0010459508 0.140607)
(-0.01748685 -0.0018136072 0.14621694)
(-0.037749546 -0.0028067229 0.14241533)
(-0.017449265 -0.0037674667 0.11159452)
(0.0079725401 -0.009450364 0.047577998)
(0.028356991 -0.013079967 0.097444466)
(0.037458949 -0.014448061 0.11949327)
(0.036105252 -0.01526285 0.13010682)
(0.028029805 -0.016005667 0.1361355)
(0.015513726 -0.016725863 0.14108879)
(-0.0018135925 -0.017486868 0.14621694)
(-0.017839741 -0.017839758 0.15219243)
(-0.037956033 -0.01727514 0.14890519)
(-0.017371469 -0.012127388 0.11679483)
(0.0079664175 -0.022344443 0.05343822)
(0.025091991 -0.031687503 0.10193612)
(0.031915771 -0.03438597 0.12077196)
(0.03016602 -0.035491642 0.12904134)
(0.023082722 -0.03628871 0.13358511)
(0.012353844 -0.036983256 0.13763121)
(-0.0028067086 -0.03774956 0.14241533)
(-0.017275122 -0.037956047 0.14890519)
(-0.036679619 -0.036679633 0.14803407)
(-0.017591706 -0.025913683 0.1191918)
(0.003132404 -0.011111919 0.057468147)
(0.012952903 -0.015310727 0.091282197)
(0.015789084 -0.01632684 0.10104776)
(0.014561541 -0.016674094 0.10468399)
(0.010672657 -0.016929637 0.10659234)
(0.0048931758 -0.017112769 0.1086241)
(-0.0037674539 -0.01744927 0.11159452)
(-0.012127372 -0.017371474 0.11679483)
(-0.02591367 -0.017591712 0.1191918)
(-0.011806645 -0.01180665 0.10425393)
(0.0011631829 0.0011631889 0.0082983362)
(0.0058385561 0.0032514026 0.02134378)
(0.0084454898 0.0041986265 0.027778903)
(0.0078832888 0.0046161889 0.031226423)
(0.0050174929 0.0049037602 0.033477103)
(0.0003579583 0.0050673366 0.035955889)
(-0.0066785373 0.0053169118 0.039420664)
(-0.012947079 0.0051333276 0.045426657)
(-0.022179783 0.0051855681 0.050145724)
(-0.010455397 0.0014311734 0.050192565)
(0.0032513962 0.0058385712 0.021343781)
(0.013933653 0.013933669 0.050178303)
(0.019789682 0.017917848 0.064903112)
(0.018977001 0.019918467 0.073029091)
(0.013413982 0.021083207 0.078289787)
(0.0043880114 0.021745557 0.083285112)
(-0.0083739633 0.02206671 0.089159437)
(-0.019643922 0.021294484 0.0972223)
(-0.032800119 0.018586034 0.099295527)
(-0.014555464 0.009050798 0.082234083)
(0.0041986204 0.0084455074 0.027778904)
(0.017917832 0.019789702 0.064903112)
(0.025337986 0.025338005 0.084629875)
(0.024429363 0.028117929 0.095755377)
(0.017514214 0.029624071 0.10287054)
(0.0064028882 0.030343274 0.10903453)
(-0.0088163539 0.030334612 0.1153766)
(-0.021919405 0.028713541 0.12266559)
(-0.035927878 0.023913109 0.12058353)
(-0.015556049 0.010992085 0.092818045)
(0.0046161832 0.007883302 0.031226424)
(0.019918451 0.018977016 0.073029092)
(0.028117909 0.024429378 0.095755377)
(0.027122794 0.027122809 0.10869657)
(0.019446574 0.028488555 0.11686065)
(0.0072464287 0.029023088 0.12349801)
(-0.0091290978 0.02872686 0.12966822)
(-0.022968828 0.026842818 0.13579358)
(-0.037108302 0.021748413 0.13068003)
(-0.015883245 0.0095641521 0.097158575)
(0.0049037547 0.0050174969 0.033477104)
(0.021083191 0.013413986 0.078289789)
(0.029624051 0.017514219 0.10287054)
(0.02848854 0.019446579 0.11686065)
(0.020307961 0.020307966 0.12556826)
(0.0074593675 0.020501694 0.13236964)
(-0.0095544229 0.020022934 0.13828442)
(-0.023760286 0.018376231 0.14353321)
(-0.037889586 0.014378447 0.13648284)
(-0.01611219 0.0055831999 0.099589793)
(0.0050673312 0.0003579517 0.035955891)
(0.021745541 0.0043880043 0.083285114)
(0.030343255 0.0064028812 0.10903453)
(0.029023073 0.0072464219 0.12349801)
(0.020501689 0.0074593608 0.13236964)
(0.007280948 0.0072809413 0.13917243)
(-0.010075951 0.0067193246 0.1449263)
(-0.024470385 0.0056271217 0.14970504)
(-0.038547755 0.003524029 0.14148938)
(-0.016275228 -0.00015511689 0.10207724)
(0.0053169062 -0.0066785522 0.039420666)
(0.022066694 -0.0083739794 0.089159439)
(0.030334594 -0.0088163699 0.1153766)
(0.028726845 -0.0091291135 0.12966822)
(0.020022929 -0.0095544385 0.13828442)
(0.0067193313 -0.010075966 0.1449263)
(-0.010691171 -0.010691186 0.15065434)
(-0.025156189 -0.011156482 0.15544015)
(-0.039243782 -0.011059913 0.14684654)
(-0.01658276 -0.0083156609 0.10538091)
(0.0051333218 -0.012947097 0.045426659)
(0.021294469 -0.019643941 0.097222301)
(0.028713522 -0.021919424 0.12266559)
(0.026842803 -0.022968847 0.13579358)
(0.018376226 -0.023760304 0.14353321)
(0.0056271282 -0.024470404 0.14970504)
(-0.011156466 -0.025156208 0.15544015)
(-0.025244404 -0.025244423 0.16074731)
(-0.039285041 -0.023709106 0.15297034)
(-0.016490128 -0.015465651 0.11052111)
(0.0051855622 -0.022179798 0.050145725)
(0.018586019 -0.032800134 0.099295528)
(0.023913091 -0.035927893 0.12058353)
(0.021748399 -0.037108317 0.13068003)
(0.014378442 -0.037889601 0.13648284)
(0.0035240354 -0.038547769 0.14148938)
(-0.011059898 -0.039243797 0.14684654)
(-0.023709087 -0.039285056 0.15297034)
(-0.03743466 -0.037434675 0.14851492)
(-0.016492358 -0.025392961 0.11112501)
(0.001431168 -0.010455403 0.050192566)
(0.0090507844 -0.01455547 0.082234083)
(0.010992069 -0.015556054 0.092818044)
(0.0095641397 -0.01588325 0.097158573)
(0.0055831957 -0.016112195 0.09958979)
(-0.00015511125 -0.016275233 0.10207723)
(-0.0083156472 -0.016582765 0.10538091)
(-0.015465634 -0.016490133 0.1105211)
(-0.025392947 -0.016492364 0.11112501)
(-0.010731293 -0.010731299 0.092184232)
(0.00048529042 0.00048529665 0.0068365454)
(0.0034288871 0.001771668 0.01847976)
(0.0050796925 0.0024666146 0.024978087)
(0.0042106387 0.0028042484 0.02880115)
(0.0012986932 0.0030511606 0.03145591)
(-0.0031759302 0.0031938768 0.034315072)
(-0.0095301459 0.0034237803 0.038028721)
(-0.014592584 0.0032883567 0.043852307)
(-0.020670124 0.0034069432 0.047227362)
(-0.0091649072 0.00056650553 0.043826354)
(0.0017716613 0.0034289028 0.01847976)
(0.0092498738 0.0092498909 0.04590883)
(0.013382578 0.012461196 0.061580176)
(0.011994105 0.014192115 0.070906772)
(0.0062725208 0.015240951 0.07720201)
(-0.002542661 0.0158533 0.083026355)
(-0.014281065 0.016175564 0.089336063)
(-0.023516165 0.015567673 0.096888055)
(-0.031775593 0.013491839 0.096240969)
(-0.01295444 0.0063120782 0.073786171)
(0.0024666082 0.0050797108 0.024978087)
(0.012461178 0.013382599 0.061580176)
(0.017933671 0.017933691 0.083134353)
(0.016353117 0.020382063 0.096121516)
(0.0092183569 0.021767159 0.10471114)
(-0.0017046844 0.022456978 0.11194631)
(-0.015808275 0.022503345 0.1187249)
(-0.026608474 0.021155178 0.12514068)
(-0.035199405 0.017279474 0.11940537)
(-0.013907622 0.007437877 0.08486319)
(0.0028042424 0.0042106524 0.02880115)
(0.014192098 0.01199412 0.070906772)
(0.020382043 0.016353133 0.096121516)
(0.018689445 0.018689461 0.11138199)
(0.01077346 0.019938136 0.12129805)
(-0.0012476701 0.020461264 0.12912207)
(-0.016469337 0.020256278 0.13565752)
(-0.027897506 0.018705267 0.14058556)
(-0.036441018 0.014675485 0.13113773)
(-0.014211295 0.0058121227 0.089804363)
(0.0030511548 0.0012986974 0.03145591)
(0.015240934 0.0062725256 0.07720201)
(0.021767139 0.009218362 0.10471114)
(0.019938121 0.010773466 0.12129805)
(0.011517924 0.011517929 0.13190962)
(-0.0011505632 0.011709542 0.13994285)
(-0.016989098 0.011342168 0.14615005)
(-0.028733665 0.010065858 0.1499723)
(-0.037198643 0.0072115969 0.13813733)
(-0.014413148 0.001838425 0.092724572)
(0.0031938711 -0.003175937 0.034315073)
(0.015853284 -0.0025426683 0.083026356)
(0.022456958 -0.0017046915 0.11194631)
(0.020461249 -0.001247677 0.12912207)
(0.011709537 -0.00115057 0.13994285)
(-0.0013271121 -0.0013271189 0.14797819)
(-0.017499831 -0.0017691131 0.15398074)
(-0.029415419 -0.0024737417 0.1572187)
(-0.037807925 -0.0033989903 0.14397636)
(-0.014555614 -0.0036828515 0.095594286)
(0.0034237744 -0.0095301613 0.038028721)
(0.016175548 -0.014281082 0.089336064)
(0.022503325 -0.015808292 0.1187249)
(0.020256263 -0.016469354 0.13565752)
(0.011342163 -0.016989115 0.14615006)
(-0.0017691063 -0.017499847 0.15398074)
(-0.01799719 -0.017997206 0.15995399)
(-0.029993591 -0.018096108 0.16322443)
(-0.038415617 -0.016895309 0.14961356)