/*--------------------------------*- C++ -*----------------------------------*\
| =========                 |                                                 |
| \\      /  F ield         | OpenFOAM: The Open Source CFD Toolbox           |
|  \\    /   O peration     | Version:  dev                                   |
|   \\  /    A nd           | Web:      www.OpenFOAM.org                      |
|    \\/     M anipulation  |                                                 |
\*---------------------------------------------------------------------------*/
FoamFile
{
    version     2.0;
    format      ascii;
    class       volScalarField;
    location    "7";
    object      A;
}
// * * * * * * * * * * * * * * * * * * * * * * * * * * * * * * * * * * * * * //

dimensions      [0 0 0 0 1 0 0];

internalField   nonuniform List<scalar> 
10000
(
0.99976838
0.99976886
0.99976934
0.99976978
0.99977015
0.99977043
0.99977062
0.99977073
0.9997708
0.99977091
0.99976886
0.99976945
0.99977002
0.99977052
0.99977093
0.99977123
0.99977143
0.99977153
0.99977156
0.99977159
0.99976934
0.99977002
0.99977067
0.99977125
0.99977171
0.99977204
0.99977223
0.99977231
0.99977227
0.99977221
0.99976978
0.99977052
0.99977125
0.99977188
0.99977238
0.99977273
0.99977292
0.99977295
0.99977285
0.99977273
0.99977015
0.99977093
0.99977171
0.99977238
0.99977291
0.99977327
0.99977345
0.99977345
0.9997733
0.99977314
0.99977043
0.99977123
0.99977204
0.99977273
0.99977327
0.99977362
0.99977379
0.99977378
0.99977361
0.99977342
0.99977062
0.99977143
0.99977223
0.99977292
0.99977345
0.99977379
0.99977396
0.99977394
0.99977377
0.99977357
0.99977073
0.99977153
0.99977231
0.99977295
0.99977345
0.99977378
0.99977394
0.99977394
0.99977378
0.9997736
0.9997708
0.99977156
0.99977227
0.99977285
0.9997733
0.99977361
0.99977377
0.99977378
0.99977367
0.99977352
0.99977091
0.99977159
0.99977221
0.99977273
0.99977314
0.99977342
0.99977357
0.9997736
0.99977352
0.99977342
0.99929867
0.99930005
0.99930149
0.99930281
0.99930393
0.99930478
0.99930535
0.9993057
0.99930589
0.99930614
0.99930005
0.99930178
0.99930348
0.99930499
0.99930623
0.99930716
0.99930776
0.99930807
0.99930813
0.99930814
0.99930149
0.99930348
0.99930546
0.9993072
0.99930859
0.99930959
0.99931019
0.9993104
0.99931026
0.99931001
0.99930281
0.99930499
0.9993072
0.99930913
0.99931064
0.9993117
0.99931227
0.99931236
0.99931204
0.9993116
0.99930393
0.99930623
0.99930859
0.99931064
0.99931224
0.99931332
0.99931386
0.99931386
0.9993134
0.99931283
0.99930478
0.99930716
0.99930959
0.9993117
0.99931332
0.9993144
0.99931491
0.99931486
0.99931432
0.99931368
0.99930535
0.99930776
0.99931019
0.99931227
0.99931386
0.99931491
0.99931541
0.99931535
0.9993148
0.99931413
0.9993057
0.99930807
0.9993104
0.99931236
0.99931386
0.99931486
0.99931535
0.99931533
0.99931483
0.9993142
0.99930589
0.99930813
0.99931026
0.99931204
0.9993134
0.99931432
0.9993148
0.99931483
0.99931447
0.99931395
0.99930614
0.99930814
0.99931001
0.9993116
0.99931283
0.99931368
0.99931413
0.9993142
0.99931395
0.99931358
0.9988171
0.99881928
0.99882166
0.99882388
0.99882576
0.99882718
0.99882814
0.9988287
0.99882896
0.99882923
0.99881928
0.99882202
0.99882486
0.9988274
0.99882949
0.99883105
0.99883205
0.99883255
0.99883259
0.99883243
0.99882166
0.99882486
0.99882817
0.9988311
0.99883345
0.99883513
0.99883613
0.99883645
0.99883614
0.99883554
0.99882388
0.9988274
0.9988311
0.99883435
0.99883691
0.99883868
0.99883963
0.99883976
0.99883913
0.9988382
0.99882576
0.99882949
0.99883345
0.99883691
0.99883961
0.99884142
0.99884232
0.99884229
0.99884143
0.99884028
0.99882718
0.99883105
0.99883513
0.99883868
0.99884142
0.99884324
0.99884409
0.99884397
0.99884297
0.9988417
0.99882814
0.99883205
0.99883613
0.99883963
0.99884232
0.99884409
0.99884491
0.99884478
0.99884376
0.99884244
0.9988287
0.99883255
0.99883645
0.99883976
0.99884229
0.99884397
0.99884478
0.99884472
0.99884381
0.99884254
0.99882896
0.99883259
0.99883614
0.99883913
0.99884143
0.99884297
0.99884376
0.99884381
0.99884312
0.99884206
0.99882923
0.99883243
0.99883554
0.9988382
0.99884028
0.9988417
0.99884244
0.99884254
0.99884206
0.9988413
0.99832355
0.99832639
0.99832969
0.99833281
0.99833544
0.99833744
0.99833877
0.99833951
0.99833976
0.9983399
0.99832639
0.99833001
0.99833395
0.99833753
0.99834048
0.99834267
0.99834406
0.99834471
0.99834463
0.99834414
0.99832969
0.99833395
0.99833857
0.9983427
0.99834602
0.99834839
0.99834977
0.99835017
0.99834959
0.99834846
0.99833281
0.99833753
0.9983427
0.99834729
0.99835091
0.99835341
0.99835472
0.99835485
0.9983538
0.9983522
0.99833544
0.99834048
0.99834602
0.99835091
0.99835473
0.99835729
0.99835852
0.99835842
0.99835703
0.99835512
0.99833744
0.99834267
0.99834839
0.99835341
0.99835729
0.99835985
0.99836102
0.99836078
0.99835921
0.99835711
0.99833877
0.99834406
0.99834977
0.99835472
0.99835852
0.99836102
0.99836215
0.9983619
0.9983603
0.99835814
0.99833951
0.99834471
0.99835017
0.99835485
0.99835842
0.99836078
0.9983619
0.99836175
0.99836031
0.99835824
0.99833976
0.99834463
0.99834959
0.9983538
0.99835703
0.99835921
0.9983603
0.99836031
0.9983592
0.99835745
0.9983399
0.99834414
0.99834846
0.9983522
0.99835512
0.99835711
0.99835814
0.99835824
0.99835745
0.99835618
0.9978178
0.9978212
0.99782535
0.99782935
0.99783274
0.99783531
0.99783698
0.99783784
0.99783799
0.99783788
0.9978212
0.99782555
0.99783054
0.99783515
0.99783895
0.99784176
0.99784351
0.99784425
0.99784395
0.99784301
0.99782535
0.99783054
0.99783642
0.99784175
0.99784604
0.99784909
0.99785083
0.99785123
0.99785025
0.99784847
0.99782935
0.99783515
0.99784175
0.99784768
0.99785237
0.99785559
0.99785723
0.99785727
0.99785567
0.99785327
0.99783274
0.99783895
0.99784604
0.99785237
0.99785732
0.99786062
0.99786215
0.99786189
0.99785984
0.99785703
0.99783531
0.99784176
0.99784909
0.99785559
0.99786062
0.99786391
0.99786536
0.99786493
0.99786265
0.99785959
0.99783698
0.99784351
0.99785083
0.99785723
0.99786215
0.99786536
0.99786677
0.99786632
0.99786401
0.99786087
0.99783784
0.99784425
0.99785123
0.99785727
0.99786189
0.99786493
0.99786632
0.99786601
0.99786392
0.99786091
0.99783799
0.99784395
0.99785025
0.99785567
0.99785985
0.99786265
0.99786401
0.99786392
0.99786229
0.99785974
0.99783788
0.99784301
0.99784847
0.99785327
0.99785703
0.99785959
0.99786087
0.99786091
0.99785974
0.99785789
0.99729958
0.99730344
0.99730841
0.99731326
0.99731739
0.99732049
0.99732247
0.99732339
0.99732334
0.99732288
0.99730344
0.99730842
0.99731439
0.99732
0.99732464
0.99732805
0.99733012
0.99733087
0.99733023
0.99732875
0.99730841
0.99731439
0.99732147
0.99732798
0.99733323
0.99733694
0.99733898
0.9973393
0.9973378
0.99733528
0.99731326
0.99732
0.99732798
0.99733523
0.99734098
0.9973449
0.99734682
0.99734667
0.9973444
0.99734111
0.99731739
0.99732464
0.99733323
0.99734098
0.99734705
0.99735106
0.99735285
0.99735233
0.99734951
0.99734569
0.99732049
0.99732805
0.99733694
0.9973449
0.99735106
0.99735508
0.99735676
0.99735603
0.99735291
0.99734878
0.99732247
0.99733012
0.99733898
0.99734682
0.99735285
0.99735676
0.99735839
0.99735765
0.9973545
0.99735029
0.99732339
0.99733087
0.9973393
0.99734667
0.99735233
0.99735603
0.99735765
0.99735709
0.99735424
0.99735022
0.99732334
0.99733023
0.9973378
0.99734441
0.99734951
0.99735291
0.9973545
0.99735424
0.99735199
0.99734859
0.99732288
0.99732875
0.99733528
0.99734111
0.99734569
0.99734878
0.99735029
0.99735022
0.99734859
0.99734613
0.9967686
0.99677287
0.99677858
0.99678425
0.99678909
0.9967927
0.99679493
0.99679583
0.99679549
0.99679462
0.99677287
0.99677836
0.99678526
0.99679183
0.99679728
0.99680126
0.99680358
0.99680425
0.99680317
0.99680109
0.99677858
0.99678526
0.99679346
0.9968011
0.99680729
0.99681162
0.99681389
0.99681404
0.99681192
0.99680861
0.99678425
0.99679183
0.9968011
0.99680965
0.99681643
0.99682101
0.99682313
0.9968227
0.99681966
0.99681542
0.99678909
0.99679728
0.99680729
0.99681643
0.99682359
0.99682829
0.99683025
0.99682937
0.99682565
0.99682079
0.9967927
0.99680125
0.99681162
0.99682101
0.99682829
0.99683297
0.99683481
0.99683369
0.99682962
0.99682439
0.99679493
0.99680358
0.99681389
0.99682313
0.99683025
0.99683481
0.9968366
0.99683547
0.99683138
0.99682607
0.99679583
0.99680425
0.99681404
0.9968227
0.99682937
0.99683369
0.99683547
0.99683458
0.99683087
0.99682582
0.99679549
0.99680317
0.99681192
0.99681966
0.99682565
0.99682962
0.99683138
0.99683087
0.99682793
0.99682368
0.99679462
0.99680109
0.99680861
0.99681542
0.99682079
0.99682439
0.99682607
0.99682582
0.99682368
0.99682061
0.99622455
0.99622917
0.99623557
0.99624201
0.99624752
0.99625159
0.99625401
0.99625482
0.99625412
0.9962528
0.99622917
0.99623512
0.99624286
0.99625034
0.99625657
0.99626105
0.99626357
0.99626406
0.99626246
0.99625976
0.99623557
0.99624286
0.9962521
0.99626083
0.9962679
0.9962728
0.99627524
0.9962751
0.99627227
0.99626817
0.99624201
0.99625034
0.99626083
0.99627061
0.99627839
0.99628356
0.99628581
0.996285
0.99628108
0.99627589
0.99624752
0.99625657
0.9962679
0.99627839
0.9962866
0.99629191
0.99629397
0.99629262
0.99628793
0.99628201
0.99625159
0.99626105
0.9962728
0.99628356
0.99629191
0.99629722
0.99629914
0.99629751
0.99629241
0.99628607
0.99625401
0.99626357
0.99627524
0.99628581
0.99629397
0.99629914
0.99630101
0.99629939
0.99629429
0.99628787
0.99625482
0.99626406
0.9962751
0.996285
0.99629262
0.99629751
0.99629939
0.99629807
0.99629344
0.99628738
0.99625412
0.99626246
0.99627227
0.99628108
0.99628793
0.99629241
0.99629429
0.99629344
0.99628976
0.99628469
0.9962528
0.99625976
0.99626817
0.99627589
0.99628201
0.99628607
0.99628787
0.99628738
0.99628469
0.99628104
0.99566709
0.99567203
0.99567906
0.99568623
0.99569237
0.99569684
0.99569938
0.99570001
0.99569888
0.9956971
0.99567203
0.99567838
0.99568689
0.99569523
0.99570218
0.99570711
0.99570974
0.99570996
0.99570777
0.99570446
0.99567906
0.99568689
0.9956971
0.99570685
0.99571475
0.99572015
0.99572267
0.99572214
0.99571855
0.99571365
0.99568623
0.99569523
0.99570685
0.99571779
0.9957265
0.99573221
0.9957345
0.99573319
0.99572835
0.99572223
0.99569236
0.99570218
0.99571475
0.9957265
0.9957357
0.99574156
0.99574363
0.99574171
0.99573598
0.99572903
0.99569684
0.99570711
0.99572015
0.99573221
0.99574156
0.99574742
0.99574933
0.9957471
0.99574091
0.99573351
0.99569938
0.99570974
0.99572267
0.9957345
0.99574363
0.99574933
0.99575119
0.99574899
0.99574284
0.99573536
0.99570001
0.99570996
0.99572214
0.99573319
0.99574171
0.9957471
0.99574899
0.99574716
0.99574159
0.99573458
0.99569888
0.99570777
0.99571855
0.99572835
0.99573598
0.99574092
0.99574284
0.99574159
0.99573714
0.99573131
0.9956971
0.99570447
0.99571365
0.99572223
0.99572903
0.99573351
0.99573536
0.99573458
0.99573131
0.99572713
0.99509587
0.9951011
0.99510872
0.99511656
0.99512326
0.99512808
0.99513067
0.99513104
0.99512944
0.9951272
0.9951011
0.99510783
0.99511704
0.99512617
0.99513377
0.99513909
0.99514174
0.99514161
0.99513879
0.99513488
0.99510872
0.99511704
0.99512812
0.99513882
0.99514749
0.99515331
0.99515581
0.99515481
0.9951504
0.99514476
0.99511656
0.99512617
0.99513882
0.99515085
0.99516041
0.99516657
0.9951688
0.99516691
0.99516111
0.9951541
0.99512326
0.99513377
0.99514749
0.99516041
0.99517052
0.99517685
0.99517883
0.99517626
0.99516946
0.99516154
0.99512808
0.99513909
0.99515331
0.99516657
0.99517685
0.99518317
0.99518498
0.99518207
0.99517478
0.99516635
0.99513067
0.99514174
0.99515581
0.9951688
0.99517883
0.99518498
0.99518675
0.99518389
0.99517666
0.99516821
0.99513104
0.99514161
0.99515481
0.99516691
0.99517626
0.99518207
0.99518389
0.99518148
0.99517496
0.99516707
0.99512944
0.99513879
0.9951504
0.99516111
0.99516946
0.99517478
0.99517667
0.99517496
0.99516974
0.99516323
0.9951272
0.99513488
0.99514476
0.99515411
0.99516154
0.99516635
0.99516821
0.99516707
0.99516323
0.99515857
0.99451053
0.99451603
0.99452419
0.99453263
0.99453984
0.99454494
0.9945475
0.99454755
0.99454543
0.99454275
0.99451603
0.9945231
0.99453296
0.9945428
0.99455099
0.99455661
0.9945592
0.99455864
0.99455516
0.99455069
0.99452419
0.99453296
0.99454484
0.9945564
0.99456575
0.9945719
0.9945743
0.99457275
0.99456751
0.99456117
0.99453263
0.9945428
0.9945564
0.99456942
0.99457975
0.99458626
0.99458835
0.9945858
0.99457902
0.99457119
0.99453984
0.99455099
0.99456575
0.99457975
0.99459068
0.99459738
0.99459918
0.99459588
0.99458801
0.99457918
0.99454494
0.99455661
0.9945719
0.99458626
0.99459738
0.99460407
0.99460569
0.99460203
0.99459363
0.99458427
0.9945475
0.9945592
0.9945743
0.99458835
0.99459918
0.99460569
0.99460728
0.9946037
0.99459542
0.99458607
0.99454755
0.99455864
0.99457275
0.9945858
0.99459588
0.99460203
0.9946037
0.99460065
0.9945932
0.99458454
0.99454543
0.99455516
0.99456751
0.99457902
0.99458801
0.99459363
0.99459542
0.9945932
0.99458724
0.99458013
0.99454275
0.9945507
0.99456117
0.99457119
0.99457918
0.99458427
0.99458607
0.99458454
0.99458013
0.99457504
0.99391067
0.99391644
0.99392509
0.99393408
0.99394172
0.99394702
0.99394949
0.99394916
0.99394651
0.9939434
0.99391644
0.99392382
0.99393427
0.99394476
0.99395345
0.99395929
0.99396174
0.9939607
0.99395654
0.99395155
0.99392509
0.99393427
0.99394688
0.99395921
0.99396916
0.99397555
0.99397776
0.99397559
0.99396953
0.99396253
0.99393408
0.99394476
0.99395921
0.99397313
0.99398412
0.9939909
0.99399275
0.99398948
0.99398173
0.99397315
0.99394172
0.99395345
0.99396916
0.99398412
0.99399577
0.99400274
0.99400427
0.99400019
0.99399126
0.99398161
0.99394702
0.99395929
0.99397555
0.9939909
0.99400274
0.99400971
0.99401105
0.99400658
0.99399711
0.99398691
0.99394949
0.99396174
0.99397776
0.99399275
0.99400427
0.99401105
0.99401238
0.99400803
0.99399873
0.99398859
0.99394916
0.9939607
0.99397559
0.99398948
0.99400019
0.99400658
0.99400803
0.99400432
0.99399597
0.99398664
0.99394651
0.99395654
0.99396953
0.99398173
0.99399126
0.99399711
0.99399873
0.99399597
0.9939893
0.99398168
0.9939434
0.99395155
0.99396253
0.99397315
0.99398161
0.99398691
0.99398859
0.99398664
0.99398168
0.99397622
0.99329591
0.99330193
0.99331101
0.99332049
0.9933285
0.99333393
0.99333625
0.99333548
0.99333229
0.99332878
0.99330193
0.99330961
0.99332059
0.99333165
0.99334076
0.99334674
0.99334898
0.9933474
0.99334257
0.99333709
0.99331101
0.99332059
0.99333386
0.99334688
0.99335732
0.99336386
0.9933658
0.99336297
0.99335608
0.9933485
0.99332049
0.99333165
0.99334688
0.99336159
0.99337314
0.99338008
0.99338161
0.99337758
0.99336889
0.99335962
0.9933285
0.99334076
0.99335732
0.99337314
0.9933854
0.99339253
0.99339372
0.99338881
0.99337886
0.99336846
0.99333393
0.99334674
0.99336386
0.99338008
0.99339253
0.99339967
0.99340066
0.99339536
0.99338485
0.9933739
0.99333625
0.99334898
0.9933658
0.99338161
0.99339372
0.99340066
0.99340165
0.99339652
0.99338624
0.99337541
0.99333548
0.9933474
0.99336297
0.99337758
0.99338881
0.99339536
0.99339652
0.99339211
0.99338293
0.99337301
0.99333229
0.99334257
0.99335608
0.99336889
0.99337886
0.99338486
0.99338624
0.99338293
0.99337559
0.99336754
0.99332878
0.99333709
0.9933485
0.99335962
0.99336846
0.9933739
0.99337541
0.99337301
0.99336754
0.99336177
0.99266582
0.99267208
0.99268156
0.99269146
0.99269977
0.99270526
0.99270736
0.99270612
0.99270239
0.9926985
0.99267208
0.99268005
0.99269151
0.99270306
0.99271251
0.99271855
0.99272051
0.99271835
0.99271287
0.99270694
0.99268156
0.99269151
0.99270536
0.99271898
0.99272982
0.99273643
0.99273802
0.9927345
0.99272682
0.9927187
0.99269146
0.99270306
0.99271898
0.99273438
0.99274639
0.9927534
0.99275454
0.99274972
0.99274012
0.99273023
0.99269977
0.99271251
0.99272982
0.99274639
0.99275914
0.99276635
0.99276711
0.99276136
0.99275044
0.99273938
0.99270526
0.99271855
0.99273643
0.9927534
0.99276635
0.99277356
0.99277412
0.99276797
0.99275649
0.99274488
0.99270735
0.99272051
0.99273802
0.99275454
0.99276711
0.99277412
0.99277471
0.99276878
0.9927576
0.99274617
0.99270612
0.99271835
0.9927345
0.99274972
0.99276136
0.99276797
0.99276878
0.99276368
0.99275372
0.99274332
0.99270239
0.99271287
0.99272682
0.99274012
0.99275044
0.9927565
0.9927576
0.99275372
0.99274576
0.99273736
0.9926985
0.99270694
0.9927187
0.99273024
0.99273938
0.99274489
0.99274617
0.99274332
0.99273736
0.99273132
0.99201999
0.99202646
0.99203631
0.99204656
0.9920551
0.99206058
0.9920624
0.99206068
0.99205641
0.99205217
0.99202646
0.99203471
0.9920466
0.99205857
0.99206828
0.9920743
0.99207593
0.99207317
0.99206704
0.9920607
0.99203631
0.9920466
0.99206097
0.9920751
0.99208625
0.99209283
0.99209402
0.99208979
0.99208134
0.99207274
0.99204656
0.99205857
0.9920751
0.99209108
0.99210345
0.99211043
0.99211111
0.9921055
0.99209504
0.9920846
0.9920551
0.99206828
0.99208625
0.99210345
0.99211658
0.99212376
0.99212404
0.99211745
0.99210562
0.99209397
0.99206058
0.9920743
0.99209283
0.99211043
0.99212376
0.99213095
0.99213103
0.99212404
0.99211166
0.99209947
0.9920624
0.99207592
0.99209402
0.99211111
0.99212404
0.99213103
0.99213117
0.99212445
0.99211243
0.99210049
0.99206068
0.99207317
0.99208979
0.9921055
0.99211745
0.99212404
0.99212445
0.99211866
0.99210799
0.99209719
0.99205641
0.99206704
0.99208134
0.99209504
0.99210562
0.99211166
0.99211244
0.99210799
0.99209946
0.99209078
0.99205217
0.9920607
0.99207274
0.9920846
0.99209397
0.99209947
0.99210049
0.99209719
0.99209078
0.99208452
0.99135795
0.99136463
0.9913748
0.99138535
0.99139404
0.99139946
0.99140096
0.99139873
0.99139394
0.99138937
0.99136463
0.99137314
0.99138541
0.99139773
0.99140763
0.99141356
0.9914148
0.99141143
0.99140468
0.99139797
0.99137479
0.99138541
0.99140025
0.9914148
0.99142617
0.99143265
0.99143338
0.99142843
0.99141926
0.99141022
0.99138535
0.99139773
0.9914148
0.99143127
0.99144389
0.99145076
0.99145094
0.99144452
0.99143325
0.99142233
0.99139404
0.99140763
0.99142617
0.99144389
0.99145729
0.99146436
0.99146411
0.99145668
0.991444
0.99143184
0.99139946
0.99141356
0.99143265
0.99145076
0.99146436
0.99147144
0.99147099
0.99146317
0.99144995
0.99143728
0.99140096
0.9914148
0.99143338
0.99145094
0.99146411
0.99147099
0.99147064
0.99146315
0.99145037
0.991438
0.99139873
0.99141143
0.99142843
0.99144452
0.99145668
0.99146317
0.99146315
0.99145668
0.99144537
0.99143425
0.99139394
0.99140468
0.99141926
0.99143325
0.991444
0.99144995
0.99145037
0.99144537
0.99143633
0.99142742
0.99138937
0.99139797
0.99141022
0.99142233
0.99143184
0.99143728
0.991438
0.99143425
0.99142742
0.99142098
0.99067926
0.99068613
0.99069657
0.99070737
0.99071616
0.99072146
0.9907226
0.99071985
0.99071456
0.99070967
0.99068613
0.99069489
0.99070749
0.99072009
0.9907301
0.99073588
0.99073669
0.99073272
0.99072537
0.99071832
0.99069657
0.99070749
0.99072274
0.99073763
0.99074913
0.99075544
0.99075567
0.99075002
0.99074016
0.99073073
0.99070737
0.99072009
0.99073762
0.99075449
0.99076727
0.99077396
0.99077359
0.99076639
0.99075437
0.99074302
0.99071616
0.9907301
0.99074913
0.99076727
0.99078085
0.99078773
0.99078691
0.99077866
0.9907652
0.99075259
0.99072145
0.99073588
0.99075543
0.99077396
0.99078773
0.99079461
0.99079361
0.99078498
0.990771
0.99075791
0.9907226
0.99073669
0.99075567
0.99077359
0.99078691
0.99079361
0.99079272
0.99078449
0.99077103
0.99075831
0.99071985
0.99073272
0.99075002
0.99076639
0.99077866
0.99078498
0.99078449
0.99077737
0.99076549
0.99075411
0.99071456
0.99072537
0.99074016
0.99075437
0.9907652
0.990771
0.99077103
0.99076549
0.990756
0.9907469
0.99070967
0.99071832
0.99073073
0.99074302
0.99075259
0.99075791
0.99075831
0.99075411
0.9907469
0.99074031
0.98998345
0.98999049
0.99000117
0.99001216
0.99002098
0.9900261
0.99002686
0.99002359
0.99001782
0.99001265
0.98999049
0.98999947
0.99001236
0.99002519
0.99003524
0.99004081
0.99004117
0.99003659
0.99002869
0.99002133
0.99000117
0.99001236
0.99002796
0.99004312
0.99005468
0.99006075
0.99006047
0.99005411
0.99004362
0.99003384
0.99001216
0.99002519
0.99004312
0.99006029
0.99007314
0.99007958
0.99007864
0.99007068
0.99005796
0.99004623
0.99002098
0.99003523
0.99005468
0.99007314
0.9900868
0.99009342
0.99009201
0.99008297
0.99006879
0.99005581
0.9900261
0.99004081
0.99006075
0.99007958
0.99009342
0.99010004
0.99009846
0.99008906
0.9900744
0.99006095
0.99002686
0.99004117
0.99006047
0.99007864
0.99009201
0.99009846
0.99009703
0.99008809
0.99007401
0.990061
0.99002359
0.99003659
0.99005411
0.99007068
0.99008297
0.99008906
0.99008809
0.99008036
0.99006796
0.99005638
0.99001782
0.99002869
0.99004362
0.99005796
0.9900688
0.9900744
0.99007401
0.99006796
0.99005806
0.99004883
0.99001265
0.99002133
0.99003384
0.99004623
0.99005581
0.99006095
0.99006101
0.99005638
0.99004883
0.99004211
0.98927003
0.98927723
0.98928811
0.98929923
0.98930804
0.98931294
0.9893133
0.98930952
0.98930328
0.98929785
0.98927723
0.98928641
0.98929954
0.98931254
0.98932257
0.98932789
0.98932778
0.98932261
0.98931418
0.98930653
0.98928811
0.98929954
0.98931544
0.9893308
0.98934235
0.98934814
0.98934732
0.98934029
0.9893292
0.9893191
0.98929922
0.98931254
0.9893308
0.9893482
0.98936105
0.98936718
0.98936566
0.98935697
0.9893436
0.98933153
0.98930804
0.98932257
0.98934235
0.98936105
0.9893747
0.98938101
0.989379
0.98936921
0.98935438
0.98934105
0.98931294
0.98932789
0.98934814
0.98936718
0.98938101
0.98938732
0.98938514
0.98937501
0.98935973
0.98934598
0.98931329
0.98932778
0.98934732
0.98936566
0.989379
0.98938514
0.98938316
0.98937355
0.98935892
0.98934568
0.98930952
0.98932261
0.98934029
0.98935697
0.98936921
0.98937501
0.98937355
0.98936523
0.98935238
0.98934064
0.98930328
0.98931418
0.9893292
0.9893436
0.98935438
0.98935973
0.98935892
0.98935238
0.98934212
0.98933278
0.98929785
0.98930653
0.9893191
0.98933153
0.98934105
0.98934598
0.98934568
0.98934065
0.98933278
0.98932596
0.9885385
0.98854583
0.98855688
0.98856809
0.98857684
0.9885815
0.98858143
0.98857715
0.98857048
0.98856481
0.98854583
0.9885552
0.98856854
0.98858165
0.98859161
0.98859665
0.98859606
0.98859031
0.98858139
0.98857348
0.98855688
0.98856854
0.98858469
0.98860019
0.98861167
0.98861714
0.98861577
0.98860809
0.98859645
0.98858607
0.98856809
0.98858165
0.98860019
0.98861775
0.98863053
0.98863631
0.9886342
0.98862481
0.98861086
0.98859849
0.98857684
0.98859161
0.98861167
0.98863053
0.9886441
0.98865005
0.98864744
0.98863693
0.98862151
0.9886079
0.98858149
0.98859665
0.98861714
0.98863631
0.98865005
0.988656
0.98865323
0.98864242
0.98862658
0.98861258
0.98858143
0.98859606
0.98861577
0.9886342
0.98864744
0.98865323
0.9886507
0.98864045
0.98862535
0.98861191
0.98857715
0.98859031
0.98860809
0.98862481
0.98863693
0.98864242
0.98864045
0.98863159
0.98861834
0.98860648
0.98857048
0.98858139
0.98859645
0.98861086
0.98862151
0.98862658
0.98862535
0.98861834
0.98860776
0.98859834
0.98856481
0.98857348
0.98858607
0.98859849
0.9886079
0.98861258
0.98861192
0.98860648
0.98859834
0.98859142
0.98778835
0.98779581
0.98780699
0.98781825
0.9878269
0.98783128
0.98783079
0.98782603
0.98781894
0.98781305
0.98779581
0.98780534
0.98781885
0.98783202
0.98784187
0.9878466
0.98784552
0.98783923
0.98782985
0.9878217
0.98780699
0.98781885
0.98783521
0.98785079
0.98786215
0.98786726
0.98786535
0.98785706
0.98784491
0.98783427
0.98781825
0.98783202
0.98785079
0.98786844
0.98788109
0.9878865
0.98788381
0.98787376
0.98785927
0.98784664
0.9878269
0.98784187
0.98786215
0.98788109
0.98789454
0.98790009
0.98789688
0.98788571
0.98786975
0.98785589
0.98783128
0.9878466
0.98786726
0.9878865
0.98790009
0.98790565
0.9879023
0.98789084
0.98787451
0.9878603
0.98783079
0.98784552
0.98786535
0.98788381
0.98789688
0.9879023
0.98789921
0.98788839
0.98787285
0.98785927
0.98782603
0.98783923
0.98785706
0.98787376
0.98788571
0.98789084
0.98788839
0.98787902
0.98786542
0.98785346
0.98781894
0.98782985
0.98784491
0.98785927
0.98786975
0.98787451
0.98787285
0.98786542
0.98785454
0.98784506
0.98781305
0.9878217
0.98783427
0.98784664
0.98785589
0.9878603
0.98785927
0.98785346
0.98784506
0.98783807
0.98701908
0.98702664
0.98703792
0.98704919
0.98705771
0.98706179
0.98706088
0.98705565
0.98704818
0.98704209
0.98702664
0.98703631
0.98704995
0.98706315
0.98707285
0.98707725
0.98707569
0.98706887
0.98705907
0.98705071
0.98703792
0.98704995
0.98706648
0.9870821
0.9870933
0.98709804
0.9870956
0.98708672
0.9870741
0.98706323
0.98704919
0.98706315
0.9870821
0.98709979
0.98711227
0.98711728
0.98711401
0.98710334
0.98708837
0.9870755
0.9870577
0.98707285
0.9870933
0.98711227
0.98712553
0.98713068
0.98712688
0.98711508
0.98709865
0.98708457
0.98706179
0.98707725
0.98709804
0.98711728
0.98713068
0.98713582
0.9871319
0.98711985
0.98710307
0.98708869
0.98706088
0.98707569
0.9870956
0.98711401
0.98712688
0.9871319
0.98712828
0.98711691
0.987101
0.98708729
0.98705565
0.98706887
0.98708672
0.98710334
0.98711508
0.98711985
0.98711691
0.98710707
0.98709316
0.98708113
0.98704818
0.98705907
0.9870741
0.98708837
0.98709865
0.98710307
0.987101
0.98709316
0.98708203
0.98707249
0.98704209
0.98705071
0.98706323
0.9870755
0.98708457
0.98708869
0.98708729
0.98708113
0.98707249
0.98706544
0.98623015
0.98623779
0.98624914
0.98626039
0.98626875
0.98627253
0.98627121
0.98626554
0.98625771
0.98625142
0.98623779
0.98624758
0.98626133
0.98627451
0.98628404
0.9862881
0.98628608
0.98627876
0.98626856
0.98626
0.98624914
0.98626133
0.98627799
0.9862936
0.98630461
0.98630897
0.98630601
0.98629659
0.98628354
0.98627246
0.98626039
0.98627451
0.9862936
0.98631129
0.98632357
0.98632816
0.98632434
0.9863131
0.98629768
0.9862846
0.98626875
0.98628404
0.98630461
0.98632357
0.98633661
0.98634133
0.98633697
0.98632459
0.98630773
0.98629346
0.98627253
0.98628809
0.98630897
0.98632816
0.98634133
0.98634605
0.98634158
0.98632898
0.98631181
0.98629727
0.9862712
0.98628608
0.98630601
0.98632434
0.98633697
0.98634158
0.98633744
0.98632558
0.98630933
0.98629551
0.98626554
0.98627876
0.98629659
0.9863131
0.98632459
0.98632898
0.98632558
0.9863153
0.98630112
0.98628902
0.98625771
0.98626856
0.98628354
0.98629768
0.98630773
0.98631181
0.98630933
0.98630112
0.98628975
0.98628017
0.98625142
0.98626
0.98627246
0.9862846
0.98629346
0.98629727
0.98629551
0.98628902
0.98628017
0.98627307
0.98542102
0.98542873
0.98544013
0.98545134
0.98545952
0.98546298
0.98546126
0.98545517
0.98544701
0.98544055
0.98542873
0.98543862
0.98545245
0.98546559
0.98547493
0.98547863
0.98547616
0.98546838
0.98545782
0.98544908
0.98544013
0.98545245
0.9854692
0.98548478
0.98549558
0.98549955
0.98549609
0.98548616
0.98547272
0.98546145
0.98545134
0.98546559
0.98548478
0.98550242
0.98551447
0.98551866
0.98551431
0.98550253
0.98548671
0.98547345
0.98545952
0.98547493
0.98549558
0.98551447
0.98552727
0.98553156
0.98552667
0.98551376
0.98549651
0.98548208
0.98546298
0.98547863
0.98549955
0.98551866
0.98553156
0.98553587
0.98553087
0.98551776
0.98550024
0.98548558
0.98546126
0.98547616
0.98549609
0.98551431
0.98552667
0.98553087
0.98552624
0.98551391
0.98549737
0.98548347
0.98545517
0.98546838
0.98548616
0.98550253
0.98551376
0.98551776
0.98551392
0.98550323
0.98548881
0.98547667
0.98544701
0.98545782
0.98547272
0.98548671
0.98549651
0.98550024
0.98549737
0.98548881
0.98547724
0.98546762
0.98544055
0.98544908
0.98546145
0.98547345
0.98548208
0.98548558
0.98548347
0.98547667
0.98546762
0.98546047
0.98459115
0.98459891
0.98461034
0.98462148
0.98462947
0.98463263
0.98463051
0.98462403
0.98461556
0.98460894
0.98459891
0.98460889
0.98462276
0.98463584
0.98464497
0.98464833
0.98464543
0.98463723
0.98462633
0.98461742
0.98461034
0.98462276
0.98463958
0.9846551
0.98466567
0.98466927
0.98466533
0.98465493
0.98464113
0.98462969
0.98462148
0.98463584
0.9846551
0.98467268
0.98468448
0.98468826
0.98468341
0.98467114
0.98465495
0.98464153
0.98462947
0.98464497
0.98466567
0.98468448
0.98469702
0.98470089
0.98469549
0.98468209
0.98466449
0.98464991
0.98463263
0.98464833
0.98466927
0.98468826
0.98470089
0.98470478
0.98469928
0.98468571
0.98466789
0.9846531
0.98463051
0.98464543
0.98466533
0.98468341
0.98469549
0.98469928
0.98469419
0.98468145
0.98466464
0.98465066
0.98462403
0.98463722
0.98465493
0.98467114
0.9846821
0.98468572
0.98468145
0.9846704
0.98465576
0.98464357
0.98461556
0.98462633
0.98464113
0.98465495
0.98466449
0.98466789
0.98466464
0.98465576
0.984644
0.98463435
0.98460894
0.98461742
0.98462969
0.98464153
0.98464992
0.98465311
0.98465067
0.98464357
0.98463435
0.98462715
0.98373999
0.98374779
0.98375923
0.98377028
0.98377807
0.98378092
0.98377844
0.9837716
0.98376284
0.98375608
0.98374779
0.98375783
0.98377173
0.98378473
0.98379365
0.98379667
0.98379337
0.98378476
0.98377356
0.98376449
0.98375923
0.98377173
0.9837886
0.98380403
0.98381437
0.9838176
0.98381322
0.98380238
0.98378826
0.98377666
0.98377028
0.98378473
0.98380403
0.98382152
0.98383307
0.98383646
0.98383114
0.98381842
0.9838019
0.98378832
0.98377807
0.98379365
0.98381437
0.98383307
0.98384534
0.98384881
0.98384293
0.98382909
0.98381117
0.98379646
0.98378092
0.98379667
0.9838176
0.98383646
0.98384881
0.98385229
0.98384633
0.98383234
0.98381423
0.98379935
0.98377844
0.98379337
0.98381321
0.98383114
0.98384293
0.98384633
0.9838408
0.98382768
0.98381063
0.98379659
0.9837716
0.98378476
0.98380238
0.98381842
0.98382909
0.98383234
0.98382768
0.98381629
0.98380145
0.98378923
0.98376284
0.98377356
0.98378826
0.9838019
0.98381118
0.98381423
0.98381063
0.98380145
0.98378952
0.98377984
0.98375608
0.98376449
0.98377666
0.98378833
0.98379647
0.98379935
0.98379659
0.98378923
0.98377984
0.9837726
0.98286698
0.9828748
0.98288623
0.98289719
0.98290478
0.98290733
0.9829045
0.98289732
0.9828883
0.9828814
0.9828748
0.98288489
0.9828988
0.98291171
0.98292041
0.98292311
0.98291942
0.98291044
0.98289897
0.98288976
0.98288623
0.9828988
0.98291569
0.98293103
0.98294113
0.982944
0.98293921
0.98292798
0.98291356
0.98290182
0.98289719
0.98291171
0.98293103
0.98294841
0.98295971
0.98296272
0.98295696
0.98294383
0.98292702
0.98291331
0.98290478
0.9829204
0.98294113
0.98295971
0.98297171
0.98297479
0.98296847
0.98295422
0.98293603
0.9829212
0.98290733
0.98292311
0.982944
0.98296272
0.98297479
0.98297788
0.98297149
0.98295712
0.98293876
0.98292379
0.9829045
0.98291942
0.98293921
0.98295696
0.98296847
0.98297149
0.98296556
0.98295209
0.98293483
0.98292073
0.98289732
0.98291044
0.98292798
0.98294383
0.98295422
0.98295712
0.98295209