/*--------------------------------*- C++ -*----------------------------------*\
| =========                 |                                                 |
| \\      /  F ield         | OpenFOAM: The Open Source CFD Toolbox           |
|  \\    /   O peration     | Version:  dev                                   |
|   \\  /    A nd           | Web:      www.OpenFOAM.org                      |
|    \\/     M anipulation  |                                                 |
\*---------------------------------------------------------------------------*/
FoamFile
{
    version     2.0;
    format      ascii;
    class       volScalarField;
    location    "7";
    object      A_0;
}
// * * * * * * * * * * * * * * * * * * * * * * * * * * * * * * * * * * * * * //

dimensions      [0 0 0 0 1 0 0];

internalField   nonuniform List<scalar> 
10000
(
0.99976802
0.9997685
0.99976898
0.99976942
0.99976979
0.99977007
0.99977026
0.99977038
0.99977045
0.99977055
0.9997685
0.99976909
0.99976966
0.99977016
0.99977057
0.99977088
0.99977108
0.99977118
0.99977121
0.99977123
0.99976898
0.99976966
0.99977031
0.99977089
0.99977135
0.99977168
0.99977188
0.99977195
0.99977191
0.99977185
0.99976942
0.99977016
0.99977089
0.99977153
0.99977203
0.99977238
0.99977257
0.9997726
0.9997725
0.99977238
0.99976979
0.99977057
0.99977135
0.99977203
0.99977256
0.99977291
0.99977309
0.9997731
0.99977295
0.99977279
0.99977007
0.99977088
0.99977168
0.99977238
0.99977291
0.99977327
0.99977344
0.99977343
0.99977326
0.99977307
0.99977026
0.99977108
0.99977188
0.99977257
0.99977309
0.99977344
0.99977361
0.99977359
0.99977341
0.99977322
0.99977038
0.99977118
0.99977195
0.9997726
0.9997731
0.99977343
0.99977359
0.99977358
0.99977343
0.99977324
0.99977045
0.99977121
0.99977191
0.9997725
0.99977295
0.99977326
0.99977341
0.99977343
0.99977332
0.99977317
0.99977055
0.99977123
0.99977185
0.99977238
0.99977279
0.99977307
0.99977322
0.99977324
0.99977317
0.99977306
0.99929757
0.99929896
0.9993004
0.99930173
0.99930284
0.9993037
0.99930427
0.99930461
0.99930481
0.99930506
0.99929896
0.99930069
0.99930239
0.99930391
0.99930515
0.99930608
0.99930668
0.99930699
0.99930706
0.99930706
0.9993004
0.99930239
0.99930438
0.99930612
0.99930751
0.99930852
0.99930912
0.99930932
0.99930919
0.99930893
0.99930173
0.99930391
0.99930612
0.99930805
0.99930957
0.99931063
0.9993112
0.99931129
0.99931097
0.99931052
0.99930284
0.99930515
0.99930751
0.99930957
0.99931117
0.99931225
0.99931279
0.99931279
0.99931233
0.99931176
0.99930369
0.99930608
0.99930852
0.99931063
0.99931225
0.99931333
0.99931384
0.99931379
0.99931325
0.99931261
0.99930427
0.99930668
0.99930912
0.9993112
0.99931279
0.99931384
0.99931434
0.99931428
0.99931373
0.99931306
0.99930461
0.99930699
0.99930932
0.99931129
0.99931279
0.99931379
0.99931428
0.99931426
0.99931377
0.99931313
0.99930481
0.99930706
0.99930919
0.99931097
0.99931233
0.99931325
0.99931373
0.99931377
0.9993134
0.99931288
0.99930506
0.99930706
0.99930893
0.99931053
0.99931176
0.99931261
0.99931306
0.99931313
0.99931288
0.99931251
0.99881526
0.99881744
0.99881982
0.99882205
0.99882393
0.99882536
0.99882632
0.99882687
0.99882714
0.9988274
0.99881744
0.99882019
0.99882303
0.99882558
0.99882767
0.99882923
0.99883023
0.99883073
0.99883077
0.99883061
0.99881982
0.99882303
0.99882634
0.99882928
0.99883163
0.99883332
0.99883431
0.99883464
0.99883433
0.99883372
0.99882205
0.99882558
0.99882928
0.99883253
0.9988351
0.99883687
0.99883782
0.99883796
0.99883732
0.99883639
0.99882393
0.99882767
0.99883163
0.9988351
0.9988378
0.99883962
0.99884051
0.99884049
0.99883962
0.99883847
0.99882536
0.99882923
0.99883331
0.99883687
0.99883962
0.99884144
0.99884229
0.99884217
0.99884117
0.99883989
0.99882632
0.99883023
0.99883431
0.99883782
0.99884051
0.99884229
0.99884311
0.99884298
0.99884196
0.99884064
0.99882687
0.99883073
0.99883464
0.99883796
0.99884049
0.99884217
0.99884298
0.99884292
0.99884201
0.99884074
0.99882713
0.99883077
0.99883433
0.99883732
0.99883962
0.99884117
0.99884196
0.99884201
0.99884132
0.99884026
0.9988274
0.99883061
0.99883372
0.99883639
0.99883847
0.99883989
0.99884064
0.99884074
0.99884026
0.99883949
0.99832094
0.99832379
0.99832709
0.99833021
0.99833285
0.99833485
0.99833618
0.99833692
0.99833717
0.99833731
0.99832379
0.99832741
0.99833136
0.99833494
0.99833789
0.99834008
0.99834148
0.99834213
0.99834205
0.99834156
0.99832709
0.99833136
0.99833598
0.99834012
0.99834344
0.99834582
0.9983472
0.9983476
0.99834701
0.99834589
0.99833021
0.99833494
0.99834012
0.99834472
0.99834834
0.99835085
0.99835216
0.99835228
0.99835123
0.99834963
0.99833285
0.99833789
0.99834344
0.99834834
0.99835217
0.99835473
0.99835596
0.99835586
0.99835447
0.99835256
0.99833485
0.99834008
0.99834582
0.99835085
0.99835473
0.9983573
0.99835846
0.99835823
0.99835665
0.99835455
0.99833618
0.99834148
0.9983472
0.99835216
0.99835596
0.99835846
0.9983596
0.99835935
0.99835774
0.99835558
0.99833692
0.99834213
0.9983476
0.99835228
0.99835586
0.99835823
0.99835935
0.99835919
0.99835775
0.99835568
0.99833717
0.99834205
0.99834701
0.99835123
0.99835447
0.99835665
0.99835775
0.99835775
0.99835664
0.99835489
0.99833731
0.99834156
0.99834589
0.99834963
0.99835256
0.99835455
0.99835558
0.99835568
0.99835489
0.99835362
0.9978144
0.9978178
0.99782196
0.99782597
0.99782936
0.99783193
0.99783361
0.99783447
0.99783462
0.9978345
0.9978178
0.99782216
0.99782716
0.99783177
0.99783558
0.99783839
0.99784015
0.99784089
0.99784059
0.99783964
0.99782196
0.99782716
0.99783305
0.99783839
0.99784268
0.99784574
0.99784748
0.99784788
0.9978469
0.99784512
0.99782597
0.99783177
0.99783839
0.99784433
0.99784903
0.99785225
0.99785389
0.99785393
0.99785233
0.99784993
0.99782936
0.99783558
0.99784268
0.99784903
0.99785398
0.99785728
0.99785882
0.99785855
0.99785651
0.99785369
0.99783193
0.99783839
0.99784574
0.99785225
0.99785728
0.99786059
0.99786204
0.9978616
0.99785931
0.99785625
0.99783361
0.99784015
0.99784748
0.99785389
0.99785882
0.99786204
0.99786344
0.997863
0.99786068
0.99785753
0.99783447
0.99784089
0.99784788
0.99785393
0.99785855
0.99786161
0.997863
0.99786269
0.99786059
0.99785758
0.99783462
0.99784059
0.9978469
0.99785233
0.99785651
0.99785931
0.99786068
0.99786059
0.99785895
0.99785641
0.9978345
0.99783964
0.99784512
0.99784993
0.99785369
0.99785625
0.99785754
0.99785758
0.99785641
0.99785455
0.99729537
0.99729924
0.99730421
0.99730907
0.99731321
0.99731632
0.9973183
0.99731922
0.99731917
0.99731871
0.99729924
0.99730422
0.99731021
0.99731582
0.99732047
0.99732389
0.99732596
0.99732671
0.99732607
0.99732458
0.99730421
0.99731021
0.9973173
0.99732381
0.99732907
0.99733279
0.99733483
0.99733515
0.99733365
0.99733113
0.99730907
0.99731582
0.99732381
0.99733108
0.99733684
0.99734076
0.99734268
0.99734254
0.99734026
0.99733697
0.99731321
0.99732047
0.99732907
0.99733684
0.99734292
0.99734694
0.99734872
0.9973482
0.99734537
0.99734155
0.99731631
0.99732389
0.99733279
0.99734076
0.99734694
0.99735096
0.99735264
0.99735191
0.99734878
0.99734465
0.9973183
0.99732596
0.99733483
0.99734268
0.99734872
0.99735264
0.99735427
0.99735353
0.99735038
0.99734616
0.99731922
0.99732671
0.99733515
0.99734254
0.9973482
0.99735191
0.99735353
0.99735297
0.99735011
0.99734609
0.99731917
0.99732607
0.99733365
0.99734027
0.99734537
0.99734878
0.99735038
0.99735011
0.99734786
0.99734446
0.99731871
0.99732458
0.99733113
0.99733697
0.99734155
0.99734465
0.99734616
0.99734609
0.99734446
0.997342
0.99676357
0.99676784
0.99677356
0.99677924
0.99678408
0.9967877
0.99678993
0.99679083
0.9967905
0.99678963
0.99676783
0.99677334
0.99678025
0.99678683
0.99679229
0.99679627
0.9967986
0.99679927
0.99679819
0.99679611
0.99677356
0.99678024
0.99678846
0.99679612
0.99680231
0.99680665
0.99680893
0.99680907
0.99680695
0.99680363
0.99677924
0.99678683
0.99679612
0.99680468
0.99681147
0.99681605
0.99681818
0.99681775
0.9968147
0.99681045
0.99678408
0.99679229
0.99680231
0.99681147
0.99681864
0.99682334
0.9968253
0.99682443
0.9968207
0.99681583
0.9967877
0.99679627
0.99680665
0.99681605
0.99682334
0.99682804
0.99682988
0.99682876
0.99682467
0.99681944
0.99678993
0.9967986
0.99680893
0.99681818
0.9968253
0.99682988
0.99683167
0.99683054
0.99682644
0.99682112
0.99679083
0.99679927
0.99680907
0.99681775
0.99682443
0.99682876
0.99683054
0.99682964
0.99682593
0.99682087
0.9967905
0.99679819
0.99680695
0.9968147
0.9968207
0.99682467
0.99682645
0.99682593
0.99682298
0.99681873
0.99678963
0.99679611
0.99680363
0.99681045
0.99681583
0.99681944
0.99682112
0.99682087
0.99681873
0.99681566
0.99621866
0.99622329
0.9962297
0.99623616
0.99624167
0.99624575
0.99624817
0.99624898
0.99624828
0.99624696
0.99622329
0.99622925
0.996237
0.9962445
0.99625073
0.99625523
0.99625774
0.99625824
0.99625663
0.99625393
0.9962297
0.996237
0.99624626
0.996255
0.99626209
0.99626699
0.99626943
0.99626929
0.99626646
0.99626235
0.99623615
0.99624449
0.996255
0.9962648
0.99627258
0.99627777
0.99628003
0.9962792
0.99627528
0.99627009
0.99624167
0.99625073
0.99626209
0.99627258
0.99628081
0.99628613
0.99628819
0.99628684
0.99628214
0.99627621
0.99624575
0.99625522
0.99626699
0.99627777
0.99628613
0.99629145
0.99629337
0.99629174
0.99628663
0.99628028
0.99624817
0.99625774
0.99626943
0.99628003
0.99628819
0.99629337
0.99629524
0.99629362
0.99628851
0.99628208
0.99624898
0.99625824
0.99626929
0.99627921
0.99628684
0.99629174
0.99629362
0.99629229
0.99628766
0.99628159
0.99624828
0.99625663
0.99626646
0.99627529
0.99628214
0.99628663
0.99628851
0.99628766
0.99628398
0.99627889
0.99624696
0.99625393
0.99626235
0.99627009
0.99627621
0.99628028
0.99628208
0.99628159
0.99627889
0.99627524
0.99566033
0.99566528
0.99567233
0.99567951
0.99568565
0.99569013
0.99569268
0.9956933
0.99569217
0.99569039
0.99566528
0.99567164
0.99568017
0.99568852
0.99569548
0.99570042
0.99570305
0.99570327
0.99570108
0.99569777
0.99567233
0.99568017
0.99569039
0.99570015
0.99570807
0.99571348
0.995716
0.99571547
0.99571187
0.99570697
0.99567951
0.99568852
0.99570015
0.99571112
0.99571984
0.99572555
0.99572785
0.99572654
0.99572169
0.99571556
0.99568565
0.99569547
0.99570807
0.99571984
0.99572905
0.99573492
0.99573699
0.99573507
0.99572933
0.99572237
0.99569013
0.99570042
0.99571348
0.99572555
0.99573492
0.99574079
0.99574271
0.99574047
0.99573427
0.99572685
0.99569268
0.99570305
0.995716
0.99572785
0.99573699
0.99574271
0.99574457
0.99574236
0.9957362
0.99572871
0.9956933
0.99570327
0.99571547
0.99572654
0.99573508
0.99574047
0.99574236
0.99574053
0.99573495
0.99572792
0.99569217
0.99570108
0.99571187
0.99572169
0.99572934
0.99573428
0.9957362
0.99573495
0.9957305
0.99572465
0.99569039
0.99569777
0.99570697
0.99571556
0.99572238
0.99572685
0.99572872
0.99572793
0.99572465
0.99572047
0.99508822
0.99509346
0.9951011
0.99510895
0.99511566
0.99512048
0.99512308
0.99512345
0.99512184
0.9951196
0.99509346
0.9951002
0.99510943
0.99511857
0.99512618
0.99513151
0.99513416
0.99513403
0.99513121
0.9951273
0.9951011
0.99510943
0.99512053
0.99513124
0.99513993
0.99514575
0.99514826
0.99514725
0.99514284
0.99513719
0.99510894
0.99511857
0.99513124
0.99514329
0.99515286
0.99515903
0.99516127
0.99515938
0.99515356
0.99514655
0.99511565
0.99512618
0.99513992
0.99515286
0.99516299
0.99516933
0.99517131
0.99516874
0.99516193
0.99515399
0.99512048
0.99513151
0.99514575
0.99515903
0.99516933
0.99517566
0.99517748
0.99517456
0.99516725
0.99515882
0.99512308
0.99513416
0.99514826
0.99516127
0.99517131
0.99517748
0.99517925
0.99517638
0.99516914
0.99516068
0.99512345
0.99513403
0.99514725
0.99515938
0.99516874
0.99517456
0.99517638
0.99517397
0.99516743
0.99515954
0.99512184
0.99513121
0.99514284
0.99515356
0.99516193
0.99516725
0.99516914
0.99516744
0.99516221
0.99515569
0.9951196
0.9951273
0.99513719
0.99514655
0.99515399
0.99515882
0.99516068
0.99515954
0.99515569
0.99515102
0.99450196
0.99450748
0.99451565
0.99452411
0.99453133
0.99453643
0.994539
0.99453904
0.99453693
0.99453424
0.99450748
0.99451456
0.99452443
0.99453429
0.99454249
0.99454812
0.99455071
0.99455015
0.99454667
0.9945422
0.99451565
0.99452443
0.99453634
0.99454791
0.99455728
0.99456344
0.99456584
0.99456428
0.99455904
0.99455269
0.99452411
0.99453429
0.99454791
0.99456096
0.9945713
0.99457782
0.99457991
0.99457736
0.99457057
0.99456273
0.99453132
0.99454249
0.99455728
0.9945713
0.99458225
0.99458895
0.99459076
0.99458745
0.99457957
0.99457072
0.99453643
0.99454812
0.99456344
0.99457782
0.99458895
0.99459566
0.99459728
0.99459361
0.9945852
0.99457583
0.994539
0.99455071
0.99456584
0.99457991
0.99459076
0.99459728
0.99459887
0.99459528
0.99458699
0.99457763
0.99453904
0.99455015
0.99456428
0.99457736
0.99458745
0.99459361
0.99459528
0.99459223
0.99458477
0.99457609
0.99453693
0.99454667
0.99455904
0.99457057
0.99457957
0.9945852
0.99458699
0.99458477
0.9945788
0.99457168
0.99453424
0.9945422
0.99455269
0.99456273
0.99457072
0.99457583
0.99457763
0.99457609
0.99457168
0.99456658
0.99390117
0.99390695
0.99391561
0.99392462
0.99393227
0.99393758
0.99394006
0.99393972
0.99393707
0.99393395
0.99390695
0.99391435
0.99392481
0.99393532
0.99394402
0.99394987
0.99395233
0.99395128
0.99394712
0.99394212
0.99391561
0.99392481
0.99393744
0.99394979
0.99395975
0.99396616
0.99396837
0.9939662
0.99396012
0.99395312
0.99392461
0.99393532
0.99394979
0.99396373
0.99397474
0.99398153
0.99398339
0.99398011
0.99397235
0.99396375
0.99393227
0.99394402
0.99395975
0.99397474
0.99398641
0.99399339
0.99399492
0.99399083
0.99398189
0.99397222
0.99393758
0.99394987
0.99396616
0.99398153
0.99399339
0.99400037
0.99400171
0.99399724
0.99398775
0.99397753
0.99394006
0.99395232
0.99396837
0.99398339
0.99399492
0.99400171
0.99400304
0.99399869
0.99398937
0.99397921
0.99393972
0.99395128
0.9939662
0.99398011
0.99399083
0.99399724
0.99399869
0.99399497
0.99398661
0.99397726
0.99393707
0.99394712
0.99396012
0.99397235
0.99398189
0.99398775
0.99398937
0.99398661
0.99397993
0.99397229
0.99393395
0.99394212
0.99395312
0.99396375
0.99397222
0.99397753
0.99397921
0.99397726
0.99397229
0.99396683
0.99328545
0.99329148
0.99330058
0.99331007
0.9933181
0.99332354
0.99332585
0.99332508
0.99332189
0.99331837
0.99329148
0.99329918
0.99331017
0.99332125
0.99333037
0.99333637
0.99333861
0.99333702
0.99333219
0.9933267
0.99330058
0.99331017
0.99332346
0.9933365
0.99334696
0.99335351
0.99335545
0.99335262
0.99334572
0.99333813
0.99331007
0.99332125
0.9933365
0.99335123
0.99336281
0.99336976
0.99337129
0.99336725
0.99335855
0.99334926
0.99331809
0.99333037
0.99334696
0.99336281
0.99337508
0.99338223
0.99338341
0.9933785
0.99336854
0.99335812
0.99332353
0.99333637
0.99335351
0.99336976
0.99338223
0.99338938
0.99339037
0.99338506
0.99337454
0.99336357
0.99332585
0.99333861
0.99335545
0.99337129
0.99338341
0.99339037
0.99339136
0.99338622
0.99337593
0.99336507
0.99332508
0.99333702
0.99335262
0.99336726
0.9933785
0.99338506
0.99338622
0.99338181
0.99337261
0.99336268
0.99332189
0.99333219
0.99334572
0.99335855
0.99336854
0.99337454
0.99337593
0.99337261
0.99336525
0.99335719
0.99331837
0.9933267
0.99333813
0.99334927
0.99335812
0.99336357
0.99336508
0.99336268
0.99335719
0.99335141
0.99265438
0.99266064
0.99267015
0.99268006
0.99268838
0.99269388
0.99269598
0.99269474
0.99269101
0.99268711
0.99266064
0.99266863
0.99268011
0.99269168
0.99270115
0.9927072
0.99270916
0.99270699
0.9927015
0.99269556
0.99267015
0.99268011
0.99269398
0.99270762
0.99271848
0.9927251
0.99272669
0.99272317
0.99271547
0.99270734
0.99268006
0.99269168
0.99270762
0.99272304
0.99273508
0.9927421
0.99274323
0.99273841
0.99272879
0.99271889
0.99268838
0.99270114
0.99271848
0.99273508
0.99274784
0.99275506
0.99275583
0.99275007
0.99273913
0.99272805
0.99269388
0.99270719
0.9927251
0.99274209
0.99275506
0.99276229
0.99276285
0.99275669
0.99274519
0.99273357
0.99269598
0.99270916
0.99272669
0.99274323
0.99275583
0.99276285
0.99276344
0.9927575
0.9927463
0.99273485
0.99269474
0.99270699
0.99272317
0.99273841
0.99275007
0.99275669
0.9927575
0.99275239
0.99274241
0.992732
0.99269101
0.9927015
0.99271547
0.99272879
0.99273914
0.9927452
0.99274631
0.99274241
0.99273444
0.99272603
0.99268711
0.99269556
0.99270734
0.9927189
0.99272805
0.99273357
0.99273485
0.992732
0.99272603
0.99271998
0.99200753
0.99201402
0.99202388
0.99203415
0.9920427
0.9920482
0.99205002
0.99204829
0.99204402
0.99203976
0.99201402
0.99202228
0.99203419
0.99204618
0.99205591
0.99206194
0.99206356
0.9920608
0.99205466
0.99204831
0.99202388
0.99203419
0.99204859
0.99206273
0.99207391
0.9920805
0.99208168
0.99207745
0.99206899
0.99206037
0.99203415
0.99204618
0.99206273
0.99207874
0.99209113
0.99209812
0.99209881
0.99209318
0.9920827
0.99207225
0.9920427
0.9920559
0.9920739
0.99209113
0.99210428
0.99211148
0.99211176
0.99210515
0.9920933
0.99208163
0.99204819
0.99206194
0.9920805
0.99209812
0.99211148
0.99211867
0.99211876
0.99211175
0.99209935
0.99208715
0.99205002
0.99206356
0.99208168
0.99209881
0.99211176
0.99211876
0.99211889
0.99211217
0.99210013
0.99208817
0.99204829
0.9920608
0.99207745
0.99209318
0.99210515
0.99211175
0.99211217
0.99210636
0.99209567
0.99208486
0.99204402
0.99205466
0.99206899
0.9920827
0.9920933
0.99209935
0.99210013
0.99209567
0.99208714
0.99207844
0.99203976
0.99204831
0.99206037
0.99207226
0.99208164
0.99208715
0.99208817
0.99208486
0.99207844
0.99207217
0.99134447
0.99135116
0.99136134
0.99137191
0.99138062
0.99138604
0.99138755
0.99138531
0.99138051
0.99137593
0.99135116
0.99135968
0.99137197
0.99138431
0.99139422
0.99140016
0.9914014
0.99139803
0.99139127
0.99138455
0.99136133
0.99137196
0.99138683
0.9914014
0.99141279
0.99141928
0.99142001
0.99141506
0.99140587
0.99139682
0.99137191
0.99138431
0.9914014
0.9914179
0.99143054
0.99143742
0.9914376
0.99143118
0.99141989
0.99140895
0.99138061
0.99139422
0.99141279
0.99143054
0.99144396
0.99145105
0.9914508
0.99144335
0.99143065
0.99141847
0.99138604
0.99140016
0.99141928
0.99143742
0.99145105
0.99145813
0.99145769
0.99144985
0.99143661
0.99142392
0.99138754
0.9914014
0.99142001
0.9914376
0.9914508
0.99145769
0.99145733
0.99144983
0.99143703
0.99142464
0.99138531
0.99139803
0.99141506
0.99143118
0.99144335
0.99144985
0.99144983
0.99144335
0.99143202
0.99142088
0.99138051
0.99139127
0.99140587
0.99141989
0.99143065
0.99143661
0.99143703
0.99143202
0.99142297
0.99141404
0.99137593
0.99138455
0.99139682
0.99140895
0.99141847
0.99142392
0.99142464
0.99142088
0.99141404
0.99140759
0.99066472
0.9906716
0.99068206
0.99069287
0.99070167
0.99070698
0.99070812
0.99070537
0.99070006
0.99069517
0.9906716
0.99068036
0.99069298
0.99070561
0.99071563
0.99072143
0.99072224
0.99071825
0.9907109
0.99070384
0.99068205
0.99069298
0.99070826
0.99072317
0.99073469
0.99074101
0.99074125
0.99073558
0.99072571
0.99071626
0.99069287
0.99070561
0.99072317
0.99074006
0.99075286
0.99075956
0.99075919
0.99075198
0.99073994
0.99072857
0.99070167
0.99071563
0.99073469
0.99075286
0.99076646
0.99077335
0.99077253
0.99076427
0.99075078
0.99073816
0.99070697
0.99072142
0.99074101
0.99075956
0.99077335
0.99078024
0.99077924
0.9907706
0.9907566
0.99074348
0.99070812
0.99072224
0.99074125
0.99075919
0.99077253
0.99077924
0.99077836
0.99077011
0.99075662
0.99074388
0.99070536
0.99071825
0.99073558
0.99075198
0.99076427
0.9907706
0.99077011
0.99076298
0.99075107
0.99073968
0.99070006
0.9907109
0.99072571
0.99073994
0.99075079
0.9907566
0.99075662
0.99075108
0.99074157
0.99073246
0.99069517
0.99070384
0.99071626
0.99072857
0.99073816
0.99074349
0.99074389
0.99073968
0.99073246
0.99072586
0.98996781
0.98997487
0.98998557
0.98999657
0.99000541
0.99001054
0.9900113
0.99000802
0.99000224
0.98999706
0.98997487
0.98998386
0.98999677
0.99000962
0.99001968
0.99002527
0.99002563
0.99002104
0.99001313
0.99000575
0.98998556
0.98999677
0.99001239
0.99002758
0.99003916
0.99004524
0.99004495
0.99003859
0.99002808
0.99001828
0.98999656
0.99000962
0.99002758
0.99004478
0.99005765
0.9900641
0.99006316
0.99005518
0.99004244
0.99003069
0.9900054
0.99001968
0.99003916
0.99005765
0.99007133
0.99007796
0.99007655
0.99006749
0.99005329
0.99004028
0.99001053
0.99002527
0.99004524
0.99006409
0.99007796
0.99008459
0.99008301
0.99007359
0.9900589
0.99004543
0.99001129
0.99002563
0.99004495
0.99006316
0.99007655
0.99008301
0.99008158
0.99007262
0.99005852
0.99004549
0.99000802
0.99002104
0.99003859
0.99005519
0.99006749
0.99007359
0.99007262
0.99006487
0.99005246
0.99004086
0.99000224
0.99001313
0.99002808
0.99004244
0.99005329
0.99005891
0.99005852
0.99005246
0.99004254
0.99003329
0.98999706
0.99000575
0.99001828
0.99003069
0.99004029
0.99004544
0.99004549
0.99004086
0.99003329
0.99002656
0.98925327
0.98926049
0.98927138
0.98928252
0.98929135
0.98929626
0.98929661
0.98929283
0.98928658
0.98928114
0.98926048
0.98926968
0.98928284
0.98929585
0.9893059
0.98931123
0.98931112
0.98930594
0.9892975
0.98928984
0.98927138
0.98928284
0.98929876
0.98931415
0.98932572
0.98933151
0.98933069
0.98932365
0.98931254
0.98930243
0.98928252
0.98929585
0.98931415
0.98933157
0.98934444
0.98935058
0.98934906
0.98934035
0.98932697
0.98931488
0.98929134
0.9893059
0.98932571
0.98934444
0.98935812
0.98936443
0.98936242
0.98935261
0.98933776
0.98932441
0.98929626
0.98931123
0.98933151
0.98935058
0.98936443
0.98937075
0.98936857
0.98935843
0.98934312
0.98932935
0.98929661
0.98931112
0.98933069
0.98934906
0.98936242
0.98936857
0.98936659
0.98935696
0.98934231
0.98932905
0.98929283
0.98930594
0.98932365
0.98934035
0.98935261
0.98935843
0.98935696
0.98934863
0.98933576
0.989324
0.98928658
0.9892975
0.98931254
0.98932697
0.98933776
0.98934312
0.98934231
0.98933576
0.98932548
0.98931613
0.98928114
0.98928984
0.98930243
0.98931488
0.98932442
0.98932935
0.98932905
0.989324
0.98931613
0.98930929
0.9885206
0.98852795
0.98853901
0.98855024
0.98855901
0.98856367
0.9885636
0.98855932
0.98855263
0.98854695
0.98852795
0.98853733
0.98855069
0.98856382
0.9885738
0.98857885
0.98857825
0.98857249
0.98856356
0.98855564
0.98853901
0.98855069
0.98856687
0.98858239
0.98859389
0.98859936
0.988598
0.9885903
0.98857864
0.98856824
0.98855024
0.98856382
0.98858239
0.98859998
0.98861278
0.98861857
0.98861646
0.98860705
0.98859307
0.98858068
0.988559
0.98857379
0.98859389
0.98861278
0.98862637
0.98863233
0.98862971
0.98861919
0.98860374
0.98859011
0.98856366
0.98857884
0.98859936
0.98861857
0.98863233
0.98863829
0.98863552
0.98862468
0.98860882
0.9885948
0.9885636
0.98857825
0.98859799
0.98861646
0.98862971
0.98863552
0.98863298
0.98862271
0.98860758
0.98859413
0.98855931
0.98857249
0.9885903
0.98860705
0.98861919
0.98862469
0.98862272
0.98861384
0.98860057
0.98858869
0.98855263
0.98856356
0.98857864
0.98859307
0.98860375
0.98860882
0.98860759
0.98860057
0.98858997
0.98858053
0.98854695
0.98855564
0.98856825
0.98858069
0.98859011
0.9885948
0.98859413
0.98858869
0.98858053
0.98857361
0.98776928
0.98777675
0.98778795
0.98779922
0.98780789
0.98781227
0.98781178
0.98780701
0.98779992
0.98779402
0.98777675
0.98778629
0.98779983
0.98781302
0.98782288
0.98782762
0.98782654
0.98782023
0.98781084
0.98780268
0.98778794
0.98779982
0.98781621
0.98783182
0.9878432
0.98784832
0.9878464
0.9878381
0.98782592
0.98781527
0.98779922
0.98781301
0.98783182
0.9878495
0.98786217
0.98786758
0.98786489
0.98785482
0.9878403
0.98782765
0.98780788
0.98782288
0.9878432
0.98786217
0.98787563
0.9878812
0.98787798
0.98786679
0.98785081
0.98783692
0.98781227
0.98782762
0.98784832
0.98786758
0.9878812
0.98788677
0.98788341
0.98787193
0.98785557
0.98784134
0.98781178
0.98782654
0.9878464
0.98786489
0.98787798
0.98788341
0.98788032
0.98786947
0.98785391
0.9878403
0.98780701
0.98782023
0.9878381
0.98785482
0.98786679
0.98787193
0.98786947
0.98786009
0.98784647
0.98783449
0.98779991
0.98781084
0.98782593
0.98784031
0.98785081
0.98785557
0.98785391
0.98784647
0.98783557
0.98782607
0.98779402
0.98780268
0.98781527
0.98782766
0.98783693
0.98784134
0.98784031
0.98783449
0.98782607
0.98781908
0.9869988
0.98700637
0.98701767
0.98702896
0.98703749
0.98704158
0.98704067
0.98703543
0.98702795
0.98702185
0.98700637
0.98701605
0.98702973
0.98704294
0.98705266
0.98705706
0.98705551
0.98704867
0.98703885
0.98703048
0.98701767
0.98702972
0.98704628
0.98706192
0.98707314
0.98707789
0.98707544
0.98706655
0.98705391
0.98704302
0.98702895
0.98704294
0.98706192
0.98707964
0.98709214
0.98709716
0.98709389
0.9870832
0.98706819
0.98705531
0.98703749
0.98705266
0.98707314
0.98709214
0.98710542
0.98711058
0.98710677
0.98709496
0.9870785
0.98706439
0.98704158
0.98705706
0.98707789
0.98709715
0.98711058
0.98711573
0.9871118
0.98709973
0.98708293
0.98706852
0.98704066
0.9870555
0.98707544
0.98709389
0.98710677
0.9871118
0.98710817
0.98709679
0.98708085
0.98706711
0.98703543
0.98704867
0.98706655
0.9870832
0.98709496
0.98709973
0.98709679
0.98708693
0.987073
0.98706095
0.98702795
0.98703885
0.98705391
0.9870682
0.9870785
0.98708293
0.98708085
0.987073
0.98706185
0.98705229
0.98702185
0.98703048
0.98704302
0.98705531
0.9870644
0.98706852
0.98706712
0.98706095
0.9870523
0.98704524
0.98620863
0.98621628
0.98622766
0.98623893
0.9862473
0.98625108
0.98624976
0.98624408
0.98623624
0.98622994
0.98621628
0.98622609
0.98623986
0.98625307
0.98626262
0.98626667
0.98626465
0.98625732
0.98624711
0.98623853
0.98622766
0.98623986
0.98625655
0.98627219
0.98628322
0.98628758
0.98628461
0.98627517
0.9862621
0.98625101
0.98623892
0.98625307
0.98627218
0.9862899
0.9863022
0.9863068
0.98630298
0.98629171
0.98627627
0.98626317
0.9862473
0.98626261
0.98628321
0.9863022
0.98631526
0.98631999
0.98631562
0.98630323
0.98628633
0.98627204
0.98625108
0.98626667
0.98628758
0.9863068
0.98631999
0.98632472
0.98632024
0.98630762
0.98629042
0.98627586
0.98624975
0.98626465
0.98628461
0.98630298
0.98631562
0.98632024
0.9863161
0.98630421
0.98628794
0.9862741
0.98624408
0.98625732
0.98627517
0.98629172
0.98630323
0.98630762
0.98630421
0.98629392
0.98627971
0.9862676
0.98623623
0.98624711
0.98626211
0.98627627
0.98628634
0.98629043
0.98628794
0.98627971
0.98626833
0.98625873
0.98622994
0.98623853
0.98625101
0.98626318
0.98627205
0.98627586
0.9862741
0.9862676
0.98625874
0.98625162
0.98539823
0.98540595
0.98541738
0.9854286
0.9854368
0.98544027
0.98543854
0.98543244
0.98542426
0.98541779
0.98540595
0.98541586
0.98542971
0.98544288
0.98545223
0.98545594
0.98545347
0.98544567
0.9854351
0.98542633
0.98541737
0.98542971
0.98544649
0.98546209
0.98547291
0.98547689
0.98547342
0.98546348
0.98545001
0.98543873
0.9854286
0.98544287
0.98546209
0.98547977
0.98549184
0.98549603
0.98549167
0.98547987
0.98546402
0.98545074
0.98543679
0.98545222
0.98547291
0.98549184
0.98550465
0.98550896
0.98550405
0.98549112
0.98547384
0.98545938
0.98544026
0.98545593
0.98547689
0.98549603
0.98550896
0.98551327
0.98550826
0.98549513
0.98547758
0.98546289
0.98543853
0.98545346
0.98547342
0.98549167
0.98550405
0.98550826
0.98550362
0.98549128
0.98547471
0.98546078
0.98543244
0.98544567
0.98546348
0.98547988
0.98549113
0.98549513
0.98549128
0.98548058
0.98546613
0.98545397
0.98542426
0.9854351
0.98545002
0.98546403
0.98547385
0.98547759
0.98547471
0.98546613
0.98545454
0.98544491
0.98541779
0.98542634
0.98543873
0.98545075
0.98545939
0.9854629
0.98546079
0.98545397
0.98544491
0.98543775
0.98456706
0.98457484
0.98458629
0.98459744
0.98460545
0.98460861
0.98460649
0.9846
0.98459151
0.98458488
0.98457483
0.98458483
0.98459873
0.98461183
0.98462097
0.98462434
0.98462143
0.98461321
0.9846023
0.98459337
0.98458628
0.98459872
0.98461557
0.98463111
0.98464171
0.98464531
0.98464136
0.98463094
0.98461712
0.98460566
0.98459744
0.98461182
0.98463111
0.98464872
0.98466055
0.98466433
0.98465947
0.98464718
0.98463097
0.98461752
0.98460544
0.98462097
0.9846417
0.98466054
0.9846731
0.98467698
0.98467157
0.98465815
0.98464052
0.98462592
0.9846086
0.98462433
0.9846453
0.98466433
0.98467698
0.98468087
0.98467537
0.98466178
0.98464392
0.98462911
0.98460648
0.98462143
0.98464136
0.98465947
0.98467157
0.98467537
0.98467027
0.9846575
0.98464067
0.98462667
0.9846
0.98461321
0.98463094
0.98464718
0.98465815
0.98466178
0.9846575
0.98464644
0.98463177
0.98461956
0.98459151
0.9846023
0.98461713
0.98463097
0.98464053
0.98464392
0.98464067
0.98463177
0.98462
0.98461033
0.98458488
0.98459337
0.98460567
0.98461752
0.98462592
0.98462912
0.98462667
0.98461957
0.98461033
0.98460312
0.98371457
0.98372238
0.98373383
0.98374491
0.98375271
0.98375557
0.98375308
0.98374622
0.98373745
0.98373068
0.98372237
0.98373243
0.98374636
0.98375938
0.98376831
0.98377134
0.98376803
0.98375941
0.98374819
0.9837391
0.98373383
0.98374636
0.98376325
0.98377871
0.98378907
0.9837923
0.98378791
0.98377706
0.98376291
0.98375129
0.9837449
0.98375938
0.98377871
0.98379623
0.9838078
0.98381119
0.98380586
0.98379312
0.98377657
0.98376297
0.98375271
0.98376831
0.98378906
0.9838078
0.98382008
0.98382356
0.98381767
0.9838038
0.98378586
0.98377113
0.98375556
0.98377133
0.9837923
0.98381119
0.98382356
0.98382704
0.98382107
0.98380706
0.98378892
0.98377402
0.98375307
0.98376802
0.98378791
0.98380586
0.98381767
0.98382107
0.98381554
0.98380239
0.98378532
0.98377125
0.98374622
0.9837594
0.98377706
0.98379312
0.98380381
0.98380706
0.98380239
0.98379099
0.98377612
0.98376388
0.98373745
0.98374819
0.98376291
0.98377658
0.98378587
0.98378893
0.98378532
0.98377612
0.98376418
0.98375448
0.98373068
0.98373911
0.9837513
0.98376298
0.98377113
0.98377402
0.98377126
0.98376388
0.98375448
0.98374723
0.98284018
0.98284801
0.98285946
0.98287044
0.98287805
0.9828806
0.98287776
0.98287057
0.98286154
0.98285463
0.98284801
0.98285812
0.98287206
0.98288499
0.9828937
0.9828964
0.98289271
0.98288372
0.98287222
0.982863
0.98285946
0.98287206
0.98288897
0.98290433
0.98291446
0.98291733
0.98291253
0.98290128
0.98288684
0.98287508
0.98287044
0.98288498
0.98290433
0.98292175
0.98293306
0.98293608
0.98293031
0.98291716
0.98290032
0.98288658
0.98287804
0.98289369
0.98291445
0.98293306
0.98294508
0.98294817
0.98294183
0.98292756
0.98290934
0.98289449
0.9828806
0.9828964
0.98291733
0.98293608
0.98294817
0.98295126
0.98294486
0.98293047
0.98291208
0.98289708
0.98287776
0.98289271
0.98291253
0.98293031
0.98294183
0.98294486
0.98293892
0.98292543
0.98290814
0.98289402
0.98287057
0.98288372