/*--------------------------------*- C++ -*----------------------------------*\
| =========                 |                                                 |
| \\      /  F ield         | OpenFOAM: The Open Source CFD Toolbox           |
|  \\    /   O peration     | Version:  dev                                   |
|   \\  /    A nd           | Web:      www.OpenFOAM.org                      |
|    \\/     M anipulation  |                                                 |
\*---------------------------------------------------------------------------*/
FoamFile
{
    version     2.0;
    format      ascii;
    class       surfaceScalarField;
    location    "7";
    object      phi;
}
// * * * * * * * * * * * * * * * * * * * * * * * * * * * * * * * * * * * * * //

dimensions      [0 3 -1 0 0 0 0];

internalField   nonuniform List<scalar> 
27900
(
1.8615677e-06
1.8615678e-06
6.2768646e-06
2.0702592e-06
2.0578105e-06
7.7334981e-06
2.1043841e-06
2.0902024e-06
7.8756726e-06
2.1014644e-06
2.101076e-06
7.9018436e-06
2.0823331e-06
2.1074216e-06
7.9117096e-06
2.0498946e-06
2.1115714e-06
7.9208671e-06
1.9871679e-06
2.1157347e-06
7.946992e-06
1.870356e-06
2.1142226e-06
8.0025893e-06
1.4947729e-06
2.1043398e-06
8.2712433e-06
1.9317552e-06
9.5630177e-06
2.0578104e-06
2.0702593e-06
7.7334981e-06
2.3005078e-06
2.3005079e-06
9.5146053e-06
2.3414693e-06
2.3410787e-06
9.7081623e-06
2.3329628e-06
2.3563189e-06
9.7532635e-06
2.3018489e-06
2.364449e-06
9.7740863e-06
2.2512923e-06
2.3688888e-06
9.7932392e-06
2.1616718e-06
2.3708152e-06
9.8345399e-06
1.998911e-06
2.3643888e-06
9.9125946e-06
1.5560095e-06
2.3348188e-06
1.0212423e-05
2.1041059e-06
1.1383659e-05
2.0902024e-06
2.1043842e-06
7.8756728e-06
2.3410786e-06
2.3414694e-06
9.7081624e-06
2.3825854e-06
2.3825855e-06
9.9169864e-06
2.3706489e-06
2.3978056e-06
9.9704498e-06
2.3335347e-06
2.4052934e-06
9.9962696e-06
2.2751605e-06
2.4085929e-06
1.001867e-05
2.1753958e-06
2.4080949e-06
1.0062485e-05
2.0018749e-06
2.3985371e-06
1.0139373e-05
1.5477928e-06
2.362028e-06
1.0426873e-05
2.1216038e-06
1.1530295e-05
2.101076e-06
2.1014644e-06
7.9018439e-06
2.3563188e-06
2.3329628e-06
9.7532637e-06
2.3978055e-06
2.3706489e-06
9.9704498e-06
2.3834952e-06
2.3834952e-06
1.0028621e-05
2.3427033e-06
2.3890298e-06
1.0057055e-05
2.2799784e-06
2.3906968e-06
1.0080621e-05
2.175266e-06
2.3885838e-06
1.0124223e-05
1.9976052e-06
2.3783739e-06
1.0197824e-05
1.5414987e-06
2.3422704e-06
1.0475864e-05
2.1090301e-06
1.1554073e-05
2.1074216e-06
2.0823331e-06
7.9117099e-06
2.364449e-06
2.3018489e-06
9.7740865e-06
2.4052933e-06
2.3335347e-06
9.9962698e-06
2.3890298e-06
2.3427033e-06
1.0057055e-05
2.3456763e-06
2.3456763e-06
1.0086707e-05
2.2801452e-06
2.3456762e-06
1.0110552e-05
2.1725244e-06
2.3427159e-06
1.0153489e-05
1.9928286e-06
2.3335799e-06
1.022449e-05
1.5364123e-06
2.3018521e-06
1.0496835e-05
2.0830652e-06
1.1562377e-05
2.1115713e-06
2.0498945e-06
7.9208674e-06
2.3688887e-06
2.2512922e-06
9.7932394e-06
2.4085928e-06
2.2751605e-06
1.001867e-05
2.3906968e-06
2.2799784e-06
1.0080621e-05
2.3456762e-06
2.2801451e-06
1.0110552e-05
2.2784786e-06
2.2784785e-06
1.0134395e-05
2.1692263e-06
2.2749151e-06
1.0177053e-05
1.9883951e-06
2.2675208e-06
1.024689e-05
1.5322676e-06
2.2419812e-06
1.0515999e-05
2.0437769e-06
1.1571556e-05
2.1157346e-06
1.9871678e-06
7.9469922e-06
2.3708152e-06
2.1616717e-06
9.83454e-06
2.4080948e-06
2.1753957e-06
1.0062485e-05
2.3885837e-06
2.175266e-06
1.0124223e-05
2.3427159e-06
2.1725243e-06
1.0153489e-05
2.2749152e-06
2.1692262e-06
1.0177053e-05
2.1650007e-06
2.1650006e-06
1.0219829e-05
1.9831403e-06
2.1595104e-06
1.0289871e-05
1.5268581e-06
2.1410711e-06
1.0557192e-05
1.9713265e-06
1.1599309e-05
2.1142225e-06
1.8703559e-06
8.0025895e-06
2.3643887e-06
1.9989109e-06
9.9125946e-06
2.398537e-06
2.0018748e-06
1.0139373e-05
2.3783738e-06
1.9976051e-06
1.0197824e-05
2.3335799e-06
1.9928285e-06
1.022449e-05
2.2675208e-06
1.988395e-06
1.024689e-05
2.1595105e-06
1.9831402e-06
1.0289871e-05
1.9786219e-06
1.9786218e-06
1.0361777e-05
1.5237816e-06
1.9645324e-06
1.0631379e-05
1.8377632e-06
1.1657345e-05
2.1043398e-06
1.4947728e-06
8.2712433e-06
2.3348187e-06
1.5560095e-06
1.0212423e-05
2.3620279e-06
1.5477928e-06
1.0426873e-05
2.3422704e-06
1.5414986e-06
1.0475864e-05
2.3018521e-06
1.5364122e-06
1.0496834e-05
2.2419812e-06
1.5322675e-06
1.0515998e-05
2.1410712e-06
1.526858e-06
1.0557192e-05
1.9645325e-06
1.5237815e-06
1.0631379e-05
1.5093251e-06
1.509325e-06
1.0910415e-05
1.4253869e-06
1.1921701e-05
1.9317552e-06
9.5630177e-06
2.1041059e-06
1.1383659e-05
2.1216037e-06
1.1530295e-05
2.10903e-06
1.1554072e-05
2.0830652e-06
1.1562377e-05
2.043777e-06
1.1571556e-05
1.9713265e-06
1.1599308e-05
1.8377633e-06
1.1657345e-05
1.4253869e-06
1.1921701e-05
1.2850774e-05
1.1152751e-06
1.1152752e-06
4.0463143e-06
1.4455656e-06
1.4501131e-06
5.9530945e-06
1.518409e-06
1.5233193e-06
6.27951e-06
1.5093566e-06
1.548654e-06
6.362242e-06
1.4612181e-06
1.5629796e-06
6.3968685e-06
1.3766274e-06
1.5718092e-06
6.4336486e-06
1.2300759e-06
1.5796719e-06
6.5138716e-06
9.5742618e-07
1.5729434e-06
6.7022957e-06
4.5958495e-07
1.5444375e-06
7.2246471e-06
1.241294e-06
8.7813087e-06
1.450113e-06
1.4455658e-06
5.9530946e-06
1.8892792e-06
1.8892794e-06
8.6362727e-06
1.9879679e-06
1.9938176e-06
9.1389753e-06
1.9652149e-06
2.0335578e-06
9.2911127e-06
1.8824597e-06
2.0542668e-06
9.3655543e-06
1.7435998e-06
2.0652418e-06
9.4386665e-06
1.5201189e-06
2.0690752e-06
9.5686176e-06
1.1247103e-06
2.0507185e-06
9.830228e-06
4.926591e-07
1.9715256e-06
1.0417386e-05
1.5206626e-06
1.1596949e-05
1.5233192e-06
1.5184091e-06
6.2795102e-06
1.9938174e-06
1.987968e-06
9.1389755e-06
2.0978978e-06
2.097898e-06
9.7088256e-06
2.066822e-06
2.1391433e-06
9.8959401e-06
1.967255e-06
2.1589995e-06
9.9911039e-06
1.805525e-06
2.1674903e-06
1.0078152e-05
1.5540506e-06
2.1654669e-06
1.0217568e-05
1.1292306e-06
2.1386632e-06
1.0476248e-05
4.7538538e-07
2.0400736e-06
1.101217e-05
1.5591556e-06
1.1967187e-05
1.5486539e-06
1.5093567e-06
6.3622424e-06
2.0335576e-06
1.965215e-06
9.291113e-06
2.1391432e-06
2.0668221e-06
9.8959402e-06
2.1023087e-06
2.1023088e-06
1.010229e-05
1.9928138e-06
2.1173812e-06
1.0208169e-05
1.8189801e-06
2.1218135e-06
1.0300131e-05
1.5545238e-06
2.1157716e-06
1.0438375e-05
1.1192738e-06
2.0873011e-06
1.0684436e-05
4.6280284e-07
1.9898953e-06
1.1182513e-05
1.5278161e-06
1.2048215e-05
1.5629796e-06
1.4612181e-06
6.3968689e-06
2.0542666e-06
1.8824597e-06
9.3655547e-06
2.1589993e-06
1.967255e-06
9.9911041e-06
2.1173811e-06
1.9928137e-06
1.0208169e-05
2.0011186e-06
2.0011186e-06
1.0319232e-05
1.8197491e-06
2.0011418e-06
1.0412593e-05
1.5479289e-06
1.9929197e-06
1.0548161e-05
1.1078418e-06
1.9675169e-06
1.0784361e-05
4.521875e-07
1.8829386e-06
1.1259446e-05
1.4627524e-06
1.2079628e-05
1.5718091e-06
1.3766273e-06
6.433649e-06
2.0652416e-06
1.7435997e-06
9.4386669e-06
2.1674901e-06
1.8055249e-06
1.0078152e-05
2.1218134e-06
1.81898e-06
1.0300131e-05
2.0011418e-06
1.819749e-06
1.0412593e-05
1.8153624e-06
1.8153623e-06
1.0505954e-05
1.5394805e-06
1.8057232e-06
1.0640131e-05
1.0969084e-06
1.7855476e-06
1.0871432e-05
4.4339514e-07
1.7198419e-06
1.1332608e-05
1.3611907e-06
1.2116513e-05
1.5796718e-06
1.2300757e-06
6.5138719e-06
2.069075e-06
1.5201187e-06
9.5686178e-06
2.1654668e-06
1.5540505e-06
1.0217568e-05
2.1157715e-06
1.5545237e-06
1.0438375e-05
1.9929197e-06
1.5479287e-06
1.0548161e-05
1.8057233e-06
1.5394804e-06
1.0640131e-05
1.5283863e-06
1.5283862e-06
1.0774503e-05
1.0839202e-06
1.5137177e-06
1.1006167e-05
4.3191786e-07
1.4688162e-06
1.1460221e-05
1.1921876e-06
1.220023e-05
1.5729433e-06
9.5742603e-07
6.7022958e-06
2.0507184e-06
1.1247102e-06
9.8302281e-06
2.138663e-06
1.1292304e-06
1.0476248e-05
2.087301e-06
1.1192736e-06
1.0684436e-05
1.9675169e-06
1.1078417e-06
1.0784361e-05
1.7855477e-06
1.0969082e-06
1.0871432e-05
1.5137179e-06
1.0839201e-06
1.1006167e-05
1.0726685e-06
1.0726683e-06
1.1243876e-05
4.2598416e-07
1.0430866e-06
1.1703793e-05
8.8477366e-07
1.2390743e-05
1.5444374e-06
4.5958486e-07
7.2246471e-06
1.9715254e-06
4.92659e-07
1.0417386e-05
2.0400734e-06
4.7538529e-07
1.101217e-05
1.9898952e-06
4.6280276e-07
1.1182513e-05
1.8829386e-06
4.5218742e-07
1.1259445e-05
1.719842e-06
4.4339506e-07
1.1332608e-05
1.4688163e-06
4.3191777e-07
1.146022e-05
1.0430867e-06
4.2598407e-07
1.1703793e-05
3.9873676e-07
3.9873667e-07
1.2199115e-05
3.3523949e-07
1.2869972e-05
1.2412939e-06
8.7813087e-06
1.5206625e-06
1.1596949e-05
1.5591554e-06
1.1967187e-05
1.527816e-06
1.2048215e-05
1.4627524e-06
1.2079628e-05
1.3611908e-06
1.2116512e-05
1.1921878e-06
1.2200229e-05
8.847738e-07
1.2390743e-05
3.3523958e-07
1.2869972e-05
1.3521253e-05
6.8610789e-07
6.86108e-07
2.6740983e-06
1.0047282e-06
1.0316783e-06
4.6027957e-06
1.0907624e-06
1.12493e-06
5.0685458e-06
1.0749332e-06
1.1592353e-06
5.218836e-06
1.0041375e-06
1.1784655e-06
5.2891988e-06
8.8056151e-07
1.1898632e-06
5.3673615e-06
6.8061675e-07
1.1990856e-06
5.5147307e-06
3.4072545e-07
1.1876171e-06
5.8545699e-06
-8.1280457e-08
1.1450715e-06
6.5015814e-06
8.0592491e-07
7.8941033e-06
1.0316782e-06
1.0047284e-06
4.6027959e-06
1.5148683e-06
1.5148685e-06
7.6698925e-06
1.6454263e-06
1.6608951e-06
8.4724523e-06
1.6099663e-06
1.718646e-06
8.7671621e-06
1.4841183e-06
1.7485582e-06
8.9213097e-06
1.2737404e-06
1.7640361e-06
9.0748715e-06
9.558478e-07
1.7684102e-06
9.3171857e-06
4.45587e-07
1.7400206e-06
9.7880853e-06
-1.1217997e-07
1.6265109e-06
1.0493713e-05
1.0975595e-06
1.1193135e-05
1.1249299e-06
1.0907626e-06
5.068546e-06
1.6608949e-06
1.6454264e-06
8.4724525e-06
1.8035834e-06
1.8035836e-06
9.4234486e-06
1.7564219e-06
1.8653598e-06
9.7963878e-06
1.6041409e-06
1.8949998e-06
9.9969435e-06
1.357232e-06
1.9074419e-06
1.0181655e-05
9.9637567e-07
1.9037607e-06
1.0443073e-05
4.4357909e-07
1.8628669e-06
1.0906198e-05
-1.379422e-07
1.7201946e-06
1.1500008e-05
1.1458019e-06
1.1781003e-05
1.1592352e-06
1.0749332e-06
5.2188364e-06
1.7186458e-06
1.6099664e-06
8.7671624e-06
1.8653597e-06
1.756422e-06
9.796388e-06
1.8101243e-06
1.8101244e-06
1.0212761e-05
1.6426486e-06
1.8330117e-06
1.0437632e-05
1.3769625e-06
1.8396674e-06
1.0633592e-05
9.967557e-07
1.8302692e-06
1.0892073e-05
4.2942338e-07
1.7870486e-06
1.1327587e-05
-1.539631e-07
1.6465792e-06
1.1839515e-05
1.1006797e-06
1.1939374e-05
1.1784654e-06
1.0041375e-06
5.2891992e-06
1.7485581e-06
1.4841183e-06
8.92131e-06
1.8949996e-06
1.6041409e-06
9.9969437e-06
1.8330117e-06
1.6426486e-06
1.0437633e-05
1.6553692e-06
1.6553692e-06
1.0674517e-05
1.3782751e-06
1.6554331e-06
1.0873921e-05
9.8736629e-07
1.6428961e-06
1.1126443e-05
4.1357841e-07
1.6046967e-06
1.1540501e-05
-1.6755516e-07
1.4851234e-06
1.2002035e-05
1.0059121e-06
1.2006841e-05
1.1898631e-06
8.805614e-07
5.3673619e-06
1.764036e-06
1.2737403e-06
9.0748719e-06
1.9074417e-06
1.3572319e-06
1.0181655e-05
1.8396673e-06
1.3769624e-06
1.0633592e-05
1.6554331e-06
1.378275e-06
1.0873921e-05
1.371743e-06
1.3717429e-06
1.1073335e-05
9.750342e-07
1.3572949e-06
1.1322441e-05
3.9818671e-07
1.3276711e-06
1.1725305e-05
-1.7894634e-07
1.2390689e-06
1.2155796e-05
8.5829193e-07
1.2085187e-05
1.1990855e-06
6.8061659e-07
5.5147311e-06
1.7684101e-06
9.5584764e-07
9.3171859e-06
1.9037606e-06
9.9637551e-07
1.0443074e-05
1.8302691e-06
9.9675555e-07
1.0892073e-05
1.6428961e-06
9.8736613e-07
1.1126443e-05
1.357295e-06
9.7503405e-07
1.1322441e-05
9.5877653e-07
9.5877638e-07
1.157154e-05
3.7997731e-07
9.380171e-07
1.197462e-05
-1.9379198e-07
8.827996e-07
1.2390259e-05
6.2880752e-07
1.2235922e-05
1.187617e-06
3.4072529e-07
5.8545701e-06
1.7400204e-06
4.4558684e-07
9.7880854e-06
1.8628668e-06
4.4357894e-07
1.0906198e-05
1.7870485e-06
4.2942323e-07
1.1327587e-05
1.6046967e-06
4.1357827e-07
1.15405e-05
1.3276712e-06
3.9818657e-07
1.1725305e-05
9.3801726e-07
3.7997716e-07
1.197462e-05
3.6511963e-07
3.6511948e-07
1.2389671e-05
-2.0055454e-07
3.3520418e-07
1.2817063e-05
2.5043731e-07
1.2568559e-05
1.1450714e-06
-8.1280559e-08
6.5015815e-06
1.6265108e-06
-1.1218007e-07
1.0493713e-05
1.7201945e-06
-1.3794229e-07
1.1500008e-05
1.6465791e-06
-1.5396318e-07
1.1839515e-05
1.4851235e-06
-1.6755523e-07
1.2002035e-05
1.239069e-06
-1.7894642e-07
1.2155796e-05
8.8279976e-07
-1.9379206e-07
1.2390259e-05
3.3520433e-07
-2.0055463e-07
1.2817062e-05
-2.2538954e-07
-2.2538963e-07
1.3320302e-05
-2.0012487e-07
1.3095145e-05
8.0592482e-07
7.8941032e-06
1.0975594e-06
1.1193135e-05
1.1458017e-06
1.1781003e-05
1.1006796e-06
1.1939374e-05
1.0059122e-06
1.200684e-05
8.5829202e-07
1.2085186e-05
6.2880767e-07
1.2235922e-05
2.5043746e-07
1.2568558e-05
-2.0012477e-07
1.3095145e-05
1.3121003e-05
4.2699648e-07
4.269966e-07
1.8201051e-06
6.9641967e-07
7.332219e-07
3.6001506e-06
7.7672589e-07
8.3198067e-07
4.1562589e-06
7.5302242e-07
8.7096697e-07
4.3715726e-06
6.6495914e-07
8.9292423e-07
4.484338e-06
5.1547974e-07
9.0561834e-07
4.6112227e-06
2.8780003e-07
9.1518896e-07
4.8272215e-06
-5.2080151e-08
9.0075764e-07
5.2936924e-06
-3.6733561e-07
8.513251e-07
5.9655117e-06
5.2669244e-07
7.0000751e-06
7.3322179e-07
6.9641985e-07
3.6001507e-06
1.190959e-06
1.1909592e-06
6.7544179e-06
1.3272867e-06
1.3569969e-06
7.8111084e-06
1.2787531e-06
1.4261434e-06
8.2605193e-06
1.1182093e-06
1.4621429e-06
8.5126349e-06
8.5569488e-07
1.4804523e-06
8.7625522e-06
4.81468e-07
1.4846876e-06
9.121914e-06
-4.6527751e-08
1.4492701e-06
9.7675686e-06
-4.6572291e-07
1.3179028e-06
1.0446331e-05
7.9295483e-07
1.0461149e-05
8.3198056e-07
7.7672606e-07
4.1562591e-06
1.3569967e-06
1.3272868e-06
7.8111085e-06
1.5116109e-06
1.5116111e-06
9.1142203e-06
1.4488922e-06
1.5874726e-06
9.6977775e-06
1.2536564e-06
1.6241744e-06
1.0030148e-05
9.4312927e-07
1.6394413e-06
1.0333193e-05
5.1459128e-07
1.6343989e-06
1.07219e-05
-6.2621724e-08
1.5837456e-06
1.1348936e-05
-5.0098278e-07
1.4168129e-06
1.1839459e-05
8.3896536e-07
1.1234009e-05
8.7096687e-07
7.5302252e-07
4.3715729e-06
1.4261432e-06
1.2787532e-06
8.2605196e-06
1.5874724e-06
1.4488923e-06
9.6977776e-06
1.5151269e-06
1.515127e-06
1.0357452e-05
1.3003893e-06
1.5437868e-06
1.0732758e-05
9.6565027e-07
1.552131e-06
1.1055642e-05
5.1306573e-07
1.5403019e-06
1.1438755e-05
-8.0607778e-08
1.4870838e-06
1.2017922e-05
-5.1912463e-07
1.3238693e-06
1.2370976e-05
7.8310336e-07
1.1476111e-05
8.9292413e-07
6.6495912e-07
4.4843383e-06
1.4621427e-06
1.1182093e-06
8.5126352e-06
1.6241743e-06
1.2536564e-06
1.0030148e-05
1.5437867e-06
1.3003893e-06
1.0732758e-05
1.3162405e-06
1.3162405e-06
1.112961e-05
9.6708271e-07
1.3163539e-06
1.1458856e-05
5.01457e-07
1.3007976e-06
1.1831573e-05
-9.9253735e-08
1.2545123e-06
1.2373783e-05
-5.3408557e-07
1.1196046e-06
1.2641131e-05
6.6662716e-07
1.1589231e-05
9.0561825e-07
5.1547962e-07
4.611223e-06
1.4804521e-06
8.5569476e-07
8.7625525e-06
1.6394411e-06
9.4312916e-07
1.0333193e-05
1.5521309e-06
9.6565016e-07
1.1055642e-05
1.3163539e-06
9.6708259e-07
1.1458856e-05
9.5895537e-07
9.5895526e-07
1.1788132e-05
4.8637766e-07
9.4125638e-07
1.215456e-05
-1.1739384e-07
9.0657214e-07
1.2677016e-05
-5.4670952e-07
8.1326044e-07
1.2891456e-05
4.8863834e-07
1.1716466e-05
9.1518886e-07
2.8779985e-07
4.8272218e-06
1.4846874e-06
4.8146783e-07
9.1219142e-06
1.6343988e-06
5.1459111e-07
1.07219e-05
1.5403018e-06
5.1306556e-07
1.1438755e-05
1.3007976e-06
5.0145683e-07
1.1831573e-05
9.4125649e-07
4.8637749e-07
1.215456e-05
4.6681375e-07
4.6681358e-07
1.2520426e-05
-1.3856272e-07
4.43857e-07
1.3042711e-05
-5.6311385e-07
3.9428271e-07
1.3233788e-05
2.2849092e-07
1.1932955e-05
9.0075753e-07
-5.2080333e-08
5.2936926e-06
1.44927e-06
-4.6527924e-08
9.7675687e-06
1.5837455e-06
-6.2621888e-08
1.1348936e-05
1.4870837e-06
-8.0607935e-08
1.2017922e-05
1.2545123e-06
-9.9253888e-08
1.2373783e-05
9.0657225e-07
-1.17394e-07
1.2677016e-05
4.4385716e-07
-1.3856288e-07
1.3042711e-05
-1.5373515e-07
-1.5373532e-07
1.3584856e-05
-5.693196e-07
-1.7154076e-07
1.379847e-05
-1.4628205e-07
1.2374012e-05
8.5132499e-07
-3.6733572e-07
5.9655118e-06
1.3179027e-06
-4.6572301e-07
1.044633e-05
1.4168128e-06
-5.0098287e-07
1.1839458e-05
1.3238692e-06
-5.1912471e-07
1.2370975e-05
1.1196046e-06
-5.3408565e-07
1.2641131e-05
8.1326054e-07
-5.467096e-07
1.2891455e-05
3.9428288e-07
-5.6311394e-07
1.3233788e-05
-1.7154059e-07
-5.6931969e-07
1.379847e-05
-5.8309048e-07
-5.8309059e-07
1.4143402e-05
-4.6613974e-07
1.2831912e-05
5.2669234e-07
7.0000751e-06
7.9295466e-07
1.0461149e-05
8.389652e-07
1.1234009e-05
7.8310328e-07
1.1476111e-05
6.6662717e-07
1.1589231e-05
4.8863845e-07
1.1716465e-05
2.2849108e-07
1.1932955e-05
-1.4628188e-07
1.2374012e-05
-4.6613963e-07
1.2831912e-05
1.2188724e-05
2.6631802e-07
2.6631816e-07
1.2874688e-06
4.7868664e-07
5.1784081e-07
2.8699411e-06
5.4416203e-07
6.1244229e-07
3.4783412e-06
5.1189795e-07
6.5259917e-07
3.7512376e-06
4.1148377e-07
6.7556521e-07
3.9091871e-06
2.4751102e-07
6.8865814e-07
4.0865374e-06
1.2804679e-08
6.9809215e-07
4.3638358e-06
-2.9127568e-07
6.8249184e-07
4.9152809e-06
-4.9896937e-07
6.3285853e-07
5.5403468e-06
3.4745089e-07
6.1536547e-06
5.1784068e-07
4.7868685e-07
2.8699411e-06
9.1623191e-07
9.162321e-07
5.9576353e-06
1.0403948e-06
1.084824e-06
7.2145638e-06
9.7779896e-07
1.1592207e-06
7.8164938e-06
7.9090488e-07
1.1985244e-06
8.17657e-06
4.9510111e-07
1.2183585e-06
8.5286558e-06
9.8357059e-08
1.2223475e-06
8.9944028e-06
-3.8795544e-07
1.1834873e-06
9.7528856e-06
-6.5256e-07
1.0488591e-06
1.0294934e-05
5.7223242e-07
9.5838076e-06
6.1244217e-07
5.4416222e-07
3.4783414e-06
1.0848238e-06
1.040395e-06
7.2145639e-06
1.2312047e-06
1.2312049e-06
8.8214587e-06
1.1522432e-06
1.314494e-06
9.6214658e-06
9.2386535e-07
1.3555265e-06
1.0101524e-05
5.7119326e-07
1.3726347e-06
1.0531589e-05
1.1288722e-07
1.3668874e-06
1.1035666e-05
-4.2349676e-07
1.311363e-06
1.1757444e-05
-6.9763639e-07
1.1382883e-06
1.2024169e-05
6.0890988e-07
1.0499695e-05
6.5259906e-07
5.1189805e-07
3.7512378e-06
1.1592205e-06
9.7779906e-07
7.816494e-06
1.3144938e-06
1.1522433e-06
9.6214659e-06
1.2248117e-06
1.2248118e-06
1.0536816e-05
9.7353998e-07
1.2570153e-06
1.1082541e-05
5.9252467e-07
1.2665522e-06
1.154274e-05
1.071751e-07
1.2534995e-06
1.2037493e-05
-4.4581477e-07
1.1956267e-06
1.2686648e-05
-7.1740869e-07
1.0283802e-06
1.2752478e-05
5.4415282e-07
1.0823459e-05
6.755651e-07
4.1148375e-07
3.9091873e-06
1.1985242e-06
7.9090487e-07
8.1765702e-06
1.3555263e-06
9.2386533e-07
1.0101524e-05
1.2570152e-06
9.7353996e-07
1.1082541e-05
9.9098226e-07
9.9098225e-07
1.1661676e-05
5.9335914e-07
9.911444e-07
1.2131887e-05
9.3543362e-08
9.7409711e-07
1.2610791e-05
-4.6637153e-07
9.2496242e-07
1.3204362e-05
-7.328672e-07
7.9249386e-07
1.3143513e-05
4.1288436e-07
1.0987632e-05
6.8865803e-07
2.4751089e-07
4.0865377e-06
1.2183583e-06
4.9510098e-07
8.528656e-06
1.3726345e-06
5.7119313e-07
1.0531589e-05
1.2665521e-06
5.9252454e-07
1.154274e-05
9.9114442e-07
5.9335901e-07
1.2131887e-05
5.8412963e-07
5.841295e-07
1.2602162e-05
7.6694892e-08
5.6489399e-07
1.3071198e-05
-4.8602518e-07
5.2988969e-07
1.3634809e-05
-7.458776e-07
4.4755012e-07
1.3496252e-05
2.1794236e-07
1.116553e-05
6.9809204e-07
1.2804477e-08
4.363836e-06
1.2223473e-06
9.8356868e-08
8.994403e-06
1.3668872e-06
1.1288703e-07
1.1035667e-05
1.2534994e-06
1.0717491e-07
1.2037493e-05
9.7409712e-07
9.3543179e-08
1.2610791e-05
5.6489411e-07
7.6694709e-08
1.3071198e-05
5.5676635e-08
5.5676449e-08
1.3538861e-05
-5.083296e-07
3.4487154e-08
1.410212e-05
-7.6264012e-07
3.1135794e-09
1.3932535e-05
-4.9660157e-08
1.1437918e-05
6.8249173e-07
-2.9127588e-07
4.915281e-06
1.1834872e-06
-3.8795563e-07
9.7528857e-06
1.3113628e-06
-4.2349694e-07
1.1757444e-05
1.1956266e-06
-4.4581494e-07
1.2686648e-05
9.2496243e-07
-4.663717e-07
1.3204362e-05
5.2988981e-07
-4.8602535e-07
1.3634809e-05
3.448734e-08
-5.0832978e-07
1.410212e-05
-5.210049e-07
-5.2100508e-07
1.469584e-05
-7.6720677e-07
-5.188847e-07
1.456667e-05
-3.8330538e-07
1.194045e-05
6.3285841e-07
-4.9896949e-07
5.5403468e-06
1.048859e-06
-6.5256011e-07
1.0294934e-05
1.1382882e-06
-6.976365e-07
1.2024169e-05
1.0283801e-06
-7.1740879e-07
1.2752477e-05
7.9249387e-07
-7.3286729e-07
1.3143513e-05
4.4755024e-07
-7.4587769e-07
1.3496251e-05
3.1137618e-09
-7.6264022e-07
1.3932535e-05
-5.1888452e-07
-7.6720687e-07
1.456667e-05
-7.6692058e-07
-7.6692069e-07
1.4639474e-05
-5.7964582e-07
1.2261332e-05
3.4745077e-07
6.1536547e-06
5.7223224e-07
9.5838075e-06
6.0890971e-07
1.0499695e-05
5.4415272e-07
1.0823459e-05
4.1288437e-07
1.0987632e-05
2.1794247e-07
1.116553e-05
-4.9659972e-08
1.1437917e-05
-3.8330519e-07
1.194045e-05
-5.796457e-07
1.2261332e-05
1.1029432e-05
1.6483541e-07
1.6483556e-07
9.5779768e-07
3.2319559e-07
3.6111174e-07
2.3504691e-06
3.7024242e-07
4.4578381e-07
2.9855106e-06
3.2947188e-07
4.8445097e-07
3.3075573e-06
2.2116559e-07
5.0710945e-07
3.5103841e-06
5.2244744e-08
5.1998832e-07
3.7354701e-06
-1.7442083e-07
5.2913168e-07
4.0613698e-06
-4.2650022e-07
5.1399328e-07
4.653367e-06
-5.3862133e-07
4.6920882e-07
5.183259e-06
2.3192322e-07
5.38311e-06
3.611116e-07
3.2319581e-07
2.3504691e-06
6.865191e-07
6.8651932e-07
5.3068201e-06
7.8721124e-07
8.4489148e-07
6.714764e-06
7.0998344e-07
9.1924012e-07
7.4589326e-06
5.0475129e-07
9.5944271e-07
7.929469e-06
1.9280887e-07
9.7980494e-07
8.3807817e-06
-1.9926546e-07
9.838035e-07
8.9318054e-06
-6.1176192e-07
9.4506912e-07
9.7343062e-06
-7.3021282e-07
8.1856167e-07
1.0064032e-05
4.1105549e-07
8.6744623e-06
4.4578368e-07
3.7024262e-07
2.9855107e-06
8.4489127e-07
7.8721143e-07
6.7147641e-06
9.6884124e-07
9.6884144e-07
8.5735588e-06
8.7297676e-07
1.053314e-06
9.5832566e-06
6.2096631e-07
1.0960771e-06
1.02169e-05
2.4614266e-07
1.1141982e-06
1.077202e-05
-2.1059529e-07
1.1086319e-06
1.1367576e-05
-6.6881807e-07
1.0530894e-06
1.2107646e-05
-7.8412057e-07
8.8861321e-07
1.206942e-05
4.3466784e-07
9.6919623e-06
4.8445085e-07
3.2947199e-07
3.3075574e-06
9.1923992e-07
7.0998355e-07
7.4589327e-06
1.0533138e-06
8.7297687e-07
9.5832567e-06
9.4583812e-07
9.4583824e-07
1.0751768e-05
6.6839282e-07
9.7932473e-07
1.1476739e-05
2.6241468e-07
9.8961048e-07
1.2073306e-05
-2.2270185e-07
9.7669448e-07
1.2654547e-05
-6.9593904e-07
9.1947338e-07
1.3293502e-05
-8.0521939e-07
7.6352261e-07
1.2986848e-05
3.6241871e-07
1.0090489e-05
5.0710934e-07
2.2116557e-07
3.5103842e-06
9.5944251e-07
5.0475127e-07
7.9294692e-06
1.0960769e-06
6.2096629e-07
1.02169e-05
9.7932462e-07
6.6839281e-07
1.1476739e-05
6.85775e-07
6.8577499e-07
1.2248775e-05
2.6176729e-07
6.8597628e-07
1.2859529e-05
-2.3842105e-07
6.6906019e-07
1.3418614e-05
-7.1779747e-07
6.2220384e-07
1.3981008e-05
-8.206209e-07
5.0635241e-07
1.3503507e-05
2.2224723e-07
1.0307183e-05
5.199882e-07
5.2244602e-08
3.7354702e-06
9.7980474e-07
1.9280873e-07
8.3807819e-06
1.114198e-06
2.4614252e-07
1.077202e-05
9.8961036e-07
2.6241455e-07
1.2073306e-05
6.859763e-07
2.6176716e-07
1.2859529e-05
2.5185865e-07
2.5185852e-07
1.3470398e-05
-2.5623799e-07
2.3281036e-07
1.4015545e-05
-7.379605e-07
2.0196656e-07
1.4536769e-05
-8.3341686e-07
1.4228293e-07
1.3955777e-05
2.1330192e-08
1.053303e-05
5.2913157e-07
-1.7442104e-07
4.0613699e-06
9.838033e-07
-1.9926566e-07
8.9318055e-06
1.1086317e-06
-2.1059549e-07
1.1367576e-05
9.7669437e-07
-2.2270205e-07
1.2654547e-05
6.690602e-07
-2.3842124e-07
1.3418614e-05
2.3281049e-07
-2.5623818e-07
1.4015545e-05
-2.7700739e-07
-2.7700759e-07
1.4558497e-05
-7.5985117e-07
-2.9297414e-07
1.5079905e-05
-8.4964234e-07
-2.9822392e-07
1.4462833e-05
-2.3718822e-07
1.0846793e-05
5.1399316e-07
-4.2650044e-07
4.6533671e-06
9.4506892e-07
-6.1176212e-07
9.7343063e-06
1.0530892e-06
-6.6881827e-07
1.2107646e-05
9.1947327e-07
-6.9593923e-07
1.3293502e-05
6.2220385e-07
-7.1779766e-07
1.3981008e-05
2.0196669e-07
-7.3796068e-07
1.4536769e-05
-2.9297394e-07
-7.5985136e-07
1.5079905e-05
-7.6783698e-07
-7.6783717e-07
1.5645566e-05
-8.5190504e-07
-7.423317e-07
1.5094846e-05
-5.1345382e-07
1.1364811e-05
4.6920869e-07
-5.3862147e-07
5.183259e-06
8.1856147e-07
-7.3021295e-07
1.0064032e-05
8.8861303e-07
-7.8412068e-07
1.206942e-05
7.6352251e-07
-8.0521949e-07
1.2986848e-05
5.0635242e-07
-8.20621e-07
1.3503507e-05
1.4228306e-07
-8.3341696e-07
1.3955777e-05
-2.9822373e-07
-8.4964245e-07
1.4462833e-05
-7.423315e-07
-8.5190516e-07
1.5094846e-05
-8.3784392e-07
-8.3784405e-07
1.4830499e-05
-6.0560725e-07
1.1515641e-05
2.3192308e-07
5.3831101e-06
4.1105529e-07
8.6744623e-06
4.3466765e-07
9.6919622e-06
3.6241861e-07
1.0090489e-05
2.2224724e-07
1.0307182e-05
2.1330318e-08
1.053303e-05
-2.3718802e-07
1.0846793e-05
-5.1345361e-07
1.136481e-05
-6.0560712e-07
1.1515641e-05
9.8182176e-06
9.9468392e-08
9.9468548e-08
7.5886061e-07
2.1090759e-07
2.4610222e-07
1.9929276e-06
2.3894359e-07
3.1795083e-07
2.6395238e-06
1.9037294e-07
3.5328269e-07
3.0028453e-06
7.8158402e-08
3.7467769e-07
3.247921e-06
-8.8074711e-08
3.8695255e-07
3.5147507e-06
-2.9630176e-07
3.9583994e-07
3.8737569e-06
-4.9149132e-07
3.8252763e-07
4.4660289e-06
-5.256516e-07
3.4576863e-07
4.8716505e-06
1.5678951e-07
4.7006688e-06
2.4610208e-07
2.1090783e-07
1.9929276e-06
4.9666742e-07
4.9666765e-07
4.8056893e-06
5.6767282e-07
6.3644626e-07
6.3252632e-06
4.7603253e-07
7.0651708e-07
7.1973386e-06
2.5992135e-07
7.4563378e-07
7.7746243e-06
-5.3462197e-08
7.6579419e-07
8.3153238e-06
-4.206068e-07
7.7025002e-07
8.92454e-06
-7.4488438e-07
7.3478496e-07
9.7063264e-06
-7.3852007e-07
6.242972e-07
9.7791393e-06
2.924526e-07
7.800279e-06
3.179507e-07
2.389438e-07
2.6395238e-06
6.3644604e-07
5.6767303e-07
6.3252633e-06
7.2887201e-07
7.2887222e-07
8.3887068e-06
6.1604367e-07
8.0914983e-07
9.5934523e-06
3.4932735e-07
8.513051e-07
1.0377945e-05
-3.0121831e-08
8.697677e-07
1.1047496e-05
-4.611988e-07
8.6535764e-07
1.1703546e-05
-8.2296387e-07
8.1415037e-07
1.2390046e-05
-7.9948781e-07
6.6909329e-07
1.2001147e-05
3.0151588e-07
8.883411e-06
3.5328256e-07
1.9037305e-07
3.0028454e-06
7.0651687e-07
4.7603265e-07
7.1973387e-06
8.0914962e-07
6.1604379e-07
9.5934524e-06
6.8383598e-07
6.838361e-07
1.1002395e-05
3.8991644e-07
7.1646709e-07
1.1905497e-05
-2.2222873e-08
7.2711966e-07
1.2628093e-05
-4.8146368e-07
7.1571516e-07
1.326343e-05
-8.5527903e-07
6.6392012e-07
1.3817547e-05
-8.2171808e-07
5.3057846e-07
1.3091802e-05
2.2306518e-07
9.3472213e-06
3.7467756e-07
7.8158383e-08
3.2479211e-06
7.4563357e-07
2.5992134e-07
7.7746244e-06
8.513049e-07
3.4932733e-07
1.0377945e-05
7.1646697e-07
3.8991642e-07
1.1905497e-05
4.0562412e-07
4.0562411e-07
1.2870462e-05
-2.526762e-08
4.0584792e-07
1.3611693e-05
-4.9946326e-07
3.9063657e-07
1.4217888e-05
-8.7814258e-07
3.5058887e-07
1.4673019e-05
-8.3676359e-07
2.6139112e-07
1.3731315e-05
7.8928024e-08
9.614556e-06
3.8695243e-07
-8.807486e-08
3.5147508e-06
7.6579399e-07
-5.3462338e-08
8.3153239e-06
8.697675e-07
-3.012197e-08
1.1047496e-05
7.2711954e-07
-2.2223012e-08
1.2628093e-05
4.0584793e-07
-2.5267758e-08
1.3611693e-05
-3.5502764e-08
-3.5502902e-08
1.4353099e-05
-5.176038e-07
-5.2760427e-08
1.4941043e-05
-8.9810891e-07
-7.5657905e-08
1.5343521e-05
-8.4896536e-07
-1.052837e-07
1.4273309e-05
-1.1935267e-07
9.8823452e-06
3.9583982e-07
-2.9630199e-07
3.873757e-06
7.7024982e-07
-4.2060702e-07
8.9245401e-06
8.6535744e-07
-4.6119901e-07
1.1703546e-05
7.1571504e-07
-4.8146389e-07
1.326343e-05
3.9063658e-07
-4.9946347e-07
1.4217888e-05
-5.276029e-08
-5.1760401e-07
1.4941043e-05
-5.3663168e-07
-5.3663189e-07
1.552624e-05
-9.183979e-07
-5.4467006e-07
1.5930683e-05
-8.6405854e-07
-5.1993096e-07
1.482314e-05
-3.5783267e-07
1.0221215e-05
3.825275e-07
-4.9149155e-07
4.466029e-06
7.3478475e-07
-7.4488459e-07
9.7063265e-06
8.1415017e-07
-8.2296408e-07
1.2390046e-05
6.6392e-07
-8.5527923e-07
1.3817547e-05
3.5058888e-07
-8.7814278e-07
1.4673019e-05
-7.565777e-08
-8.9810911e-07
1.5343521e-05
-5.4466986e-07
-9.183981e-07
1.5930683e-05
-9.2028408e-07
-9.2028428e-07
1.6396795e-05
-8.6375211e-07
-8.714104e-07
1.5389793e-05
-5.7263815e-07
1.0715864e-05
3.4576849e-07
-5.2565174e-07
4.8716506e-06
6.24297e-07
-7.3852021e-07
9.7791393e-06
6.6909309e-07
-7.9948793e-07
1.2001147e-05
5.3057835e-07
-8.2171819e-07
1.3091802e-05
2.6139113e-07
-8.367637e-07
1.3731315e-05
-1.0528357e-07
-8.4896547e-07
1.4273308e-05
-5.1993075e-07
-8.6405865e-07
1.482314e-05
-8.7141019e-07
-8.6375224e-07
1.5389793e-05
-8.3794676e-07
-8.379469e-07
1.4763572e-05
-5.8311558e-07
1.0688172e-05
1.5678937e-07
4.7006688e-06
2.9245239e-07
7.800279e-06
3.0151568e-07
8.883411e-06
2.2306506e-07
9.3472212e-06
7.8928034e-08
9.6145558e-06
-1.1935253e-07
9.882345e-06
-3.5783246e-07
1.0221215e-05
-5.7263793e-07
1.0715864e-05
-5.8311543e-07
1.0688172e-05
8.6519865e-06
5.635539e-08
5.6355554e-08
6.4614954e-07
1.2891889e-07
1.6100781e-07
1.7593562e-06
1.3906605e-07
2.1912892e-07
2.4102477e-06
8.3877373e-08
2.4998737e-07
2.8080467e-06
-2.8775078e-08
2.694752e-07
3.0910984e-06
-1.8653912e-07
2.8092371e-07
3.3915912e-06
-3.6998209e-07
2.8967732e-07
3.7675226e-06
-5.101481e-07
2.7919319e-07
4.3270017e-06
-4.8485442e-07
2.5202252e-07
4.5943343e-06
1.0729506e-07
4.1085192e-06
1.6100766e-07
1.2891914e-07
1.7593562e-06
3.4133912e-07
3.4133935e-07
4.4450262e-06
3.8029791e-07
4.5784757e-07
6.0475858e-06
2.7530782e-07
5.2054847e-07
7.0317677e-06
5.5038673e-08
5.5703633e-07
7.7073324e-06
-2.4789216e-07
5.7648911e-07
8.3226893e-06
-5.763681e-07
5.819062e-07
8.9607871e-06
-8.1023698e-07
5.5219656e-07
9.6671919e-06
-7.0515108e-07
4.6245305e-07
9.4636228e-06
2.0454412e-07
6.9978787e-06
2.1912877e-07
1.3906628e-07
2.4102477e-06
4.5784734e-07
3.8029813e-07
6.0475858e-06
5.1394397e-07
5.1394419e-07
8.2765136e-06
3.8491395e-07
5.8577762e-07
9.6572533e-06
1.1160427e-07
6.2535053e-07
1.0582941e-05
-2.5793394e-07
6.4363424e-07
1.1349889e-05
-6.4638033e-07
6.413192e-07
1.2032579e-05
-9.0695481e-07
5.9799522e-07
1.2604822e-05
-7.7104425e-07
4.7938558e-07
1.1848304e-05
1.9910489e-07
8.1178058e-06
2.4998724e-07
8.38775e-08
2.8080468e-06
5.2054825e-07
2.7530794e-07
7.0317677e-06
5.857774e-07
3.8491408e-07
9.6572533e-06
4.4329317e-07
4.432933e-07
1.1287364e-05
1.4169868e-07
4.7318605e-07
1.2359256e-05
-2.6087437e-07
4.8388978e-07
1.3190411e-05
-6.759282e-07
4.7526018e-07
1.3844543e-05
-9.445668e-07
4.3279733e-07
1.4251384e-05
-7.9422651e-07
3.2942716e-07
1.309142e-05
1.1576571e-07
8.6363338e-06
2.6947507e-07
-2.8775096e-08
3.0910985e-06
5.5703611e-07
5.5038657e-08