/*--------------------------------*- C++ -*----------------------------------*\
| =========                 |                                                 |
| \\      /  F ield         | OpenFOAM: The Open Source CFD Toolbox           |
|  \\    /   O peration     | Version:  dev                                   |
|   \\  /    A nd           | Web:      www.OpenFOAM.org                      |
|    \\/     M anipulation  |                                                 |
\*---------------------------------------------------------------------------*/
FoamFile
{
    version     2.0;
    format      ascii;
    class       surfaceScalarField;
    location    "7";
    object      phi_0;
}
// * * * * * * * * * * * * * * * * * * * * * * * * * * * * * * * * * * * * * //

dimensions      [0 3 -1 0 0 0 0];

internalField   nonuniform List<scalar> 
27900
(
1.8615678e-06
1.8615677e-06
6.2768643e-06
2.0702594e-06
2.0578105e-06
7.7334979e-06
2.1043843e-06
2.0902024e-06
7.8756727e-06
2.1014645e-06
2.101076e-06
7.9018439e-06
2.0823331e-06
2.1074216e-06
7.9117099e-06
2.0498944e-06
2.1115714e-06
7.9208675e-06
1.9871676e-06
2.1157347e-06
7.9469922e-06
1.8703558e-06
2.1142226e-06
8.0025893e-06
1.4947728e-06
2.1043398e-06
8.2712431e-06
1.9317552e-06
9.5630174e-06
2.0578106e-06
2.0702593e-06
7.7334977e-06
2.300508e-06
2.3005079e-06
9.5146051e-06
2.3414695e-06
2.3410787e-06
9.7081624e-06
2.3329629e-06
2.3563189e-06
9.7532638e-06
2.3018489e-06
2.3644491e-06
9.7740867e-06
2.2512921e-06
2.3688888e-06
9.7932396e-06
2.1616715e-06
2.3708153e-06
9.8345401e-06
1.9989108e-06
2.3643888e-06
9.9125945e-06
1.5560094e-06
2.3348188e-06
1.0212422e-05
2.1041059e-06
1.1383658e-05
2.0902025e-06
2.1043842e-06
7.8756723e-06
2.3410788e-06
2.3414693e-06
9.7081621e-06
2.3825856e-06
2.3825855e-06
9.9169864e-06
2.370649e-06
2.3978056e-06
9.9704501e-06
2.3335347e-06
2.4052934e-06
9.9962701e-06
2.2751604e-06
2.4085929e-06
1.001867e-05
2.1753956e-06
2.4080949e-06
1.0062485e-05
2.0018747e-06
2.3985371e-06
1.0139372e-05
1.5477927e-06
2.362028e-06
1.0426873e-05
2.1216038e-06
1.1530295e-05
2.1010761e-06
2.1014644e-06
7.9018434e-06
2.3563191e-06
2.3329628e-06
9.7532634e-06
2.3978058e-06
2.3706489e-06
9.9704499e-06
2.3834953e-06
2.3834952e-06
1.0028621e-05
2.3427033e-06
2.3890298e-06
1.0057056e-05
2.2799783e-06
2.3906968e-06
1.0080621e-05
2.1752658e-06
2.3885838e-06
1.0124224e-05
1.9976049e-06
2.3783739e-06
1.0197824e-05
1.5414985e-06
2.3422704e-06
1.0475864e-05
2.1090301e-06
1.1554072e-05
2.1074217e-06
2.0823331e-06
7.9117094e-06
2.3644492e-06
2.3018489e-06
9.7740863e-06
2.4052936e-06
2.3335347e-06
9.9962699e-06
2.3890299e-06
2.3427033e-06
1.0057056e-05
2.3456763e-06
2.3456763e-06
1.0086707e-05
2.280145e-06
2.3456762e-06
1.0110552e-05
2.1725242e-06
2.3427159e-06
1.0153489e-05
1.9928284e-06
2.3335799e-06
1.022449e-05
1.5364121e-06
2.3018521e-06
1.0496834e-05
2.0830652e-06
1.1562377e-05
2.1115715e-06
2.0498945e-06
7.9208669e-06
2.368889e-06
2.2512922e-06
9.7932391e-06
2.4085931e-06
2.2751605e-06
1.001867e-05
2.3906969e-06
2.2799783e-06
1.0080621e-05
2.3456762e-06
2.2801451e-06
1.0110552e-05
2.2784784e-06
2.2784785e-06
1.0134396e-05
2.169226e-06
2.2749151e-06
1.0177053e-05
1.9883949e-06
2.2675208e-06
1.024689e-05
1.5322674e-06
2.2419812e-06
1.0515998e-05
2.043777e-06
1.1571555e-05
2.1157348e-06
1.9871678e-06
7.9469917e-06
2.3708154e-06
2.1616717e-06
9.8345398e-06
2.408095e-06
2.1753957e-06
1.0062485e-05
2.3885838e-06
2.1752659e-06
1.0124224e-05
2.3427159e-06
2.1725243e-06
1.0153489e-05
2.274915e-06
2.1692262e-06
1.0177053e-05
2.1650004e-06
2.1650006e-06
1.0219829e-05
1.9831401e-06
2.1595104e-06
1.0289871e-05
1.5268579e-06
2.1410711e-06
1.0557192e-05
1.9713265e-06
1.1599308e-05
2.1142226e-06
1.8703559e-06
8.0025891e-06
2.3643889e-06
1.9989109e-06
9.9125944e-06
2.3985373e-06
2.0018748e-06
1.0139373e-05
2.3783739e-06
1.9976051e-06
1.0197824e-05
2.3335799e-06
1.9928285e-06
1.022449e-05
2.2675207e-06
1.988395e-06
1.0246891e-05
2.1595103e-06
1.9831402e-06
1.0289871e-05
1.9786217e-06
1.9786218e-06
1.0361777e-05
1.5237814e-06
1.9645324e-06
1.0631379e-05
1.8377632e-06
1.1657345e-05
2.1043399e-06
1.4947729e-06
8.271243e-06
2.3348189e-06
1.5560095e-06
1.0212422e-05
2.3620282e-06
1.5477928e-06
1.0426873e-05
2.3422705e-06
1.5414986e-06
1.0475864e-05
2.3018521e-06
1.5364122e-06
1.0496835e-05
2.2419811e-06
1.5322675e-06
1.0515999e-05
2.1410709e-06
1.526858e-06
1.0557192e-05
1.9645323e-06
1.5237815e-06
1.0631379e-05
1.509325e-06
1.509325e-06
1.0910415e-05
1.4253869e-06
1.1921701e-05
1.9317553e-06
9.5630175e-06
2.1041061e-06
1.1383659e-05
2.1216039e-06
1.1530295e-05
2.1090301e-06
1.1554073e-05
2.0830652e-06
1.1562377e-05
2.0437769e-06
1.1571556e-05
1.9713263e-06
1.1599309e-05
1.837763e-06
1.1657345e-05
1.4253868e-06
1.1921701e-05
1.2850774e-05
1.1152754e-06
1.1152752e-06
4.0463138e-06
1.445566e-06
1.450113e-06
5.9530942e-06
1.5184094e-06
1.5233193e-06
6.27951e-06
1.5093568e-06
1.548654e-06
6.3622424e-06
1.461218e-06
1.5629797e-06
6.3968691e-06
1.3766272e-06
1.5718092e-06
6.4336491e-06
1.2300755e-06
1.579672e-06
6.5138718e-06
9.574258e-07
1.5729434e-06
6.7022956e-06
4.5958472e-07
1.5444375e-06
7.2246467e-06
1.2412939e-06
8.7813082e-06
1.4501132e-06
1.4455657e-06
5.953094e-06
1.8892797e-06
1.8892794e-06
8.6362724e-06
1.9879683e-06
1.9938176e-06
9.1389754e-06
1.9652151e-06
2.0335578e-06
9.2911132e-06
1.8824597e-06
2.0542668e-06
9.365555e-06
1.7435996e-06
2.0652418e-06
9.4386671e-06
1.5201185e-06
2.0690752e-06
9.5686179e-06
1.1247099e-06
2.0507185e-06
9.8302279e-06
4.9265885e-07
1.9715256e-06
1.0417385e-05
1.5206626e-06
1.1596949e-05
1.5233194e-06
1.5184091e-06
6.2795096e-06
1.9938179e-06
1.987968e-06
9.1389751e-06
2.0978983e-06
2.097898e-06
9.7088257e-06
2.0668222e-06
2.1391433e-06
9.8959406e-06
1.967255e-06
2.1589995e-06
9.9911047e-06
1.8055247e-06
2.1674903e-06
1.0078152e-05
1.5540502e-06
2.1654669e-06
1.0217568e-05
1.1292302e-06
2.1386632e-06
1.0476248e-05
4.7538512e-07
2.0400735e-06
1.101217e-05
1.5591556e-06
1.1967187e-05
1.5486542e-06
1.5093567e-06
6.3622416e-06
2.0335581e-06
1.965215e-06
9.2911126e-06
2.1391436e-06
2.0668221e-06
9.8959403e-06
2.1023089e-06
2.1023088e-06
1.010229e-05
1.9928137e-06
2.1173812e-06
1.0208169e-05
1.8189798e-06
2.1218135e-06
1.0300132e-05
1.5545234e-06
2.1157716e-06
1.0438375e-05
1.1192734e-06
2.0873011e-06
1.0684436e-05
4.6280258e-07
1.9898953e-06
1.1182513e-05
1.527816e-06
1.2048214e-05
1.5629798e-06
1.4612181e-06
6.3968682e-06
2.0542671e-06
1.8824597e-06
9.3655543e-06
2.1589998e-06
1.967255e-06
9.9911043e-06
2.1173813e-06
1.9928137e-06
1.0208169e-05
2.0011185e-06
2.0011185e-06
1.0319233e-05
1.8197488e-06
2.0011418e-06
1.0412594e-05
1.5479284e-06
1.9929197e-06
1.0548161e-05
1.1078414e-06
1.9675169e-06
1.0784361e-05
4.5218723e-07
1.8829386e-06
1.1259445e-05
1.4627524e-06
1.2079628e-05
1.5718094e-06
1.3766273e-06
6.4336483e-06
2.0652421e-06
1.7435998e-06
9.4386664e-06
2.1674906e-06
1.8055249e-06
1.0078152e-05
2.1218137e-06
1.8189799e-06
1.0300132e-05
2.0011418e-06
1.819749e-06
1.0412594e-05
1.8153621e-06
1.8153622e-06
1.0505955e-05
1.5394801e-06
1.8057232e-06
1.0640132e-05
1.0969079e-06
1.7855476e-06
1.0871432e-05
4.4339487e-07
1.7198419e-06
1.1332608e-05
1.3611907e-06
1.2116512e-05
1.5796721e-06
1.2300758e-06
6.5138712e-06
2.0690755e-06
1.5201187e-06
9.5686174e-06
2.1654672e-06
1.5540505e-06
1.0217568e-05
2.1157718e-06
1.5545237e-06
1.0438376e-05
1.9929197e-06
1.5479287e-06
1.0548161e-05
1.805723e-06
1.5394804e-06
1.0640132e-05
1.5283859e-06
1.5283861e-06
1.0774503e-05
1.0839198e-06
1.5137177e-06
1.1006167e-05
4.3191759e-07
1.4688162e-06
1.146022e-05
1.1921877e-06
1.2200229e-05
1.5729436e-06
9.5742607e-07
6.7022952e-06
2.0507188e-06
1.1247102e-06
9.8302277e-06
2.1386634e-06
1.1292304e-06
1.0476248e-05
2.0873012e-06
1.1192736e-06
1.0684437e-05
1.9675169e-06
1.1078417e-06
1.0784361e-05
1.7855474e-06
1.0969082e-06
1.0871432e-05
1.5137174e-06
1.0839201e-06
1.1006167e-05
1.0726681e-06
1.0726683e-06
1.1243876e-05
4.2598391e-07
1.0430866e-06
1.1703793e-05
8.847737e-07
1.2390742e-05
1.5444376e-06
4.5958489e-07
7.2246466e-06
1.9715258e-06
4.9265902e-07
1.0417385e-05
2.0400738e-06
4.7538529e-07
1.101217e-05
1.9898954e-06
4.6280274e-07
1.1182513e-05
1.8829386e-06
4.5218739e-07
1.1259446e-05
1.7198418e-06
4.4339503e-07
1.1332609e-05
1.4688159e-06
4.3191776e-07
1.1460221e-05
1.0430863e-06
4.2598408e-07
1.1703793e-05
3.9873652e-07
3.9873669e-07
1.2199114e-05
3.3523952e-07
1.2869972e-05
1.2412941e-06
8.7813083e-06
1.5206628e-06
1.1596949e-05
1.5591558e-06
1.1967187e-05
1.5278162e-06
1.2048215e-05
1.4627524e-06
1.2079628e-05
1.3611905e-06
1.2116513e-05
1.1921874e-06
1.2200229e-05
8.8477344e-07
1.2390743e-05
3.3523936e-07
1.2869972e-05
1.3521252e-05
6.8610817e-07
6.8610796e-07
2.6740978e-06
1.0047287e-06
1.0316783e-06
4.6027955e-06
1.0907628e-06
1.1249301e-06
5.0685458e-06
1.0749334e-06
1.1592353e-06
5.2188364e-06
1.0041375e-06
1.1784655e-06
5.2891993e-06
8.8056121e-07
1.1898632e-06
5.367362e-06
6.8061631e-07
1.1990856e-06
5.514731e-06
3.4072502e-07
1.1876171e-06
5.8545698e-06
-8.1280718e-08
1.1450715e-06
6.5015811e-06
8.0592489e-07
7.8941028e-06
1.0316785e-06
1.0047284e-06
4.6027953e-06
1.5148688e-06
1.5148684e-06
7.6698921e-06
1.6454267e-06
1.6608951e-06
8.4724524e-06
1.6099666e-06
1.718646e-06
8.7671625e-06
1.4841183e-06
1.7485583e-06
8.9213103e-06
1.2737401e-06
1.7640362e-06
9.0748722e-06
9.5584733e-07
1.7684102e-06
9.317186e-06
4.4558654e-07
1.7400206e-06
9.7880853e-06
-1.1218025e-07
1.6265109e-06
1.0493713e-05
1.0975595e-06
1.1193134e-05
1.1249303e-06
1.0907625e-06
5.0685453e-06
1.6608955e-06
1.6454264e-06
8.4724521e-06
1.8035839e-06
1.8035836e-06
9.4234487e-06
1.7564221e-06
1.8653598e-06
9.7963884e-06
1.6041408e-06
1.8949998e-06
9.9969443e-06
1.3572316e-06
1.9074419e-06
1.0181656e-05
9.9637517e-07
1.9037607e-06
1.0443074e-05
4.435786e-07
1.8628669e-06
1.0906198e-05
-1.3794249e-07
1.7201946e-06
1.1500007e-05
1.1458018e-06
1.1781002e-05
1.1592355e-06
1.0749332e-06
5.2188356e-06
1.7186463e-06
1.6099664e-06
8.7671619e-06
1.8653602e-06
1.756422e-06
9.7963881e-06
1.8101246e-06
1.8101244e-06
1.0212761e-05
1.6426486e-06
1.8330117e-06
1.0437633e-05
1.3769621e-06
1.8396674e-06
1.0633593e-05
9.9675519e-07
1.8302692e-06
1.0892074e-05
4.2942288e-07
1.7870486e-06
1.1327587e-05
-1.539634e-07
1.6465792e-06
1.1839515e-05
1.1006797e-06
1.1939373e-05
1.1784657e-06
1.0041375e-06
5.2891984e-06
1.7485586e-06
1.4841183e-06
8.9213096e-06
1.8950001e-06
1.6041409e-06
9.9969438e-06
1.8330119e-06
1.6426486e-06
1.0437633e-05
1.6553692e-06
1.6553692e-06
1.0674518e-05
1.3782748e-06
1.6554331e-06
1.0873922e-05
9.8736577e-07
1.6428961e-06
1.1126443e-05
4.1357791e-07
1.6046967e-06
1.1540501e-05
-1.6755546e-07
1.4851235e-06
1.2002034e-05
1.0059122e-06
1.200684e-05
1.1898634e-06
8.8056143e-07
5.3673611e-06
1.7640365e-06
1.2737403e-06
9.0748714e-06
1.9074422e-06
1.3572319e-06
1.0181655e-05
1.8396675e-06
1.3769623e-06
1.0633593e-05
1.6554331e-06
1.378275e-06
1.0873922e-05
1.3717426e-06
1.3717428e-06
1.1073336e-05
9.7503369e-07
1.3572949e-06
1.1322442e-05
3.9818621e-07
1.3276711e-06
1.1725305e-05
-1.7894664e-07
1.239069e-06
1.2155795e-05
8.5829196e-07
1.2085186e-05
1.1990859e-06
6.8061663e-07
5.5147303e-06
1.7684106e-06
9.5584766e-07
9.3171855e-06
1.9037611e-06
9.963755e-07
1.0443074e-05
1.8302693e-06
9.9675551e-07
1.0892074e-05
1.6428961e-06
9.8736609e-07
1.1126443e-05
1.3572947e-06
9.7503401e-07
1.1322442e-05
9.5877604e-07
9.5877636e-07
1.157154e-05
3.7997682e-07
9.3801711e-07
1.197462e-05
-1.9379227e-07
8.8279964e-07
1.2390259e-05
6.2880757e-07
1.2235921e-05
1.1876173e-06
3.4072534e-07
5.8545694e-06
1.7400209e-06
4.4558687e-07
9.788085e-06
1.8628672e-06
4.4357893e-07
1.0906198e-05
1.7870488e-06
4.2942319e-07
1.1327587e-05
1.6046967e-06
4.1357822e-07
1.1540501e-05
1.3276709e-06
3.9818652e-07
1.1725305e-05
9.3801678e-07
3.7997714e-07
1.197462e-05
3.6511916e-07
3.6511948e-07
1.2389671e-05
-2.0055482e-07
3.3520421e-07
1.2817062e-05
2.5043736e-07
1.2568558e-05
1.1450717e-06
-8.1280519e-08
6.5015809e-06
1.6265112e-06
-1.1218004e-07
1.0493713e-05
1.7201949e-06
-1.3794229e-07
1.1500008e-05
1.6465794e-06
-1.5396321e-07
1.1839515e-05
1.4851234e-06
-1.6755528e-07
1.2002035e-05
1.2390687e-06
-1.7894646e-07
1.2155796e-05
8.8279931e-07
-1.9379208e-07
1.2390259e-05
3.3520389e-07
-2.0055463e-07
1.2817062e-05
-2.253898e-07
-2.253896e-07
1.3320302e-05
-2.0012483e-07
1.3095144e-05
8.0592507e-07
7.8941028e-06
1.0975598e-06
1.1193134e-05
1.1458021e-06
1.1781003e-05
1.1006798e-06
1.1939374e-05
1.0059121e-06
1.2006841e-05
8.5829177e-07
1.2085187e-05
6.2880727e-07
1.2235922e-05
2.5043706e-07
1.2568558e-05
-2.0012502e-07
1.3095145e-05
1.3121003e-05
4.2699679e-07
4.2699655e-07
1.8201047e-06
6.9642016e-07
7.3322187e-07
3.6001503e-06
7.7672635e-07
8.3198067e-07
4.1562589e-06
7.5302268e-07
8.70967e-07
4.3715729e-06
6.649591e-07
8.9292428e-07
4.4843384e-06
5.1547941e-07
9.0561839e-07
4.6112231e-06
2.8779954e-07
9.1518898e-07
4.8272218e-06
-5.2080626e-08
9.0075763e-07
5.2936924e-06
-3.6733589e-07
8.5132507e-07
5.9655114e-06
5.266924e-07
7.0000747e-06
7.3322212e-07
6.964198e-07
3.6001502e-06
1.1909595e-06
1.1909591e-06
6.7544176e-06
1.3272872e-06
1.3569969e-06
7.8111084e-06
1.2787534e-06
1.4261434e-06
8.2605197e-06
1.1182093e-06
1.4621429e-06
8.5126354e-06
8.5569452e-07
1.4804523e-06
8.7625527e-06
4.8146748e-07
1.4846876e-06
9.1219143e-06
-4.6528261e-08
1.4492701e-06
9.7675686e-06
-4.6572321e-07
1.3179028e-06
1.044633e-05
7.9295478e-07
1.0461149e-05
8.3198091e-07
7.7672602e-07
4.1562585e-06
1.3569973e-06
1.3272868e-06
7.8111082e-06
1.5116114e-06
1.5116111e-06
9.1142204e-06
1.4488925e-06
1.5874726e-06
9.6977779e-06
1.2536564e-06
1.6241745e-06
1.0030148e-05
9.431289e-07
1.6394413e-06
1.0333194e-05
5.1459073e-07
1.6343989e-06
1.0721901e-05
-6.2622259e-08
1.5837456e-06
1.1348936e-05
-5.0098309e-07
1.4168129e-06
1.1839458e-05
8.3896533e-07
1.1234009e-05
8.7096724e-07
7.530225e-07
4.3715723e-06
1.4261438e-06
1.2787532e-06
8.2605192e-06
1.587473e-06
1.4488923e-06
9.6977777e-06
1.5151272e-06
1.515127e-06
1.0357452e-05
1.3003893e-06
1.5437868e-06
1.0732759e-05
9.6564989e-07
1.552131e-06
1.1055642e-05
5.1306516e-07
1.5403019e-06
1.1438755e-05
-8.0608333e-08
1.4870838e-06
1.2017922e-05
-5.1912496e-07
1.3238692e-06
1.2370975e-05
7.8310335e-07
1.147611e-05
8.9292451e-07
6.6495913e-07
4.4843376e-06
1.4621433e-06
1.1182093e-06
8.5126348e-06
1.6241748e-06
1.2536564e-06
1.0030148e-05
1.543787e-06
1.3003893e-06
1.0732758e-05
1.3162405e-06
1.3162405e-06
1.112961e-05
9.6708232e-07
1.3163539e-06
1.1458857e-05
5.0145642e-07
1.3007976e-06
1.1831573e-05
-9.9254298e-08
1.2545123e-06
1.2373783e-05
-5.3408591e-07
1.1196046e-06
1.2641131e-05
6.6662717e-07
1.158923e-05
9.0561862e-07
5.1547965e-07
4.6112223e-06
1.4804527e-06
8.5569478e-07
8.762552e-06
1.6394417e-06
9.4312915e-07
1.0333193e-05
1.5521312e-06
9.6565013e-07
1.1055642e-05
1.3163539e-06
9.6708256e-07
1.1458857e-05
9.5895499e-07
9.5895523e-07
1.1788133e-05
4.8637708e-07
9.4125637e-07
1.2154561e-05
-1.173944e-07
9.0657215e-07
1.2677016e-05
-5.4670985e-07
8.1326046e-07
1.2891455e-05
4.8863838e-07
1.1716465e-05
9.1518921e-07
2.877999e-07
4.8272212e-06
1.484688e-06
4.8146786e-07
9.1219138e-06
1.6343993e-06
5.145911e-07
1.07219e-05
1.5403021e-06
5.1306552e-07
1.1438755e-05
1.3007975e-06
5.0145678e-07
1.1831573e-05
9.4125613e-07
4.8637744e-07
1.2154561e-05
4.6681319e-07
4.6681355e-07
1.2520426e-05
-1.3856326e-07
4.43857e-07
1.3042711e-05
-5.6311418e-07
3.9428275e-07
1.3233787e-05
2.2849097e-07
1.1932955e-05
9.0075786e-07
-5.208027e-08
5.293692e-06
1.4492705e-06
-4.652789e-08
9.7675683e-06
1.583746e-06
-6.2621899e-08
1.1348936e-05
1.487084e-06
-8.0607984e-08
1.2017922e-05
1.2545123e-06
-9.9253955e-08
1.2373783e-05
9.0657191e-07
-1.1739406e-07
1.2677017e-05
4.4385664e-07
-1.3856291e-07
1.3042712e-05
-1.5373567e-07
-1.5373531e-07
1.3584856e-05
-5.693199e-07
-1.7154071e-07
1.379847e-05
-1.4628199e-07
1.2374011e-05
8.513253e-07
-3.6733567e-07
5.9655113e-06
1.3179032e-06
-4.6572298e-07
1.044633e-05
1.4168132e-06
-5.0098288e-07
1.1839458e-05
1.3238694e-06
-5.1912475e-07
1.2370976e-05
1.1196046e-06
-5.3408571e-07
1.2641132e-05
8.1326023e-07
-5.4670965e-07
1.2891456e-05
3.9428239e-07
-5.6311397e-07
1.3233788e-05
-1.7154107e-07
-5.6931969e-07
1.379847e-05
-5.8309077e-07
-5.8309055e-07
1.4143402e-05
-4.6613968e-07
1.2831912e-05
5.2669261e-07
7.0000747e-06
7.9295511e-07
1.0461149e-05
8.3896563e-07
1.1234009e-05
7.8310353e-07
1.1476111e-05
6.6662715e-07
1.1589231e-05
4.8863816e-07
1.1716466e-05
2.2849064e-07
1.1932955e-05
-1.4628232e-07
1.2374012e-05
-4.6613989e-07
1.2831912e-05
1.2188723e-05
2.6631836e-07
2.663181e-07
1.2874685e-06
4.7868718e-07
5.1784077e-07
2.8699409e-06
5.4416254e-07
6.124423e-07
3.4783412e-06
5.1189823e-07
6.5259921e-07
3.7512378e-06
4.1148372e-07
6.7556527e-07
3.9091873e-06
2.4751066e-07
6.8865819e-07
4.0865376e-06
1.2804137e-08
6.9809218e-07
4.363836e-06
-2.912762e-07
6.8249184e-07
4.9152809e-06
-4.9896968e-07
6.3285849e-07
5.5403466e-06
3.4745084e-07
6.1536544e-06
5.1784105e-07
4.7868678e-07
2.8699408e-06
9.162325e-07
9.1623206e-07
5.9576351e-06
1.0403954e-06
1.084824e-06
7.2145638e-06
9.7779927e-07
1.1592207e-06
7.816494e-06
7.9090483e-07
1.1985245e-06
8.1765703e-06
4.9510072e-07
1.2183585e-06
8.5286561e-06
9.8356475e-08
1.2223475e-06
8.994403e-06
-3.87956e-07
1.1834873e-06
9.7528856e-06
-6.5256033e-07
1.0488591e-06
1.0294934e-05
5.7223237e-07
9.5838072e-06
6.1244257e-07
5.4416217e-07
3.478341e-06
1.0848245e-06
1.040395e-06
7.2145636e-06
1.2312053e-06
1.2312049e-06
8.8214586e-06
1.1522435e-06
1.314494e-06
9.6214661e-06
9.2386529e-07
1.3555265e-06
1.0101524e-05
5.7119284e-07
1.3726347e-06
1.053159e-05
1.128866e-07
1.3668874e-06
1.1035667e-05
-4.2349736e-07
1.311363e-06
1.1757444e-05
-6.9763675e-07
1.1382883e-06
1.2024169e-05
6.0890984e-07
1.0499695e-05
6.5259947e-07
5.1189803e-07
3.7512374e-06
1.1592212e-06
9.7779905e-07
7.8164936e-06
1.3144944e-06
1.1522433e-06
9.6214659e-06
1.224812e-06
1.2248118e-06
1.0536816e-05
9.7353992e-07
1.2570154e-06
1.1082541e-05
5.9252424e-07
1.2665522e-06
1.154274e-05
1.0717445e-07
1.2534995e-06
1.2037493e-05
-4.4581539e-07
1.1956267e-06
1.2686648e-05
-7.1740906e-07
1.0283802e-06
1.2752477e-05
5.4415281e-07
1.0823459e-05
6.7556553e-07
4.1148376e-07
3.9091868e-06
1.1985249e-06
7.9090487e-07
8.1765699e-06
1.3555269e-06
9.2386533e-07
1.0101524e-05
1.2570156e-06
9.7353995e-07
1.1082541e-05
9.909822e-07
9.9098223e-07
1.1661676e-05
5.933587e-07
9.911444e-07
1.2131888e-05
9.354271e-08
9.7409711e-07
1.2610791e-05
-4.6637216e-07
9.2496242e-07
1.3204362e-05
-7.3286758e-07
7.9249387e-07
1.3143513e-05
4.1288437e-07
1.0987632e-05
6.8865845e-07
2.4751092e-07
4.0865371e-06
1.2183589e-06
4.95101e-07
8.5286557e-06
1.3726351e-06
5.7119312e-07
1.0531589e-05
1.2665524e-06
5.9252451e-07
1.154274e-05
9.9114437e-07
5.9335897e-07
1.2131888e-05
5.841292e-07
5.8412947e-07
1.2602163e-05
7.6694247e-08
5.6489397e-07
1.3071199e-05
-4.8602581e-07
5.298897e-07
1.3634809e-05
-7.4587798e-07
4.4755015e-07
1.3496251e-05
2.1794239e-07
1.1165529e-05
6.9809244e-07
1.2804537e-08
4.3638355e-06
1.222348e-06
9.8356901e-08
8.9944026e-06
1.3668878e-06
1.1288702e-07
1.1035666e-05
1.2534997e-06
1.0717486e-07
1.2037493e-05
9.7409708e-07
9.3543113e-08
1.2610791e-05
5.648937e-07
7.6694652e-08
1.3071199e-05
5.5676011e-08
5.5676421e-08
1.3538861e-05
-5.0833021e-07
3.4487163e-08
1.410212e-05
-7.6264049e-07
3.113624e-09
1.3932534e-05
-4.9660094e-08
1.1437917e-05
6.824921e-07
-2.9127581e-07
4.9152806e-06
1.1834877e-06
-3.8795559e-07
9.7528854e-06
1.3113634e-06
-4.2349695e-07
1.1757444e-05
1.1956269e-06
-4.45815e-07
1.2686649e-05
9.249624e-07
-4.6637178e-07
1.3204362e-05
5.2988943e-07
-4.8602542e-07
1.363481e-05
3.4486753e-08
-5.0832982e-07
1.410212e-05
-5.2100547e-07
-5.2100507e-07
1.469584e-05
-7.6720711e-07
-5.1888465e-07
1.456667e-05
-3.833053e-07
1.194045e-05
6.3285874e-07
-4.9896943e-07
5.5403465e-06
1.0488595e-06
-6.5256008e-07
1.0294934e-05
1.1382887e-06
-6.9763651e-07
1.2024169e-05
1.0283804e-06
-7.1740883e-07
1.2752478e-05
7.9249385e-07
-7.3286736e-07
1.3143513e-05
4.4754989e-07
-7.4587776e-07
1.3496252e-05
3.1132198e-09
-7.6264026e-07
1.3932535e-05
-5.1888505e-07
-7.6720687e-07
1.456667e-05
-7.669209e-07
-7.6692065e-07
1.4639474e-05
-5.7964576e-07
1.2261331e-05
3.4745108e-07
6.1536544e-06
5.7223273e-07
9.5838073e-06
6.0891019e-07
1.0499695e-05
5.4415301e-07
1.0823459e-05
4.1288435e-07
1.0987632e-05
2.1794216e-07
1.116553e-05
-4.9660464e-08
1.1437918e-05
-3.8330568e-07
1.194045e-05
-5.7964599e-07
1.2261332e-05
1.1029432e-05
1.6483578e-07
1.6483549e-07
9.5779755e-07
3.2319618e-07
3.611117e-07
2.350469e-06
3.7024298e-07
4.4578382e-07
2.9855106e-06
3.294722e-07
4.8445102e-07
3.3075573e-06
2.2116554e-07
5.0710952e-07
3.5103841e-06
5.2244353e-08
5.1998838e-07
3.7354702e-06
-1.7442142e-07
5.2913172e-07
4.0613699e-06
-4.265008e-07
5.1399328e-07
4.653367e-06
-5.3862167e-07
4.6920878e-07
5.1832589e-06
2.3192316e-07
5.3831099e-06
3.61112e-07
3.2319573e-07
2.3504689e-06
6.8651975e-07
6.8651927e-07
5.30682e-06
7.8721185e-07
8.4489149e-07
6.714764e-06
7.0998378e-07
9.1924017e-07
7.4589326e-06
5.0475124e-07
9.5944278e-07
7.9294692e-06
1.9280844e-07
9.7980501e-07
8.3807819e-06
-1.9926609e-07
9.8380354e-07
8.9318055e-06
-6.1176254e-07
9.4506912e-07
9.7343062e-06
-7.3021319e-07
8.1856163e-07
1.0064032e-05
4.1105543e-07
8.6744621e-06
4.4578412e-07
3.7024257e-07
2.9855104e-06
8.4489197e-07
7.872114e-07
6.7147639e-06
9.688419e-07
9.6884144e-07
8.5735587e-06
8.7297712e-07
1.053314e-06
9.5832567e-06
6.2096625e-07
1.0960771e-06
1.02169e-05
2.4614221e-07
1.1141982e-06
1.077202e-05
-2.1059597e-07
1.1086319e-06
1.1367576e-05
-6.6881873e-07
1.0530894e-06
1.2107646e-05
-7.8412096e-07
8.8861318e-07
1.206942e-05
4.3466779e-07
9.691962e-06
4.8445131e-07
3.2947197e-07
3.3075571e-06
9.1924065e-07
7.0998353e-07
7.4589324e-06
1.0533145e-06
8.7297686e-07
9.5832566e-06
9.4583851e-07
9.4583825e-07
1.0751768e-05
6.6839276e-07
9.7932475e-07
1.1476739e-05
2.6241422e-07
9.896105e-07
1.2073306e-05
-2.2270256e-07
9.766945e-07
1.2654547e-05
-6.9593973e-07
9.1947338e-07
1.3293502e-05
-8.052198e-07
7.635226e-07
1.2986848e-05
3.624187e-07
1.0090489e-05
5.071098e-07
2.2116558e-07
3.5103839e-06
9.5944325e-07
5.0475128e-07
7.9294689e-06
1.0960776e-06
6.2096628e-07
1.02169e-05
9.7932501e-07
6.6839279e-07
1.1476739e-05
6.8577495e-07
6.8577497e-07
1.2248776e-05
2.6176681e-07
6.8597627e-07
1.285953e-05
-2.3842177e-07
6.6906019e-07
1.3418614e-05
-7.1779818e-07
6.2220385e-07
1.3981008e-05
-8.2062133e-07
5.0635242e-07
1.3503507e-05
2.2224725e-07
1.0307182e-05
5.1998866e-07
5.2244644e-08
3.7354699e-06
9.7980547e-07
1.9280875e-07
8.3807816e-06
1.1141987e-06
2.4614251e-07
1.077202e-05
9.8961075e-07
2.6241451e-07
1.2073306e-05
6.8597625e-07
2.6176711e-07
1.285953e-05
2.5185819e-07
2.5185848e-07
1.3470398e-05
-2.562387e-07
2.3281034e-07
1.4015545e-05
-7.379612e-07
2.0196657e-07
1.4536769e-05
-8.3341728e-07
1.4228296e-07
1.3955777e-05
2.1330236e-08
1.053303e-05
5.29132e-07
-1.7442097e-07
4.0613696e-06
9.83804e-07
-1.9926562e-07
8.9318053e-06
1.1086323e-06
-2.1059551e-07
1.1367576e-05
9.7669475e-07
-2.2270211e-07
1.2654547e-05
6.6906016e-07
-2.3842132e-07
1.3418614e-05
2.3281005e-07
-2.5623825e-07
1.4015545e-05
-2.7700808e-07
-2.7700763e-07
1.4558497e-05
-7.5985184e-07
-2.9297413e-07
1.5079905e-05
-8.4964275e-07
-2.9822387e-07
1.4462833e-05
-2.3718815e-07
1.0846793e-05
5.1399356e-07
-4.2650035e-07
4.6533668e-06
9.4506957e-07
-6.1176207e-07
9.734306e-06
1.0530899e-06
-6.6881828e-07
1.2107646e-05
9.1947363e-07
-6.9593929e-07
1.3293502e-05
6.2220382e-07
-7.1779775e-07
1.3981008e-05
2.0196628e-07
-7.3796077e-07
1.4536769e-05
-2.9297458e-07
-7.598514e-07
1.5079905e-05
-7.6783761e-07
-7.6783716e-07
1.5645566e-05
-8.5190543e-07
-7.4233164e-07
1.5094846e-05
-5.1345373e-07
1.136481e-05
4.6920906e-07
-5.386214e-07
5.1832588e-06
8.1856207e-07
-7.302129e-07
1.0064032e-05
8.8861361e-07
-7.8412069e-07
1.206942e-05
7.6352285e-07
-8.0521955e-07
1.2986848e-05
5.063524e-07
-8.2062108e-07
1.3503507e-05
1.4228268e-07
-8.3341703e-07
1.3955777e-05
-2.9822432e-07
-8.4964249e-07
1.4462833e-05
-7.4233209e-07
-8.5190515e-07
1.5094846e-05
-8.3784428e-07
-8.37844e-07
1.4830498e-05
-6.0560718e-07
1.1515641e-05
2.3192342e-07
5.3831099e-06
4.1105583e-07
8.6744621e-06
4.3466818e-07
9.6919621e-06
3.6241892e-07
1.0090489e-05
2.2224722e-07
1.0307183e-05
2.1329977e-08
1.053303e-05
-2.3718856e-07
1.0846793e-05
-5.1345415e-07
1.1364811e-05
-6.0560745e-07
1.1515641e-05
9.8182174e-06
9.9468789e-08
9.9468476e-08
7.5886058e-07
2.1090822e-07
2.4610218e-07
1.9929275e-06
2.3894419e-07
3.1795084e-07
2.6395237e-06
1.9037327e-07
3.5328274e-07
3.0028453e-06
7.8158354e-08
3.7467776e-07
3.247921e-06
-8.8075125e-08
3.8695262e-07
3.5147507e-06
-2.9630239e-07
3.9583999e-07
3.873757e-06
-4.9149194e-07
3.8252763e-07
4.466029e-06
-5.2565197e-07
3.4576858e-07
4.8716505e-06
1.5678945e-07
4.7006688e-06
2.4610251e-07
2.1090774e-07
1.9929275e-06
4.9666811e-07
4.9666759e-07
4.8056892e-06
5.6767347e-07
6.3644626e-07
6.3252631e-06
4.760329e-07
7.0651714e-07
7.1973385e-06
2.599213e-07
7.4563387e-07
7.7746243e-06
-5.3462647e-08
7.6579427e-07
8.3153238e-06
-4.2060748e-07
7.7025007e-07
8.9245401e-06
-7.4488505e-07
7.3478496e-07
9.7063265e-06
-7.3852048e-07
6.2429715e-07
9.7791393e-06
2.9245252e-07
7.8002789e-06
3.1795117e-07
2.3894374e-07
2.6395237e-06
6.3644678e-07
5.6767298e-07
6.3252631e-06
7.2887271e-07
7.2887222e-07
8.3887067e-06
6.1604407e-07
8.0914987e-07
9.5934523e-06
3.4932729e-07
8.5130516e-07
1.0377945e-05
-3.012231e-08
8.6976776e-07
1.1047496e-05
-4.6119953e-07
8.6535768e-07
1.1703546e-05
-8.2296458e-07
8.1415037e-07
1.2390046e-05
-7.9948824e-07
6.6909325e-07
1.2001147e-05
3.0151582e-07
8.8834109e-06
3.5328306e-07
1.9037303e-07
3.0028452e-06
7.0651765e-07
4.7603263e-07
7.1973385e-06
8.0915036e-07
6.1604379e-07
9.5934523e-06
6.8383639e-07
6.8383611e-07
1.1002395e-05
3.8991638e-07
7.1646711e-07
1.1905497e-05
-2.2223374e-08
7.2711969e-07
1.2628093e-05
-4.8146445e-07
7.1571518e-07
1.326343e-05
-8.5527978e-07
6.6392012e-07
1.3817547e-05
-8.2171853e-07
5.3057845e-07
1.3091802e-05
2.2306515e-07
9.3472211e-06
3.7467807e-07
7.8158393e-08
3.2479209e-06
7.4563437e-07
2.5992134e-07
7.7746242e-06
8.5130565e-07
3.4932732e-07
1.0377945e-05
7.164674e-07
3.8991641e-07
1.1905497e-05
4.0562407e-07
4.0562409e-07
1.2870462e-05
-2.5268127e-08
4.0584791e-07
1.3611693e-05
-4.9946404e-07
3.9063657e-07
1.4217888e-05
-8.7814335e-07
3.5058888e-07
1.4673019e-05
-8.3676406e-07
2.6139114e-07
1.3731315e-05
7.8928039e-08
9.6145557e-06
3.8695293e-07
-8.8074813e-08
3.5147506e-06
7.6579477e-07
-5.3462314e-08
8.3153237e-06
8.6976825e-07
-3.0121982e-08
1.1047496e-05
7.2711997e-07
-2.2223052e-08
1.2628093e-05
4.0584789e-07
-2.5267809e-08
1.3611693e-05
-3.5503262e-08
-3.5502945e-08
1.43531e-05
-5.1760457e-07
-5.2760446e-08
1.4941043e-05
-8.9810967e-07
-7.5657895e-08
1.5343521e-05
-8.4896582e-07
-1.0528366e-07
1.4273308e-05
-1.1935262e-07
9.8823449e-06
3.9584029e-07
-2.9630191e-07
3.8737568e-06
7.7025057e-07
-4.2060697e-07
8.9245399e-06
8.6535816e-07
-4.6119903e-07
1.1703546e-05
7.1571545e-07
-4.8146395e-07
1.326343e-05
3.9063654e-07
-4.9946355e-07
1.4217888e-05
-5.2760765e-08
-5.1760408e-07
1.4941043e-05
-5.3663242e-07
-5.3663193e-07
1.552624e-05
-9.1839864e-07
-5.4467005e-07
1.5930683e-05
-8.6405898e-07
-5.199309e-07
1.482314e-05
-3.5783259e-07
1.0221215e-05
3.8252794e-07
-4.9149146e-07
4.4660288e-06
7.3478545e-07
-7.4488454e-07
9.7063263e-06
8.1415084e-07
-8.2296409e-07
1.2390046e-05
6.6392039e-07
-8.552793e-07
1.3817547e-05
3.5058885e-07
-8.7814287e-07
1.4673019e-05
-7.5658212e-08
-8.981092e-07
1.5343521e-05
-5.4467055e-07
-9.1839815e-07
1.5930683e-05
-9.2028477e-07
-9.2028428e-07
1.6396795e-05
-8.6375253e-07
-8.7141033e-07
1.5389793e-05
-5.7263806e-07
1.0715864e-05
3.4576889e-07
-5.2565167e-07
4.8716504e-06
6.2429764e-07
-7.3852016e-07
9.7791392e-06
6.6909371e-07
-7.9948794e-07
1.2001147e-05
5.3057872e-07
-8.2171824e-07
1.3091802e-05
2.6139111e-07
-8.3676378e-07
1.3731315e-05
-1.0528397e-07
-8.4896555e-07
1.4273309e-05
-5.1993139e-07
-8.640587e-07
1.482314e-05
-8.7141083e-07
-8.6375223e-07
1.5389793e-05
-8.3794715e-07
-8.3794684e-07
1.4763572e-05
-5.831155e-07
1.0688172e-05
1.5678973e-07
4.7006687e-06
2.9245296e-07
7.8002789e-06
3.0151624e-07
8.8834109e-06
2.230654e-07
9.3472212e-06
7.8928018e-08
9.6145559e-06
-1.193529e-07
9.8823451e-06
-3.5783304e-07
1.0221215e-05
-5.7263851e-07
1.0715864e-05
-5.8311579e-07
1.0688172e-05
8.6519864e-06
5.635581e-08
5.6355476e-08
6.4614958e-07
1.2891956e-07
1.6100776e-07
1.7593562e-06
1.3906669e-07
2.1912892e-07
2.4102477e-06
8.3877734e-08
2.4998742e-07
2.8080466e-06
-2.8775124e-08
2.6947528e-07
3.0910983e-06
-1.8653955e-07
2.8092378e-07
3.3915911e-06
-3.6998276e-07
2.8967737e-07
3.7675227e-06
-5.1014875e-07
2.7919319e-07
4.3270018e-06
-4.8485482e-07
2.5202247e-07
4.5943343e-06
1.0729499e-07
4.1085192e-06
1.6100812e-07
1.2891905e-07
1.7593562e-06
3.4133985e-07
3.4133929e-07
4.4450262e-06
3.802986e-07
4.5784757e-07
6.0475857e-06
2.7530821e-07
5.2054854e-07
7.0317676e-06
5.5038623e-08
5.5703642e-07
7.7073324e-06
-2.4789263e-07
5.764892e-07
8.3226893e-06
-5.7636882e-07
5.8190626e-07
8.9607872e-06
-8.102377e-07
5.5219656e-07
9.667192e-06
-7.0515151e-07
4.62453e-07
9.4636228e-06
2.0454403e-07
6.9978787e-06
2.1912927e-07
1.3906621e-07
2.4102477e-06
4.5784813e-07
3.8029808e-07
6.0475857e-06
5.1394472e-07
5.1394419e-07
8.2765135e-06
3.8491437e-07
5.8577766e-07
9.6572532e-06
1.1160422e-07
6.253506e-07
1.0582941e-05
-2.5793445e-07
6.4363431e-07
1.1349889e-05
-6.463811e-07
6.4131925e-07
1.2032579e-05
-9.0695558e-07
5.9799522e-07
1.2604822e-05
-7.7104472e-07
4.7938554e-07
1.1848304e-05
1.9910483e-07
8.1178058e-06
2.4998776e-07
8.3877466e-08
2.8080467e-06
5.2054908e-07
2.7530792e-07
7.0317676e-06
5.8577819e-07
3.8491407e-07
9.6572532e-06
4.4329362e-07
4.4329332e-07
1.1287364e-05
1.4169862e-07
4.7318608e-07
1.2359256e-05
-2.608749e-07
4.8388981e-07
1.3190411e-05
-6.7592902e-07
4.752602e-07
1.3844543e-05
-9.445676e-07
4.3279734e-07
1.4251384e-05
-7.9422701e-07
3.2942715e-07
1.309142e-05
1.1576569e-07
8.6363337e-06
2.6947561e-07
-2.8775086e-08