/*--------------------------------*- C++ -*----------------------------------*\
| =========                 |                                                 |
| \\      /  F ield         | OpenFOAM: The Open Source CFD Toolbox           |
|  \\    /   O peration     | Version:  dev                                   |
|   \\  /    A nd           | Web:      www.OpenFOAM.org                      |
|    \\/     M anipulation  |                                                 |
\*---------------------------------------------------------------------------*/
FoamFile
{
    version     2.0;
    format      ascii;
    class       volVectorField;
    location    "7";
    object      U;
}
// * * * * * * * * * * * * * * * * * * * * * * * * * * * * * * * * * * * * * //

dimensions      [0 1 -1 0 0 0 0];

internalField   nonuniform List<vector> 
10000
(
(0.06965143 0.069651431 0.078660549)
(0.078823281 0.076121251 0.087571713)
(0.082505724 0.076882811 0.088116653)
(0.082682494 0.077076363 0.088136135)
(0.082198738 0.077201254 0.088149848)
(0.081265929 0.077282075 0.088150365)
(0.079375694 0.077392583 0.088225205)
(0.07687241 0.077320069 0.088237901)
(0.065137961 0.077376358 0.089630394)
(0.062474084 0.072578513 0.094585591)
(0.076121249 0.078823284 0.087571713)
(0.087488718 0.087488721 0.098446591)
(0.091900322 0.089058964 0.099169898)
(0.091957789 0.08964049 0.099235968)
(0.091105849 0.089963025 0.099281861)
(0.089608524 0.090162927 0.099307336)
(0.086819666 0.090310714 0.099428504)
(0.083135719 0.090187303 0.099481844)
(0.068685466 0.089278914 0.10102773)
(0.064271471 0.080696876 0.10533104)
(0.07688281 0.082505728 0.088116654)
(0.089058961 0.091900325 0.099169899)
(0.09356267 0.093562674 0.099898464)
(0.093536798 0.094188465 0.099973681)
(0.092487513 0.094510012 0.10002542)
(0.090721746 0.094667895 0.10005276)
(0.087561346 0.094689678 0.10017749)
(0.083489566 0.094347586 0.10022061)
(0.068472926 0.092967434 0.10175388)
(0.064034524 0.083456371 0.10586937)
(0.077076361 0.082682497 0.088136136)
(0.089640487 0.091957791 0.099235969)
(0.094188462 0.0935368 0.099973681)
(0.094105605 0.094105608 0.10005591)
(0.09292817 0.094370698 0.10011143)
(0.091003278 0.094471075 0.10014017)
(0.087649103 0.09441337 0.10026576)
(0.083396803 0.094006756 0.10030315)
(0.068203083 0.092532518 0.10182535)
(0.063904278 0.083143195 0.10588039)
(0.077201253 0.082198739 0.088149849)
(0.089963022 0.09110585 0.099281862)
(0.094510008 0.092487514 0.10002542)
(0.094370695 0.092928171 0.10011143)
(0.0930986 0.093098601 0.10016828)
(0.091067023 0.093131179 0.10019689)
(0.087593762 0.09302706 0.10032166)
(0.083240527 0.092636599 0.10035387)
(0.067972648 0.091280393 0.10186927)
(0.063792676 0.082351991 0.10588944)
(0.077282074 0.081265927 0.088150366)
(0.090162925 0.089608523 0.099307337)
(0.094667891 0.090721745 0.10005276)
(0.094471072 0.091003276 0.10014017)
(0.093131178 0.091067022 0.10019689)
(0.091034458 0.091034457 0.1002255)
(0.08749341 0.090905423 0.10035039)
(0.083082818 0.09057626 0.1003812)
(0.06777302 0.089434265 0.10189472)
(0.06371193 0.081170109 0.10589002)
(0.077392582 0.079375691 0.088225205)
(0.090310711 0.086819663 0.099428505)
(0.094689675 0.087561343 0.10017749)
(0.094413367 0.0876491 0.10026575)
(0.093027059 0.087593759 0.10032166)
(0.090905424 0.087493407 0.10035039)
(0.0873423 0.087342297 0.1004756)
(0.082896782 0.087094395 0.10050695)
(0.067533982 0.086244135 0.10201789)
(0.063588294 0.078970698 0.10596979)
(0.077320068 0.076872406 0.088237902)
(0.090187301 0.083135715 0.099481844)
(0.094347583 0.083489563 0.10022061)
(0.094006754 0.083396799 0.10030315)
(0.092636598 0.083240524 0.10035387)
(0.090576261 0.083082814 0.1003812)
(0.087094398 0.082896779 0.10050695)
(0.082707342 0.082707338 0.10054269)
(0.067345994 0.082066697 0.10206574)
(0.063597078 0.075974819 0.10599086)
(0.077376357 0.065137958 0.089630394)
(0.089278911 0.068685463 0.10102773)
(0.092967431 0.068472923 0.10175388)
(0.092532516 0.06820308 0.10182535)
(0.091280392 0.067972645 0.10186927)
(0.089434266 0.067773017 0.10189472)
(0.086244138 0.067533979 0.10201789)
(0.0820667 0.067345991 0.10206574)
(0.066891238 0.066891235 0.10360852)
(0.063009689 0.063306439 0.10738965)
(0.072578512 0.062474083 0.094585591)
(0.080696873 0.06427147 0.10533104)
(0.083456368 0.064034523 0.10586937)
(0.083143193 0.063904277 0.10588039)
(0.08235199 0.063792675 0.10588944)
(0.081170111 0.063711929 0.10589002)
(0.0789707 0.063588293 0.10596978)
(0.075974823 0.063597076 0.10599085)
(0.063306442 0.063009688 0.10738965)
(0.059576052 0.05957605 0.11051889)
(0.035786848 0.03578685 0.049578927)
(0.051822049 0.045814667 0.067359908)
(0.058020122 0.047464711 0.069791846)
(0.058426347 0.047901247 0.07031874)
(0.057215204 0.048170232 0.070517095)
(0.054861832 0.048334938 0.070720006)
(0.050314908 0.048562097 0.071221408)
(0.044468549 0.048373727 0.072432211)
(0.023680497 0.048503209 0.076608546)
(0.022960447 0.041181736 0.091284041)
(0.045814665 0.051822053 0.067359909)
(0.067577608 0.067577613 0.090919889)
(0.07609983 0.071342984 0.094426338)
(0.076408489 0.072764869 0.095345117)
(0.074200934 0.073536799 0.095766096)
(0.070204931 0.073997452 0.096173932)
(0.063079728 0.074292743 0.096975324)
(0.053973635 0.073875867 0.098643546)
(0.026729315 0.07147289 0.10336884)
(0.022965207 0.055541932 0.11561884)
(0.047464709 0.058020128 0.069791848)
(0.071342979 0.076099835 0.09442634)
(0.080386891 0.080386896 0.098284781)
(0.080565693 0.082022325 0.099385731)
(0.077837445 0.082844053 0.09991484)
(0.073082541 0.083235647 0.10039526)
(0.064924833 0.083254819 0.1012504)
(0.054767405 0.082311352 0.10290445)
(0.026173665 0.078666683 0.10735665)
(0.022393187 0.060117594 0.11823291)
(0.047901245 0.058426352 0.070318743)
(0.072764864 0.076408493 0.095345119)
(0.082022319 0.080565697 0.099385732)
(0.082091066 0.08209107 0.10058633)
(0.079034356 0.08278917 0.10117075)
(0.073849603 0.083046152 0.1016762)
(0.065177512 0.08287431 0.10252571)
(0.054562416 0.081761359 0.10411176)
(0.025580579 0.077861915 0.10835956)
(0.022124822 0.059507503 0.11872216)
(0.04817023 0.057215205 0.070517099)
(0.073536794 0.074200936 0.095766099)
(0.082844048 0.077837446 0.099914842)
(0.082789165 0.079034357 0.10117075)
(0.079493316 0.079493317 0.10178136)
(0.074028855 0.079578896 0.10229333)
(0.065050901 0.079292786 0.10312868)
(0.054190304 0.078228383 0.10466148)
(0.025061261 0.074664516 0.10878657)
(0.021895725 0.057576211 0.1188928)
(0.048334937 0.05486183 0.070720009)
(0.073997447 0.070204929 0.096173935)
(0.083235641 0.073082539 0.10039526)
(0.083046148 0.073849601 0.1016762)
(0.079578894 0.074028853 0.10229333)
(0.073945084 0.073945082 0.1028053)
(0.064795618 0.073599367 0.10363414)
(0.053800412 0.072711758 0.10514197)
(0.02460203 0.069778122 0.1091946)
(0.021731454 0.054618444 0.11909626)
(0.048562095 0.050314903 0.071221411)
(0.074292738 0.063079723 0.096975326)
(0.083254814 0.064924829 0.1012504)
(0.082874306 0.065177507 0.10252571)
(0.079292785 0.065050897 0.10312868)
(0.073599369 0.064795614 0.10363414)
(0.064401882 0.064401877 0.10446523)
(0.053337013 0.063747354 0.10597685)
(0.024057976 0.061659933 0.10999068)
(0.021465424 0.049347333 0.11962692)
(0.048373726 0.044468543 0.072432213)
(0.073875862 0.053973629 0.098643547)
(0.082311346 0.0547674 0.10290445)
(0.081761355 0.05456241 0.10411175)
(0.078228381 0.054190298 0.10466148)
(0.07271176 0.053800406 0.10514197)
(0.063747358 0.053337008 0.10597685)
(0.052858674 0.052858668 0.10752499)
(0.023650602 0.051435673 0.11157535)
(0.021486486 0.04247759 0.12087703)
(0.048503207 0.023680492 0.076608547)
(0.071472885 0.02672931 0.10336883)
(0.078666677 0.026173661 0.10735664)
(0.077861911 0.025580574 0.10835956)
(0.074664515 0.025061257 0.10878657)
(0.069778124 0.024602026 0.1091946)
(0.061659938 0.024057972 0.10999068)
(0.051435679 0.023650597 0.11157535)
(0.022852477 0.022852472 0.11581984)
(0.020279478 0.020039334 0.12487405)
(0.041181734 0.022960445 0.09128404)
(0.055541928 0.022965205 0.11561884)
(0.060117589 0.022393185 0.11823291)
(0.059507498 0.02212482 0.11872215)
(0.05757621 0.021895723 0.1188928)
(0.054618446 0.021731453 0.11909626)
(0.049347337 0.021465422 0.11962692)
(0.042477595 0.021486485 0.12087703)
(0.020039339 0.020279476 0.12487405)
(0.017607537 0.017607535 0.1330212)
(0.018421373 0.018421375 0.031567551)
(0.034102044 0.027443234 0.051688006)
(0.040642056 0.029355847 0.055766003)
(0.041095381 0.0299123 0.056929101)
(0.039326978 0.030251291 0.05743541)
(0.03592943 0.030451614 0.057989112)
(0.029631287 0.030728011 0.05911212)
(0.021935211 0.030475352 0.061781338)
(-0.00042260548 0.030534162 0.067864057)
(0.0029526877 0.022775401 0.08374277)
(0.027443232 0.034102049 0.051688007)
(0.051304985 0.05130499 0.081524258)
(0.061422084 0.056275989 0.088127989)
(0.061896986 0.058235318 0.090316498)
(0.058613452 0.059294059 0.091408645)
(0.052627745 0.059908372 0.092495611)
(0.042356159 0.060258161 0.094325006)
(0.029882575 0.059581906 0.098022998)
(-0.00065548679 0.056244049 0.10481604)
(0.0010717917 0.038395071 0.1154468)
(0.029355845 0.040642062 0.055766006)
(0.056275984 0.06142209 0.088127991)
(0.06740212 0.067402126 0.095760005)
(0.06777322 0.069773879 0.098480978)
(0.063709457 0.070959869 0.099887764)
(0.056536123 0.071513932 0.10118729)
(0.044677459 0.071507725 0.10315585)
(0.030645107 0.07009688 0.10681191)
(-0.0016635252 0.064947725 0.11283357)
(0.00029466431 0.043318306 0.12030543)
(0.029912298 0.041095385 0.056929105)
(0.058235314 0.061896991 0.090316501)
(0.069773873 0.067773225 0.098480979)
(0.070025398 0.070025402 0.10149405)
(0.065480908 0.071055832 0.10306364)
(0.057654197 0.071429674 0.10443831)
(0.045026224 0.071160262 0.10638819)
(0.030340487 0.069502713 0.10985584)
(-0.0024501308 0.063978083 0.11531022)
(-3.7518718e-05 0.042558395 0.12148093)
(0.030251289 0.039326979 0.057435415)
(0.059294054 0.058613453 0.091408649)
(0.070959863 0.063709459 0.099887766)
(0.071055827 0.065480909 0.10306364)
(0.066166048 0.066166049 0.10471269)
(0.057923708 0.066293123 0.10610949)
(0.044849102 0.065863347 0.108019)
(0.029823303 0.064288456 0.11133977)
(-0.003133562 0.059296745 0.1164481)
(-0.00031585829 0.039815837 0.12195102)
(0.030451612 0.035929428 0.057989116)
(0.059908368 0.052627743 0.092495614)
(0.071513927 0.05653612 0.10118729)
(0.07142967 0.057654195 0.10443831)
(0.066293121 0.057923706 0.10610949)
(0.057801448 0.057801446 0.10750633)
(0.044479708 0.057290374 0.10939386)
(0.029273144 0.055998849 0.11263977)
(-0.0037450255 0.05201981 0.1175362)
(-0.00051534753 0.035573524 0.12250604)
(0.030728009 0.029631282 0.059112123)
(0.060258156 0.042356154 0.094325008)
(0.071507719 0.044677454 0.10315586)
(0.071160257 0.04502622 0.10638819)
(0.065863346 0.044849098 0.108019)
(0.057290377 0.044479703 0.10939386)
(0.043908529 0.043908525 0.11128315)
(0.028621397 0.042986003 0.11453264)
(-0.0044628925 0.040344928 0.11932297)
(-0.00085052088 0.02829534 0.12366871)
(0.03047535 0.021935205 0.06178134)
(0.059581902 0.029882569 0.098022999)
(0.070096874 0.030645101 0.10681191)
(0.069502709 0.030340481 0.10985584)
(0.064288454 0.029823297 0.11133977)
(0.055998851 0.029273139 0.11263977)
(0.042986008 0.028621391 0.11453264)
(0.02798217 0.027982164 0.11786775)
(-0.0049497316 0.026416495 0.12273655)
(-0.00081983717 0.019374594 0.12633136)
(0.03053416 -0.00042261048 0.067864058)
(0.056244044 -0.00065549153 0.10481604)
(0.064947719 -0.0016635297 0.11283357)
(0.063978078 -0.0024501351 0.11531022)
(0.059296743 -0.0031335662 0.1164481)
(0.052019812 -0.0037450297 0.11753619)
(0.040344933 -0.0044628969 0.11932296)
(0.0264165 -0.0049497362 0.12273655)
(-0.005556443 -0.0055564476 0.12812348)
(-0.0020102202 -0.0046391144 0.13164539)
(0.0227754 0.0029526858 0.08374277)
(0.038395067 0.00107179 0.1154468)
(0.043318301 0.00029466275 0.12030543)
(0.04255839 -3.7520084e-05 0.12148092)
(0.039815836 -0.00031585955 0.12195102)
(0.035573526 -0.00051534882 0.12250604)
(0.028295345 -0.00085052229 0.12366871)
(0.0193746 -0.00081983876 0.12633136)
(-0.0046391097 -0.002010222 0.13164539)
(-0.0013717523 -0.0013717541 0.13597827)
(0.0095121354 0.0095121375 0.021145107)
(0.022392573 0.016376542 0.04013079)
(0.028275978 0.018188956 0.045351298)
(0.028600969 0.018776935 0.047191458)
(0.026404074 0.019138058 0.048097809)
(0.022298909 0.019346657 0.049113934)
(0.015024164 0.019636659 0.050939679)
(0.0066835714 0.019369077 0.055040748)
(-0.013633922 0.019353191 0.061848144)
(-0.0064943089 0.012229887 0.07457462)
(0.016376539 0.022392579 0.040130791)
(0.03828891 0.038288915 0.071889089)
(0.048379402 0.0436643 0.081313308)
(0.048807743 0.045899507 0.085025012)
(0.044676568 0.047114444 0.087025444)
(0.037226198 0.047805281 0.089019251)
(0.024965884 0.04816174 0.09203764)
(0.010990942 0.0473144 0.097728129)
(-0.017605249 0.043600875 0.10496158)
(-0.0097059698 0.026646591 0.10912866)
(0.018188954 0.028275984 0.0453513)
(0.043664295 0.048379409 0.081313309)
(0.055155234 0.05515524 0.092688458)
(0.055525866 0.05798198 0.097438794)
(0.05040999 0.059404603 0.10005642)
(0.041419798 0.060061551 0.10246284)
(0.027147441 0.060028021 0.10572447)
(0.011287161 0.058317998 0.11129855)
(-0.019175503 0.052436289 0.11706285)
(-0.010617867 0.031154548 0.11603318)
(0.018776933 0.028600973 0.047191462)
(0.045899502 0.048807748 0.085025014)
(0.057981974 0.05552587 0.097438795)
(0.058246076 0.058246081 0.10276971)
(0.052537472 0.059504771 0.10571306)
(0.042717928 0.059959853 0.10827038)
(0.027487071 0.059622836 0.11149172)
(0.010854408 0.057618221 0.11669976)
(-0.020092667 0.051294616 0.12138954)
(-0.010975822 0.030265447 0.11803282)
(0.019138056 0.026404076 0.048097813)
(0.047114439 0.044676569 0.087025448)
(0.059404597 0.050409991 0.10005642)
(0.059504766 0.052537474 0.10571307)
(0.053377062 0.053377064 0.10881837)
(0.04304043 0.053534678 0.11142287)
(0.02726383 0.053010386 0.11456495)
(0.010238555 0.051125073 0.11948906)
(-0.020858245 0.045510543 0.12351395)
(-0.011264662 0.026960848 0.1189205)
(0.019346655 0.022298907 0.049113938)
(0.047805276 0.037226196 0.089019254)
(0.060061545 0.041419795 0.10246284)
(0.059959849 0.042717926 0.10827038)
(0.053534676 0.043040428 0.11142287)
(0.042891145 0.042891143 0.11402753)
(0.026816326 0.04227498 0.11712289)
(0.0095878158 0.040767474 0.12189674)
(-0.021545012 0.036494447 0.12551062)
(-0.011472246 0.021864245 0.11993919)
(0.019636658 0.015024158 0.050939682)
(0.048161735 0.024965879 0.092037643)
(0.060028015 0.027147436 0.10572447)
(0.059622832 0.027487066 0.11149172)
(0.053010385 0.027263825 0.11456495)
(0.042274983 0.026816321 0.11712289)
(0.026137616 0.026137611 0.12021607)
(0.0088305975 0.025112007 0.12499004)
(-0.022341047 0.022573058 0.1284123)
(-0.011832407 0.013474503 0.12179001)
(0.019369075 0.0066835649 0.05504075)
(0.047314395 0.010990936 0.09772813)
(0.058317993 0.011287155 0.11129855)
(0.057618217 0.010854402 0.11669976)
(0.051125071 0.010238549 0.11948906)
(0.040767476 0.00958781 0.12189674)
(0.025112012 0.0088305915 0.12499004)
(0.0081702537 0.0081702477 0.12991742)
(-0.022799014 0.0070115107 0.13349653)
(-0.01179222 0.0039048451 0.12574271)
(0.019353189 -0.013633927 0.061848145)
(0.04360087 -0.017605254 0.10496158)
(0.052436284 -0.019175508 0.11706285)
(0.051294612 -0.020092671 0.12138954)
(0.045510542 -0.020858249 0.12351395)
(0.036494449 -0.021545016 0.12551061)
(0.022573063 -0.022341051 0.1284123)
(0.0070115167 -0.022799018 0.13349653)
(-0.02287214 -0.022872145 0.13807268)
(-0.012674028 -0.017831735 0.13088939)
(0.012229885 -0.006494311 0.07457462)
(0.026646586 -0.0097059716 0.10912866)
(0.031154542 -0.010617868 0.11603318)
(0.030265442 -0.010975823 0.11803281)
(0.026960846 -0.011264663 0.11892049)
(0.021864247 -0.011472248 0.11993919)
(0.013474508 -0.011832408 0.12179001)
(0.0039048513 -0.011792221 0.1257427)
(-0.01783173 -0.01267403 0.13088939)
(-0.0091982156 -0.0091982175 0.12808399)
(0.0048744621 0.0048744645 0.014785137)
(0.014596319 0.0097077959 0.031688606)
(0.019430802 0.011256665 0.037592882)
(0.019506909 0.011815655 0.040055283)
(0.016990562 0.012167912 0.041408566)
(0.012470184 0.012368536 0.04293322)
(0.0048452219 0.012652587 0.04542701)
(-0.0032787347 0.012397209 0.050613965)
(-0.020064742 0.012360774 0.057244655)
(-0.010291931 0.0063420883 0.065630461)
(0.0097077936 0.014596325 0.031688607)
(0.028039276 0.028039282 0.063195477)
(0.037132877 0.03325115 0.074899338)
(0.037295511 0.035550735 0.080178165)
(0.032513762 0.036819254 0.083229662)
(0.024102668 0.037532572 0.086240916)
(0.010886469 0.037876628 0.090410853)
(-0.0031120105 0.036963107 0.097586208)
(-0.027190167 0.033320281 0.10391409)
(-0.014242071 0.018554698 0.10050088)
(0.011256663 0.019430809 0.037592884)
(0.033251145 0.037132884 0.074899339)
(0.043969936 0.043969943 0.089587366)
(0.044102938 0.046989226 0.096516547)
(0.038177995 0.048533121 0.10055977)
(0.02795971 0.049244912 0.10422298)
(0.012447269 0.049197038 0.10873683)
(-0.0035782783 0.047363717 0.11565321)
(-0.029351235 0.041404974 0.11967951)
(-0.015231442 0.022290744 0.10905341)
(0.011815653 0.019506914 0.040055285)
(0.03555073 0.037295516 0.080178167)
(0.04698922 0.044102943 0.096516548)
(0.04703332 0.047033325 0.10439183)
(0.04043615 0.048418164 0.10897055)
(0.0292591 0.04892369 0.1128808)
(0.012663284 0.048558015 0.11732284)
(-0.0041825004 0.046412273 0.12364583)
(-0.03037018 0.040005446 0.12599191)
(-0.015591199 0.021247297 0.11189744)
(0.01216791 0.016990564 0.041408569)
(0.036819249 0.032513764 0.083229664)
(0.048533115 0.038177997 0.10055977)
(0.048418159 0.040436151 0.10897055)
(0.041354452 0.041354453 0.11381955)
(0.029590134 0.041532556 0.11781032)
(0.01238668 0.040968971 0.12212318)
(-0.0048693033 0.03898133 0.12798934)
(-0.031166627 0.033437128 0.12928244)
(-0.01586892 0.017573845 0.11327887)
(0.012368535 0.012470182 0.042933223)
(0.037532567 0.024102665 0.086240919)
(0.049244906 0.027959708 0.10422299)
(0.048923685 0.029259097 0.1128808)
(0.041532554 0.029590132 0.11781032)
(0.029423664 0.029423661 0.12180151)
(0.011891526 0.028766224 0.12603488)
(-0.0055729979 0.027234969 0.13165524)
(-0.031875171 0.023293108 0.13229885)
(-0.016068573 0.011987088 0.11480794)
(0.012652585 0.004845216 0.045427013)
(0.037876623 0.010886464 0.090410855)
(0.049197032 0.012447263 0.10873683)
(0.04855801 0.012663279 0.11732284)
(0.04096897 0.012386675 0.12212318)
(0.028766227 0.011891521 0.12603488)
(0.011174315 0.01117431 0.1302588)
(-0.0063624605 0.010208079 0.13587529)
(-0.032680399 0.0082792453 0.136242)
(-0.016425345 0.0031966624 0.11728425)
(0.012397207 -0.0032787418 0.050613966)
(0.036963102 -0.0031120172 0.097586209)
(0.047363711 -0.0035782848 0.11565321)
(0.046412269 -0.0041825067 0.12364583)
(0.038981328 -0.0048693095 0.12798933)
(0.027234971 -0.0055730042 0.13165523)
(0.010208084 -0.0063624669 0.13587529)
(-0.0069177847 -0.0069177912 0.14173634)
(-0.033034567 -0.0073032112 0.14239948)
(-0.01636724 -0.0060635769 0.12210639)
(0.012360771 -0.020064748 0.057244656)
(0.033320275 -0.027190172 0.10391409)
(0.041404968 -0.02935124 0.11967951)
(0.040005441 -0.030370185 0.12599191)
(0.033437127 -0.031166632 0.12928244)
(0.02329311 -0.031875176 0.13229885)
(0.0082792506 -0.032680404 0.136242)
(-0.0073032047 -0.033034572 0.14239948)
(-0.032430089 -0.032430094 0.14469487)
(-0.01689017 -0.023990147 0.12612038)
(0.0063420861 -0.010291933 0.065630461)
(0.018554693 -0.014242073 0.10050088)
(0.022290737 -0.015231444 0.10905341)
(0.021247292 -0.015591201 0.11189743)
(0.017573843 -0.015868921 0.11327887)
(0.01198709 -0.016068574 0.11480794)
(0.0031966678 -0.016425347 0.11728425)
(-0.0060635702 -0.016367242 0.12210639)
(-0.023990141 -0.016890173 0.12612038)
(-0.01175754 -0.011757542 0.11656845)
(0.0024424931 0.0024424956 0.010780489)
(0.0093703164 0.0056847411 0.025607389)
(0.013062227 0.0069251654 0.031875297)
(0.01282668 0.0074207697 0.034873015)
(0.010089935 0.007745514 0.036683404)
(0.0054002396 0.0079294401 0.038708623)
(-0.0020993203 0.0081980557 0.041761742)
(-0.0094503555 0.0079725456 0.047577996)
(-0.022344436 0.0079664228 0.053438219)
(-0.011111917 0.0031324087 0.057468146)
(0.0056847387 0.0093703229 0.02560739)
(0.020069263 0.020069269 0.055921467)
(0.027647577 0.02476116 0.069361342)
(0.027374124 0.026965928 0.076130489)
(0.022119847 0.028210313 0.080291766)
(0.013204691 0.028909659 0.084329916)
(-0.00011338623 0.029239088 0.089478407)
(-0.013079959 0.028357006 0.097444464)
(-0.031687497 0.025092005 0.10193612)
(-0.015310725 0.012952916 0.091282197)
(0.0069251634 0.013062234 0.031875298)
(0.024761154 0.027647584 0.069361343)
(0.034011607 0.034011614 0.086824617)
(0.033697832 0.036999052 0.095911917)
(0.027179946 0.038564651 0.10148571)
(0.016276979 0.03929397 0.10643406)
(0.00051815172 0.039253388 0.11200574)
(-0.014448054 0.037458967 0.11949327)
(-0.034385965 0.031915787 0.12077196)
(-0.016326838 0.015789098 0.10104776)
(0.0074207679 0.012826685 0.034873017)
(0.026965922 0.027374129 0.07613049)
(0.036999045 0.033697837 0.095911917)
(0.036605593 0.036605598 0.10636496)
(0.02936138 0.038021998 0.11271958)
(0.017414411 0.038552293 0.11802489)
(0.00050823095 0.038200662 0.12348148)
(-0.015262844 0.036105266 0.13010682)
(-0.035491638 0.030166032 0.12904134)
(-0.016674093 0.014561552 0.10468399)
(0.0077455124 0.010089936 0.036683406)
(0.028210307 0.022119849 0.080291768)
(0.038564644 0.027179948 0.10148571)
(0.038021992 0.029361382 0.11271958)
(0.030284526 0.030284528 0.11947371)
(0.017707799 0.030474224 0.12489927)
(0.00016475453 0.02992727 0.1301674)
(-0.016005662 0.028029809 0.1361355)
(-0.036288706 0.023082727 0.13358511)
(-0.016929636 0.010672661 0.10659234)
(0.0079294384 0.0054002367 0.038708625)
(0.028909654 0.013204689 0.084329918)
(0.039293964 0.016276976 0.10643406)
(0.038552288 0.017414409 0.11802489)
(0.030474222 0.017707796 0.12489927)
(0.017532203 0.0175322 0.13032567)
(-0.00035324569 0.016895255 0.13547546)
(-0.016725857 0.01551372 0.14108879)
(-0.036983252 0.012353839 0.13763121)
(-0.017112768 0.0048931708 0.1086241)
(0.0081980539 -0.0020993266 0.041761744)
(0.029239083 -0.00011339211 0.089478409)
(0.039253381 0.00051814592 0.11200574)
(0.038200657 0.00050822521 0.12348148)
(0.029927268 0.00016474882 0.1301674)
(0.016895258 -0.00035325141 0.13547546)
(-0.0010459454 -0.0010459511 0.140607)
(-0.017486861 -0.001813607 0.14621694)
(-0.037749555 -0.0028067223 0.14241533)
(-0.017449268 -0.0037674659 0.11159452)
(0.0079725435 -0.0094503631 0.047577997)
(0.028357001 -0.013079966 0.097444465)
(0.03745896 -0.014448061 0.11949327)
(0.036105261 -0.015262851 0.13010682)
(0.028029807 -0.016005668 0.1361355)
(0.015513723 -0.016725864 0.14108879)
(-0.0018136014 -0.017486868 0.14621694)
(-0.017839751 -0.017839758 0.15219243)
(-0.037956042 -0.017275139 0.14890519)
(-0.017371472 -0.012127387 0.11679483)
(0.0079664206 -0.022344442 0.053438219)
(0.025091999 -0.031687502 0.10193612)
(0.031915781 -0.03438597 0.12077196)
(0.030166027 -0.035491643 0.12904134)
(0.023082725 -0.036288711 0.13358511)
(0.012353841 -0.036983257 0.13763121)
(-0.0028067167 -0.03774956 0.14241533)
(-0.017275132 -0.037956047 0.14890519)
(-0.036679627 -0.036679633 0.14803407)
(-0.017591709 -0.025913682 0.1191918)
(0.0031324064 -0.011111919 0.057468146)
(0.01295291 -0.015310727 0.091282197)
(0.015789092 -0.01632684 0.10104776)
(0.014561547 -0.016674095 0.10468399)
(0.010672659 -0.016929637 0.10659234)
(0.0048931732 -0.01711277 0.1086241)
(-0.0037674602 -0.01744927 0.11159452)
(-0.01212738 -0.017371474 0.11679483)
(-0.025913677 -0.017591711 0.1191918)
(-0.011806647 -0.011806649 0.10425392)
(0.0011631858 0.0011631884 0.008298336)
(0.0058385638 0.0032514023 0.02134378)
(0.0084454988 0.0041986265 0.027778903)
(0.0078832956 0.0046161893 0.031226423)
(0.0050174951 0.0049037607 0.033477102)
(0.00035795499 0.0050673371 0.035955889)
(-0.0066785449 0.0053169121 0.039420664)
(-0.012947088 0.0051333276 0.045426657)
(-0.02217979 0.0051855678 0.050145724)
(-0.0104554 0.001431173 0.050192565)
(0.0032513998 0.0058385704 0.021343781)
(0.013933663 0.013933669 0.050178303)
(0.019789694 0.017917848 0.064903112)
(0.01897701 0.019918468 0.073029091)
(0.013413984 0.021083208 0.078289787)
(0.0043880072 0.021745558 0.083285112)
(-0.0083739729 0.02206671 0.089159438)
(-0.019643933 0.021294484 0.0972223)
(-0.032800128 0.018586033 0.099295527)
(-0.014555467 0.0090507974 0.082234082)
(0.0041986244 0.0084455065 0.027778904)
(0.017917842 0.019789701 0.064903112)
(0.025337998 0.025338005 0.084629875)
(0.024429373 0.028117929 0.095755376)
(0.017514217 0.029624071 0.10287054)
(0.0064028837 0.030343275 0.10903453)
(-0.0088163641 0.030334613 0.1153766)
(-0.021919417 0.028713541 0.12266559)
(-0.035927888 0.023913109 0.12058353)
(-0.015556052 0.010992084 0.092818045)
(0.0046161874 0.0078833013 0.031226424)
(0.019918462 0.018977016 0.073029092)
(0.028117922 0.024429378 0.095755377)
(0.027122804 0.027122809 0.10869657)
(0.019446577 0.028488555 0.11686065)
(0.0072464241 0.029023088 0.12349801)
(-0.0091291084 0.02872686 0.12966822)
(-0.022968841 0.026842818 0.13579358)
(-0.037108313 0.021748413 0.13068003)
(-0.015883249 0.0095641516 0.097158574)
(0.004903759 0.0050174968 0.033477104)
(0.021083202 0.013413986 0.078289788)
(0.029624064 0.017514219 0.10287054)
(0.02848855 0.019446579 0.11686065)
(0.020307964 0.020307966 0.12556826)
(0.0074593628 0.020501694 0.13236964)
(-0.0095544336 0.020022934 0.13828442)
(-0.023760299 0.018376231 0.14353321)
(-0.037889597 0.014378447 0.13648284)
(-0.016112194 0.0055831999 0.099589792)
(0.0050673354 0.00035795211 0.035955891)
(0.021745552 0.0043880046 0.083285113)
(0.030343268 0.0064028811 0.10903453)
(0.029023083 0.0072464215 0.12349801)
(0.020501692 0.0074593603 0.13236964)
(0.0072809435 0.0072809409 0.13917243)
(-0.010075961 0.0067193244 0.1449263)
(-0.024470398 0.0056271218 0.14970504)
(-0.038547765 0.0035240294 0.14148938)
(-0.016275232 -0.00015511643 0.10207723)
(0.0053169102 -0.0066785513 0.039420665)
(0.022066704 -0.0083739789 0.089159439)
(0.030334606 -0.0088163701 0.1153766)
(0.028726855 -0.0091291143 0.12966822)
(0.020022932 -0.0095544395 0.13828442)
(0.006719327 -0.010075967 0.1449263)
(-0.010691181 -0.010691187 0.15065434)
(-0.025156201 -0.011156481 0.15544015)
(-0.039243792 -0.011059912 0.14684654)
(-0.016582764 -0.00831566 0.10538091)
(0.0051333255 -0.012947096 0.045426658)
(0.021294479 -0.01964394 0.097222301)
(0.028713534 -0.021919424 0.12266559)
(0.026842813 -0.022968848 0.13579358)
(0.018376229 -0.023760305 0.14353321)
(0.0056271243 -0.024470405 0.14970504)
(-0.011156476 -0.025156208 0.15544015)
(-0.025244416 -0.025244423 0.16074731)
(-0.039285051 -0.023709105 0.15297034)
(-0.016490131 -0.01546565 0.11052111)
(0.0051855655 -0.022179797 0.050145724)
(0.018586027 -0.032800134 0.099295527)
(0.023913102 -0.035927893 0.12058353)
(0.021748407 -0.037108318 0.13068003)
(0.014378445 -0.037889602 0.13648284)
(0.0035240318 -0.03854777 0.14148938)
(-0.011059906 -0.039243797 0.14684654)
(-0.023709098 -0.039285056 0.15297034)
(-0.037434669 -0.037434674 0.14851492)
(-0.016492362 -0.02539296 0.11112501)
(0.0014311706 -0.010455402 0.050192565)
(0.0090507913 -0.014555469 0.082234082)
(0.010992077 -0.015556054 0.092818044)
(0.0095641462 -0.015883251 0.097158573)
(0.0055831981 -0.016112196 0.09958979)
(-0.00015511398 -0.016275233 0.10207723)
(-0.008315654 -0.016582766 0.10538091)
(-0.015465643 -0.016490133 0.1105211)
(-0.025392954 -0.016492364 0.11112501)
(-0.010731296 -0.010731298 0.092184232)
(0.00048529346 0.0004852962 0.0068365457)
(0.0034288951 0.0017716677 0.01847976)
(0.0050797018 0.0024666146 0.024978087)
(0.0042106458 0.0028042488 0.028801149)
(0.0012986955 0.0030511611 0.031455909)
(-0.0031759337 0.0031938773 0.034315072)
(-0.0095301537 0.0034237806 0.038028721)
(-0.014592593 0.0032883568 0.043852307)
(-0.020670132 0.0034069429 0.047227363)
(-0.0091649101 0.00056650513 0.043826354)
(0.0017716651 0.0034289019 0.01847976)
(0.0092498839 0.0092498904 0.045908831)
(0.01338259 0.012461196 0.061580176)
(0.011994114 0.014192116 0.070906771)
(0.0062725237 0.015240952 0.077202009)
(-0.0025426654 0.015853301 0.083026354)
(-0.014281075 0.016175565 0.089336063)
(-0.023516177 0.015567673 0.096888055)
(-0.031775603 0.013491838 0.09624097)
(-0.012954444 0.0063120775 0.073786171)
(0.0024666124 0.0050797098 0.024978087)
(0.012461189 0.013382598 0.061580176)
(0.017933684 0.017933691 0.083134353)
(0.016353127 0.020382064 0.096121515)
(0.00921836 0.02176716 0.10471114)
(-0.0017046891 0.022456979 0.11194631)
(-0.015808286 0.022503346 0.1187249)
(-0.026608487 0.021155178 0.12514068)
(-0.035199416 0.017279474 0.11940537)
(-0.013907626 0.0074378761 0.08486319)
(0.0028042468 0.0042106517 0.02880115)
(0.01419211 0.01199412 0.070906772)
(0.020382056 0.016353133 0.096121516)
(0.018689456 0.018689461 0.11138199)
(0.010773464 0.019938137 0.12129805)
(-0.0012476749 0.020461265 0.12912207)
(-0.016469348 0.020256279 0.13565752)
(-0.02789752 0.018705267 0.14058556)
(-0.03644103 0.014675484 0.13113773)
(-0.014211299 0.0058121221 0.089804363)
(0.0030511593 0.0012986973 0.03145591)
(0.015240946 0.0062725255 0.07720201)
(0.021767153 0.0092183619 0.10471114)
(0.019938131 0.010773466 0.12129805)
(0.011517927 0.011517929 0.13190962)
(-0.0011505681 0.011709542 0.13994285)
(-0.01698911 0.011342168 0.14615005)
(-0.028733679 0.010065858 0.1499723)
(-0.037198655 0.007211597 0.13813733)
(-0.014413153 0.0018384249 0.092724572)
(0.0031938755 -0.0031759366 0.034315072)
(0.015853295 -0.002542668 0.083026356)
(0.022456972 -0.0017046917 0.11194631)
(0.020461259 -0.0012476775 0.12912207)
(0.01170954 -0.0011505706 0.13994285)
(-0.0013271168 -0.0013271193 0.14797819)
(-0.017499842 -0.0017691133 0.15398074)
(-0.029415433 -0.0024737415 0.1572187)
(-0.037807936 -0.0033989899 0.14397636)
(-0.014555618 -0.003682851 0.095594286)
(0.0034237787 -0.0095301604 0.038028721)
(0.016175559 -0.014281082 0.089336064)
(0.022503339 -0.015808292 0.1187249)
(0.020256273 -0.016469354 0.13565752)
(0.011342166 -0.016989116 0.14615005)
(-0.0017691107 -0.017499848 0.15398074)
(-0.017997201 -0.017997207 0.15995399)
(-0.029993605 -0.018096108 0.16322443)
(-0.038415628 -0.016895308 0.14961356)