/*--------------------------------*- C++ -*----------------------------------*\
| =========                 |                                                 |
| \\      /  F ield         | OpenFOAM: The Open Source CFD Toolbox           |
|  \\    /   O peration     | Version:  dev                                   |
|   \\  /    A nd           | Web:      www.OpenFOAM.org                      |
|    \\/     M anipulation  |                                                 |
\*---------------------------------------------------------------------------*/
FoamFile
{
    version     2.0;
    format      ascii;
    class       volVectorField;
    location    "7";
    object      U_0;
}
// * * * * * * * * * * * * * * * * * * * * * * * * * * * * * * * * * * * * * //

dimensions      [0 1 -1 0 0 0 0];

internalField   nonuniform List<vector> 
10000
(
(0.069651433 0.069651431 0.078660547)
(0.078823288 0.07612125 0.087571712)
(0.082505733 0.076882811 0.088116654)
(0.082682501 0.077076363 0.088136136)
(0.08219874 0.077201254 0.08814985)
(0.081265925 0.077282075 0.088150366)
(0.079375686 0.077392583 0.088225205)
(0.076872401 0.077320069 0.088237901)
(0.065137954 0.077376358 0.089630393)
(0.062474081 0.072578512 0.09458559)
(0.076121253 0.078823283 0.087571711)
(0.087488726 0.087488721 0.09844659)
(0.091900331 0.089058964 0.099169899)
(0.091957796 0.089640491 0.09923597)
(0.091105851 0.089963025 0.099281863)
(0.089608521 0.090162928 0.099307338)
(0.086819658 0.090310714 0.099428505)
(0.083135709 0.090187303 0.099481843)
(0.068685459 0.089278914 0.10102773)
(0.064271468 0.080696875 0.10533104)
(0.076882813 0.082505727 0.088116652)
(0.08905897 0.091900325 0.099169897)
(0.09356268 0.093562674 0.099898464)
(0.093536805 0.094188466 0.099973683)
(0.092487515 0.094510012 0.10002542)
(0.090721743 0.094667895 0.10005277)
(0.087561337 0.094689679 0.10017749)
(0.083489557 0.094347586 0.10022061)
(0.068472918 0.092967434 0.10175388)
(0.064034521 0.08345637 0.10586937)
(0.077076365 0.082682497 0.088136134)
(0.089640496 0.091957791 0.099235968)
(0.094188472 0.0935368 0.099973682)
(0.094105613 0.094105608 0.10005591)
(0.092928173 0.094370698 0.10011143)
(0.091003274 0.094471075 0.10014018)
(0.087649095 0.09441337 0.10026576)
(0.083396793 0.094006756 0.10030315)
(0.068203075 0.092532518 0.10182535)
(0.063904275 0.083143195 0.10588039)
(0.077201256 0.082198739 0.088149847)
(0.08996303 0.09110585 0.09928186)
(0.094510018 0.092487514 0.10002542)
(0.094370703 0.092928171 0.10011143)
(0.093098602 0.0930986 0.10016828)
(0.09106702 0.093131179 0.10019689)
(0.087593754 0.09302706 0.10032166)
(0.083240517 0.092636599 0.10035387)
(0.06797264 0.091280393 0.10186927)
(0.063792672 0.082351991 0.10588944)
(0.077282077 0.081265928 0.088150363)
(0.090162933 0.089608523 0.099307336)
(0.094667901 0.090721745 0.10005276)
(0.09447108 0.091003276 0.10014018)
(0.093131181 0.091067022 0.10019689)
(0.091034455 0.091034457 0.1002255)
(0.087493402 0.090905423 0.10035039)
(0.083082808 0.09057626 0.1003812)
(0.067773012 0.089434265 0.10189472)
(0.063711927 0.08117011 0.10589002)
(0.077392585 0.079375691 0.088225203)
(0.090310719 0.086819663 0.099428503)
(0.094689684 0.087561343 0.10017749)
(0.094413375 0.0876491 0.10026576)
(0.093027061 0.087593759 0.10032166)
(0.090905421 0.087493407 0.10035039)
(0.087342292 0.087342297 0.1004756)
(0.082896773 0.087094395 0.10050695)
(0.067533974 0.086244136 0.10201789)
(0.063588291 0.078970698 0.10596978)
(0.077320071 0.076872407 0.0882379)
(0.090187308 0.083135715 0.099481843)
(0.094347592 0.083489563 0.10022061)
(0.094006761 0.083396799 0.10030315)
(0.0926366 0.083240523 0.10035387)
(0.090576258 0.083082814 0.1003812)
(0.08709439 0.082896779 0.10050695)
(0.082707333 0.082707338 0.10054269)
(0.067345987 0.082066697 0.10206574)
(0.063597075 0.07597482 0.10599085)
(0.07737636 0.065137959 0.089630392)
(0.089278918 0.068685464 0.10102773)
(0.09296744 0.068472923 0.10175388)
(0.092532523 0.068203079 0.10182535)
(0.091280394 0.067972644 0.10186927)
(0.089434263 0.067773016 0.10189472)
(0.086244131 0.067533979 0.10201789)
(0.082066691 0.067345991 0.10206574)
(0.066891231 0.066891236 0.10360852)
(0.063009686 0.06330644 0.10738964)
(0.072578514 0.062474083 0.09458559)
(0.08069688 0.06427147 0.10533104)
(0.083456376 0.064034523 0.10586937)
(0.083143199 0.063904277 0.10588039)
(0.082351992 0.063792674 0.10588944)
(0.081170108 0.063711929 0.10589002)
(0.078970694 0.063588293 0.10596979)
(0.075974815 0.063597077 0.10599085)
(0.063306435 0.063009688 0.10738964)
(0.059576049 0.059576051 0.11051889)
(0.035786853 0.035786849 0.049578923)
(0.051822061 0.045814667 0.067359905)
(0.058020137 0.047464711 0.069791846)
(0.058426359 0.047901247 0.070318743)
(0.057215207 0.048170232 0.0705171)
(0.054861826 0.048334939 0.07072001)
(0.050314895 0.048562097 0.07122141)
(0.044468533 0.048373727 0.072432211)
(0.023680485 0.048503208 0.076608543)
(0.022960442 0.041181735 0.091284036)
(0.045814671 0.051822052 0.067359903)
(0.067577622 0.067577612 0.090919886)
(0.076099846 0.071342984 0.094426339)
(0.076408501 0.072764869 0.095345121)
(0.074200938 0.0735368 0.095766102)
(0.070204925 0.073997453 0.096173938)
(0.063079714 0.074292743 0.096975327)
(0.053973618 0.073875867 0.098643545)
(0.026729302 0.071472889 0.10336883)
(0.022965202 0.055541931 0.11561883)
(0.047464715 0.058020127 0.069791842)
(0.071342994 0.076099835 0.094426336)
(0.080386908 0.080386896 0.098284781)
(0.080565705 0.082022325 0.099385735)
(0.077837449 0.082844054 0.099914847)
(0.073082535 0.083235648 0.10039527)
(0.064924819 0.08325482 0.1012504)
(0.054767388 0.082311352 0.10290445)
(0.026173652 0.078666682 0.10735664)
(0.022393181 0.060117593 0.1182329)
(0.047901251 0.058426351 0.070318737)
(0.072764879 0.076408493 0.095345116)
(0.082022336 0.080565697 0.099385733)
(0.082091079 0.08209107 0.10058633)
(0.07903436 0.08278917 0.10117076)
(0.073849597 0.083046153 0.10167621)
(0.065177497 0.082874311 0.10252572)
(0.054562398 0.08176136 0.10411176)
(0.025580565 0.077861915 0.10835956)
(0.022124816 0.059507502 0.11872215)
(0.048170236 0.057215205 0.070517092)
(0.073536809 0.074200935 0.095766096)
(0.082844065 0.077837446 0.099914843)
(0.082789179 0.079034357 0.10117076)
(0.07949332 0.079493317 0.10178136)
(0.074028848 0.079578896 0.10229334)
(0.065050886 0.079292786 0.10312868)
(0.054190286 0.078228383 0.10466148)
(0.025061247 0.074664516 0.10878657)
(0.021895719 0.057576211 0.11889279)
(0.048334943 0.05486183 0.070720003)
(0.073997462 0.070204929 0.096173932)
(0.083235659 0.073082539 0.10039526)
(0.083046161 0.073849601 0.10167621)
(0.079578898 0.074028852 0.10229334)
(0.073945078 0.073945082 0.10280531)
(0.064795604 0.073599367 0.10363414)
(0.053800394 0.072711758 0.10514197)
(0.024602016 0.069778123 0.1091946)
(0.021731449 0.054618444 0.11909626)
(0.048562101 0.050314904 0.071221405)
(0.074292753 0.063079724 0.096975323)
(0.083254831 0.064924828 0.1012504)
(0.082874319 0.065177506 0.10252572)
(0.079292789 0.065050895 0.10312868)
(0.073599363 0.064795613 0.10363414)
(0.064401868 0.064401877 0.10446524)
(0.053336996 0.063747354 0.10597685)
(0.024057963 0.061659934 0.10999067)
(0.021465419 0.049347334 0.11962691)
(0.048373731 0.044468544 0.072432207)
(0.073875876 0.05397363 0.098643544)
(0.082311362 0.054767399 0.10290445)
(0.081761368 0.054562409 0.10411176)
(0.078228386 0.054190297 0.10466149)
(0.072711754 0.053800405 0.10514198)
(0.063747345 0.053337007 0.10597685)
(0.052858658 0.052858668 0.10752499)
(0.023650589 0.051435674 0.11157535)
(0.021486481 0.042477591 0.12087702)
(0.048503212 0.023680494 0.076608542)
(0.071472898 0.026729311 0.10336883)
(0.078666693 0.026173661 0.10735664)
(0.077861923 0.025580573 0.10835957)
(0.074664519 0.025061256 0.10878657)
(0.069778119 0.024602024 0.10919461)
(0.061659925 0.024057971 0.10999068)
(0.051435663 0.023650597 0.11157535)
(0.022852465 0.022852474 0.11581984)
(0.020279473 0.020039336 0.12487405)
(0.041181738 0.022960445 0.091284037)
(0.055541939 0.022965205 0.11561883)
(0.060117603 0.022393185 0.11823291)
(0.059507509 0.02212482 0.11872216)
(0.057576213 0.021895723 0.1188928)
(0.054618441 0.021731452 0.11909626)
(0.049347326 0.021465422 0.11962692)
(0.042477581 0.021486485 0.12087703)
(0.020039328 0.020279477 0.12487405)
(0.017607532 0.017607536 0.1330212)
(0.018421379 0.018421375 0.031567546)
(0.034102058 0.027443234 0.051688004)
(0.040642073 0.029355847 0.055766004)
(0.041095393 0.0299123 0.056929105)
(0.039326982 0.030251292 0.057435416)
(0.035929424 0.030451615 0.057989117)
(0.029631273 0.030728011 0.059112123)
(0.021935194 0.030475351 0.061781337)
(-0.00042261888 0.030534161 0.067864053)
(0.0029526828 0.022775401 0.083742765)
(0.027443238 0.034102048 0.051688001)
(0.051305 0.051304989 0.081524254)
(0.061422103 0.056275989 0.08812799)
(0.061897 0.058235319 0.090316503)
(0.058613456 0.059294061 0.091408652)
(0.052627738 0.059908374 0.092495617)
(0.042356144 0.060258162 0.094325009)
(0.029882557 0.059581906 0.098022997)
(-0.00065550106 0.056244048 0.10481604)
(0.0010717865 0.03839507 0.11544679)
(0.029355851 0.040642061 0.055765999)
(0.056276 0.061422089 0.088127987)
(0.067402139 0.067402126 0.095760006)
(0.067773235 0.06977388 0.098480983)
(0.063709462 0.07095987 0.099887772)
(0.056536115 0.071513934 0.10118729)
(0.044677443 0.071507726 0.10315586)
(0.030645088 0.07009688 0.10681191)
(-0.0016635401 0.064947724 0.11283356)
(0.00029465883 0.043318305 0.12030542)
(0.029912305 0.041095384 0.056929097)
(0.05823533 0.06189699 0.090316497)
(0.069773893 0.067773225 0.09848098)
(0.070025412 0.070025403 0.10149405)
(0.065480912 0.071055833 0.10306365)
(0.05765419 0.071429675 0.10443832)
(0.045026208 0.071160262 0.10638819)
(0.030340467 0.069502713 0.10985584)
(-0.0024501462 0.063978082 0.11531022)
(-3.7524378e-05 0.042558394 0.12148092)
(0.030251296 0.039326979 0.057435407)
(0.059294071 0.058613453 0.091408644)
(0.070959883 0.063709459 0.099887767)
(0.071055842 0.065480909 0.10306364)
(0.066166052 0.066166049 0.1047127)
(0.057923701 0.066293123 0.1061095)
(0.044849086 0.065863347 0.10801901)
(0.029823283 0.064288456 0.11133977)
(-0.0031335777 0.059296745 0.11644809)
(-0.00031586404 0.039815837 0.12195102)
(0.030451619 0.035929428 0.057989108)
(0.059908384 0.052627743 0.09249561)
(0.071513946 0.05653612 0.10118729)
(0.071429685 0.057654195 0.10443832)
(0.066293126 0.057923705 0.1061095)
(0.05780144 0.057801445 0.10750633)
(0.044479692 0.057290374 0.10939386)
(0.029273125 0.055998849 0.11263977)
(-0.003745041 0.05201981 0.11753619)
(-0.00051535325 0.035573525 0.12250603)
(0.030728016 0.029631284 0.059112116)
(0.060258172 0.042356155 0.094325004)
(0.071507739 0.044677453 0.10315586)
(0.071160272 0.045026219 0.10638819)
(0.06586335 0.044849096 0.10801901)
(0.05729037 0.044479702 0.10939386)
(0.043908514 0.043908524 0.11128315)
(0.028621378 0.042986003 0.11453264)
(-0.0044629076 0.040344929 0.11932296)
(-0.00085052644 0.028295342 0.12366871)
(0.030475356 0.021935207 0.061781333)
(0.059581917 0.02988257 0.098022995)
(0.070096892 0.0306451 0.10681191)
(0.069502723 0.03034048 0.10985585)
(0.064288459 0.029823296 0.11133978)
(0.055998845 0.029273137 0.11263978)
(0.042985993 0.02862139 0.11453265)
(0.027982152 0.027982164 0.11786775)
(-0.004949746 0.026416496 0.12273654)
(-0.00081984249 0.019374596 0.12633135)
(0.030534165 -0.00042260869 0.067864052)
(0.056244058 -0.0006554905 0.10481604)
(0.064947736 -0.0016635299 0.11283357)
(0.063978091 -0.0024501364 0.11531022)
(0.059296748 -0.0031335681 0.1164481)
(0.052019806 -0.0037450314 0.1175362)
(0.040344919 -0.0044628978 0.11932297)
(0.026416483 -0.0049497359 0.12273655)
(-0.0055564565 -0.0055564463 0.12812348)
(-0.0020102252 -0.0046391126 0.13164538)
(0.022775404 0.0029526867 0.083742765)
(0.038395079 0.0010717906 0.1154468)
(0.043318316 0.00029466263 0.12030543)
(0.042558402 -3.7520836e-05 0.12148093)
(0.03981584 -0.00031586062 0.12195103)
(0.035573521 -0.0005153498 0.12250604)
(0.028295332 -0.00085052283 0.12366871)
(0.019374585 -0.00081983866 0.12633136)
(-0.0046391222 -0.0020102213 0.13164539)
(-0.0013717569 -0.0013717532 0.13597827)
(0.009512141 0.0095121364 0.021145102)
(0.022392588 0.016376541 0.040130787)
(0.028275996 0.018188956 0.045351298)
(0.028600982 0.018776936 0.047191461)
(0.026404078 0.019138059 0.048097814)
(0.022298902 0.019346658 0.049113939)
(0.015024148 0.01963666 0.050939682)
(0.0066835533 0.019369077 0.055040747)
(-0.013633936 0.01935319 0.061848141)
(-0.0064943141 0.012229886 0.074574615)
(0.016376546 0.022392577 0.040130785)
(0.038288926 0.038288914 0.071889086)
(0.048379422 0.0436643 0.081313308)
(0.048807758 0.045899508 0.085025016)
(0.044676572 0.047114446 0.08702545)
(0.03722619 0.047805283 0.089019257)
(0.024965868 0.048161741 0.092037644)
(0.010990923 0.0473144 0.097728129)
(-0.017605264 0.043600874 0.10496158)
(-0.0097059752 0.02664659 0.10912865)
(0.018188961 0.028275982 0.045351293)
(0.043664312 0.048379408 0.081313305)
(0.055155254 0.05515524 0.092688458)
(0.055525881 0.057981981 0.097438799)
(0.050409994 0.059404605 0.10005642)
(0.04141979 0.060061553 0.10246285)
(0.027147423 0.060028022 0.10572447)
(0.011287141 0.058317998 0.11129855)
(-0.019175519 0.052436288 0.11706285)
(-0.010617873 0.031154546 0.11603318)
(0.01877694 0.028600972 0.047191454)
(0.04589952 0.048807747 0.08502501)
(0.057981996 0.05552587 0.097438796)
(0.058246092 0.058246081 0.10276971)
(0.052537477 0.059504771 0.10571307)
(0.04271792 0.059959854 0.10827038)
(0.027487053 0.059622837 0.11149172)
(0.010854386 0.057618221 0.11669976)
(-0.020092684 0.051294616 0.12138954)
(-0.010975828 0.030265446 0.11803281)
(0.019138063 0.026404076 0.048097806)
(0.047114458 0.044676569 0.087025443)
(0.059404619 0.050409991 0.10005642)
(0.059504782 0.052537474 0.10571307)
(0.053377067 0.053377064 0.10881838)
(0.043040422 0.053534678 0.11142287)
(0.027263812 0.053010386 0.11456496)
(0.010238533 0.051125073 0.11948906)
(-0.020858262 0.045510544 0.12351394)
(-0.011264668 0.026960848 0.11892049)
(0.019346662 0.022298908 0.049113931)
(0.047805295 0.037226196 0.08901925)
(0.060061567 0.041419795 0.10246284)
(0.059959865 0.042717925 0.10827038)
(0.053534681 0.043040427 0.11142287)
(0.042891137 0.042891142 0.11402753)
(0.026816308 0.04227498 0.1171229)
(0.0095877945 0.040767474 0.12189674)
(-0.021545029 0.036494448 0.12551061)
(-0.011472252 0.021864246 0.11993918)
(0.019636664 0.01502416 0.050939675)
(0.048161752 0.02496588 0.092037639)
(0.060028036 0.027147435 0.10572447)
(0.059622848 0.027487065 0.11149173)
(0.05301039 0.027263823 0.11456496)
(0.042274975 0.02681632 0.1171229)
(0.026137599 0.026137611 0.12021607)
(0.0088305768 0.025112007 0.12499004)
(-0.022341063 0.022573059 0.1284123)
(-0.011832413 0.013474505 0.12179)
(0.019369081 0.006683567 0.055040743)
(0.047314411 0.010990937 0.097728126)
(0.058318012 0.011287155 0.11129855)
(0.057618232 0.0108544 0.11669976)
(0.051125076 0.010238547 0.11948906)
(0.040767469 0.009587808 0.12189675)
(0.025111995 0.0088305905 0.12499004)
(0.0081702342 0.0081702481 0.12991742)
(-0.022799029 0.0070115123 0.13349652)
(-0.011792225 0.0039048473 0.1257427)
(0.019353195 -0.013633925 0.06184814)
(0.043600885 -0.017605253 0.10496158)
(0.052436302 -0.019175508 0.11706285)
(0.051294626 -0.020092673 0.12138954)
(0.045510547 -0.020858252 0.12351395)
(0.036494443 -0.021545018 0.12551062)
(0.022573048 -0.022341053 0.1284123)
(0.0070114985 -0.022799018 0.13349653)
(-0.022872155 -0.022872143 0.13807268)
(-0.012674034 -0.017831733 0.13088939)
(0.01222989 -0.0064943099 0.074574615)
(0.0266466 -0.0097059708 0.10912866)
(0.031154559 -0.010617869 0.11603318)
(0.030265455 -0.010975824 0.11803282)
(0.026960851 -0.011264665 0.1189205)
(0.021864242 -0.011472249 0.11993919)
(0.013474494 -0.011832409 0.12179001)
(0.0039048346 -0.011792221 0.1257427)
(-0.017831744 -0.012674029 0.13088939)
(-0.0091982204 -0.0091982164 0.12808399)
(0.0048744681 0.0048744632 0.014785133)
(0.014596335 0.009707795 0.031688604)
(0.019430822 0.011256665 0.037592882)
(0.019506923 0.011815656 0.040055285)
(0.016990567 0.012167913 0.041408569)
(0.012470177 0.012368538 0.042933223)
(0.0048452054 0.012652587 0.045427012)
(-0.0032787543 0.012397209 0.050613964)
(-0.020064758 0.012360773 0.057244653)
(-0.010291936 0.0063420871 0.065630458)
(0.0097078002 0.014596322 0.031688602)
(0.028039294 0.02803928 0.063195474)
(0.037132898 0.033251151 0.074899338)
(0.037295527 0.035550737 0.080178168)
(0.032513767 0.036819256 0.083229666)
(0.02410266 0.037532574 0.086240921)
(0.010886451 0.037876629 0.090410855)
(-0.0031120316 0.036963107 0.097586208)
(-0.027190184 0.033320279 0.10391409)
(-0.014242077 0.018554696 0.10050088)
(0.01125667 0.019430807 0.037592879)
(0.033251164 0.037132883 0.074899336)
(0.043969959 0.043969943 0.089587366)
(0.044102955 0.046989228 0.09651655)
(0.038178 0.048533123 0.10055977)
(0.027959701 0.049244914 0.10422299)
(0.01244725 0.049197039 0.10873684)
(-0.0035783006 0.047363717 0.11565321)
(-0.029351252 0.041404973 0.1196795)
(-0.015231448 0.022290742 0.1090534)
(0.011815661 0.019506912 0.04005528)
(0.03555075 0.037295516 0.080178164)
(0.046989243 0.044102943 0.096516548)
(0.047033337 0.047033326 0.10439183)
(0.040436155 0.048418165 0.10897055)
(0.029259091 0.048923691 0.1128808)
(0.012663265 0.048558015 0.11732284)
(-0.0041825237 0.046412274 0.12364583)
(-0.030370199 0.040005446 0.1259919)
(-0.015591206 0.021247296 0.11189743)
(0.012167917 0.016990564 0.041408563)
(0.036819269 0.032513764 0.083229661)
(0.048533139 0.038177997 0.10055977)
(0.048418177 0.040436151 0.10897055)
(0.041354457 0.041354453 0.11381956)
(0.029590125 0.041532556 0.11781032)
(0.01238666 0.040968972 0.12212318)
(-0.0048693269 0.03898133 0.12798934)
(-0.031166646 0.033437128 0.12928244)
(-0.015868926 0.017573845 0.11327887)
(0.012368542 0.012470182 0.042933217)
(0.037532587 0.024102666 0.086240915)
(0.049244929 0.027959707 0.10422298)
(0.048923703 0.029259097 0.1128808)
(0.04153256 0.029590131 0.11781032)
(0.029423655 0.029423661 0.12180151)
(0.011891506 0.028766224 0.12603489)
(-0.0055730213 0.027234969 0.13165524)
(-0.03187519 0.023293108 0.13229884)
(-0.01606858 0.011987089 0.11480794)
(0.012652592 0.0048452178 0.045427007)
(0.037876642 0.010886465 0.090410851)
(0.049197055 0.012447263 0.10873683)
(0.048558027 0.012663277 0.11732284)
(0.040968975 0.012386673 0.12212319)
(0.028766219 0.011891519 0.12603489)
(0.011174296 0.011174309 0.13025881)
(-0.0063624832 0.010208079 0.13587529)
(-0.032680417 0.0082792467 0.136242)
(-0.016425351 0.0031966642 0.11728425)
(0.012397214 -0.0032787394 0.050613961)
(0.03696312 -0.0031120159 0.097586206)
(0.047363732 -0.0035782852 0.11565321)
(0.046412285 -0.0041825087 0.12364583)
(0.038981334 -0.0048693122 0.12798934)
(0.027234963 -0.0055730065 0.13165524)
(0.010208066 -0.0063624681 0.13587529)
(-0.0069178061 -0.0069177908 0.14173634)
(-0.033034584 -0.0073032094 0.14239948)
(-0.016367246 -0.0060635744 0.12210639)
(0.012360777 -0.020064745 0.057244651)
(0.033320292 -0.027190171 0.10391409)
(0.041404988 -0.02935124 0.11967951)
(0.040005457 -0.030370187 0.12599191)
(0.033437132 -0.031166635 0.12928244)
(0.023293103 -0.031875178 0.13229885)
(0.0082792343 -0.032680405 0.136242)
(-0.0073032245 -0.033034572 0.14239948)
(-0.032430105 -0.032430093 0.14469486)
(-0.016890176 -0.023990144 0.12612038)
(0.0063420915 -0.010291932 0.065630458)
(0.018554707 -0.014242073 0.10050088)
(0.022290755 -0.015231444 0.10905341)
(0.021247306 -0.015591202 0.11189743)
(0.017573848 -0.015868923 0.11327887)
(0.011987084 -0.016068576 0.11480794)
(0.003196653 -0.016425347 0.11728425)
(-0.0060635882 -0.016367242 0.12210639)
(-0.023990156 -0.016890171 0.12612038)
(-0.011757545 -0.01175754 0.11656845)
(0.0024424995 0.0024424942 0.010780487)
(0.0093703339 0.0056847401 0.025607388)
(0.013062248 0.0069251656 0.031875297)
(0.012826696 0.0074207709 0.034873016)
(0.01008994 0.0077455157 0.036683406)
(0.0054002317 0.0079294417 0.038708624)
(-0.0020993379 0.0081980566 0.041761743)
(-0.0094503764 0.0079725455 0.047577996)
(-0.022344452 0.0079664218 0.053438217)
(-0.011111922 0.0031324074 0.057468143)
(0.0056847457 0.0093703204 0.025607387)
(0.020069282 0.020069268 0.055921465)
(0.0276476 0.02476116 0.069361342)
(0.027374141 0.026965929 0.07613049)
(0.022119852 0.028210315 0.080291768)
(0.013204683 0.028909662 0.084329918)
(-0.00011340529 0.02923909 0.089478409)
(-0.013079982 0.028357006 0.097444464)
(-0.031687514 0.025092003 0.10193612)
(-0.015310731 0.012952913 0.091282194)
(0.0069251709 0.013062232 0.031875295)
(0.024761174 0.027647583 0.069361341)
(0.034011631 0.034011614 0.086824616)
(0.03369785 0.036999054 0.095911918)
(0.027179952 0.038564653 0.10148572)
(0.01627697 0.039293973 0.10643406)
(0.00051813147 0.039253389 0.11200574)
(-0.014448078 0.037458967 0.11949327)
(-0.034385984 0.031915786 0.12077196)
(-0.016326845 0.015789096 0.10104776)
(0.0074207757 0.012826684 0.034873013)
(0.026965944 0.027374128 0.076130487)
(0.036999071 0.033697837 0.095911917)
(0.036605612 0.036605599 0.10636496)
(0.029361386 0.038021999 0.11271958)
(0.017414402 0.038552295 0.11802489)
(0.00050820982 0.038200663 0.12348148)
(-0.015262869 0.036105266 0.13010683)
(-0.035491658 0.030166032 0.12904134)
(-0.0166741 0.014561551 0.10468399)
(0.0077455204 0.010089936 0.036683402)
(0.028210329 0.022119848 0.080291765)
(0.03856467 0.027179948 0.10148571)
(0.038022012 0.029361382 0.11271958)
(0.030284532 0.030284528 0.11947372)
(0.017707789 0.030474224 0.12489927)
(0.00016473308 0.02992727 0.1301674)
(-0.016005687 0.028029809 0.1361355)
(-0.036288726 0.023082727 0.13358511)
(-0.016929643 0.010672661 0.10659234)
(0.0079294463 0.0054002377 0.038708621)
(0.028909676 0.013204689 0.084329915)
(0.039293989 0.016276976 0.10643406)
(0.038552307 0.017414408 0.11802489)
(0.030474228 0.017707795 0.12489927)
(0.017532193 0.017532199 0.13032567)
(-0.00035326685 0.016895255 0.13547546)
(-0.016725883 0.015513721 0.14108879)
(-0.036983272 0.012353839 0.13763121)
(-0.017112775 0.0048931718 0.1086241)
(0.0081980614 -0.0020993246 0.04176174)
(0.029239104 -0.00011339107 0.089478406)
(0.039253406 0.00051814549 0.11200574)
(0.038200676 0.00050822356 0.12348148)
(0.029927274 0.00016474667 0.1301674)
(0.016895249 -0.00035325325 0.13547546)
(-0.0010459657 -0.001045952 0.140607)
(-0.017486886 -0.0018136067 0.14621694)
(-0.037749575 -0.0028067208 0.14241533)
(-0.017449275 -0.0037674639 0.11159451)
(0.0079725505 -0.0094503603 0.047577994)
(0.02835702 -0.013079965 0.097444463)
(0.037458983 -0.014448061 0.11949327)
(0.036105278 -0.015262853 0.13010683)
(0.028029813 -0.016005671 0.13613551)
(0.015513715 -0.016725866 0.14108879)
(-0.0018136204 -0.01748687 0.14621694)
(-0.017839774 -0.017839758 0.15219243)
(-0.03795606 -0.017275137 0.14890519)
(-0.017371479 -0.012127384 0.11679482)
(0.007966427 -0.022344439 0.053438216)
(0.025092017 -0.031687501 0.10193612)
(0.031915802 -0.034385971 0.12077196)
(0.030166044 -0.035491645 0.12904134)
(0.023082731 -0.036288714 0.13358511)
(0.012353834 -0.03698326 0.13763121)
(-0.0028067342 -0.037749562 0.14241533)
(-0.017275154 -0.037956047 0.14890519)
(-0.036679644 -0.036679631 0.14803407)
(-0.017591715 -0.02591368 0.1191918)
(0.0031324122 -0.011111917 0.057468143)
(0.012952926 -0.015310726 0.091282195)
(0.015789111 -0.01632684 0.10104776)
(0.014561562 -0.016674096 0.10468399)
(0.010672665 -0.016929639 0.10659234)
(0.0048931668 -0.017112771 0.1086241)
(-0.0037674761 -0.017449271 0.11159452)
(-0.0121274 -0.017371474 0.11679483)
(-0.025913692 -0.01759171 0.1191918)
(-0.011806653 -0.011806648 0.10425392)
(0.0011631925 0.0011631869 0.0082983353)
(0.005838582 0.0032514012 0.02134378)
(0.0084455204 0.0041986267 0.027778902)
(0.0078833121 0.0046161905 0.031226422)
(0.0050175002 0.0049037625 0.033477103)
(0.00035794688 0.0050673388 0.03595589)
(-0.0066785632 0.0053169131 0.039420665)
(-0.01294711 0.0051333275 0.045426658)
(-0.022179808 0.0051855667 0.050145723)
(-0.010455406 0.0014311716 0.050192564)
(0.0032514072 0.0058385677 0.021343779)
(0.013933683 0.013933667 0.050178302)
(0.019789717 0.017917849 0.064903111)
(0.018977028 0.01991847 0.073029091)
(0.01341399 0.021083211 0.078289787)
(0.0043879984 0.02174556 0.083285113)
(-0.0083739927 0.022066712 0.089159439)
(-0.019643957 0.021294484 0.097222301)
(-0.032800147 0.018586032 0.099295527)
(-0.014555474 0.009050795 0.082234081)
(0.0041986323 0.0084455038 0.027778902)
(0.017917864 0.019789699 0.064903111)
(0.025338023 0.025338005 0.084629874)
(0.024429392 0.028117931 0.095755376)
(0.017514223 0.029624074 0.10287054)
(0.0064028743 0.030343278 0.10903453)
(-0.0088163853 0.030334615 0.1153766)
(-0.021919442 0.028713541 0.12266559)
(-0.035927908 0.023913107 0.12058353)
(-0.015556059 0.010992082 0.092818043)
(0.0046161957 0.0078832997 0.031226421)
(0.019918485 0.018977014 0.07302909)
(0.028117949 0.024429378 0.095755376)
(0.027122824 0.02712281 0.10869657)
(0.019446584 0.028488557 0.11686065)
(0.0072464143 0.02902309 0.12349801)
(-0.0091291306 0.028726861 0.12966822)
(-0.022968867 0.026842818 0.13579358)
(-0.037108334 0.021748412 0.13068003)
(-0.015883257 0.0095641502 0.097158571)
(0.0049037675 0.0050174964 0.033477101)
(0.021083225 0.013413986 0.078289786)
(0.029624092 0.017514219 0.10287054)
(0.028488571 0.019446579 0.11686065)
(0.020307971 0.020307966 0.12556826)
(0.007459353 0.020501694 0.13236964)
(-0.0095544562 0.020022934 0.13828443)
(-0.023760326 0.018376231 0.14353321)
(-0.037889619 0.014378447 0.13648284)
(-0.016112202 0.0055831997 0.099589789)
(0.0050673438 0.00035795311 0.035955888)
(0.021745575 0.004388005 0.083285111)
(0.030343295 0.0064028807 0.10903453)
(0.029023103 0.0072464205 0.12349801)
(0.020501698 0.0074593591 0.13236964)
(0.0072809339 0.00728094 0.13917243)
(-0.010075983 0.0067193241 0.1449263)
(-0.024470425 0.0056271221 0.14970504)
(-0.038547787 0.0035240303 0.14148938)
(-0.016275239 -0.00015511535 0.10207723)
(0.0053169182 -0.0066785492 0.039420663)
(0.022066726 -0.0083739777 0.089159437)
(0.030334632 -0.0088163705 0.1153766)
(0.028726875 -0.009129116 0.12966822)
(0.020022939 -0.0095544418 0.13828443)
(0.006719318 -0.010075969 0.1449263)
(-0.010691202 -0.010691188 0.15065434)
(-0.025156227 -0.011156481 0.15544015)
(-0.039243813 -0.011059911 0.14684654)
(-0.016582771 -0.0083156578 0.10538091)
(0.0051333329 -0.012947093 0.045426656)
(0.021294499 -0.019643939 0.097222299)
(0.028713558 -0.021919424 0.12266559)
(0.026842831 -0.02296885 0.13579358)
(0.018376236 -0.023760309 0.14353321)
(0.005627116 -0.024470407 0.14970505)
(-0.011156496 -0.02515621 0.15544015)
(-0.02524444 -0.025244423 0.16074731)
(-0.03928507 -0.023709103 0.15297034)
(-0.016490138 -0.015465647 0.1105211)
(0.0051855723 -0.022179794 0.050145722)
(0.018586046 -0.032800132 0.099295526)
(0.023913124 -0.035927894 0.12058353)
(0.021748425 -0.03710832 0.13068003)
(0.014378451 -0.037889605 0.13648284)
(0.0035240244 -0.038547773 0.14148938)
(-0.011059925 -0.039243799 0.14684654)
(-0.02370912 -0.039285056 0.15297034)
(-0.037434687 -0.037434672 0.14851492)
(-0.016492368 -0.025392957 0.11112501)
(0.0014311767 -0.010455401 0.050192563)
(0.0090508079 -0.014555468 0.082234081)
(0.010992097 -0.015556054 0.092818043)
(0.009564162 -0.015883252 0.097158573)
(0.0055832037 -0.016112198 0.099589791)
(-0.00015512066 -0.016275235 0.10207723)
(-0.0083156707 -0.016582767 0.10538091)
(-0.015465663 -0.016490133 0.1105211)
(-0.02539297 -0.016492363 0.11112501)
(-0.010731302 -0.010731297 0.09218423)
(0.0004853005 0.00048529462 0.0068365458)
(0.0034289138 0.0017716665 0.01847976)
(0.0050797241 0.0024666147 0.024978086)
(0.0042106629 0.00280425 0.028801148)
(0.0012987009 0.003051163 0.031455908)
(-0.0031759419 0.0031938791 0.034315071)
(-0.0095301726 0.0034237817 0.038028721)
(-0.014592616 0.0032883567 0.043852307)
(-0.02067015 0.0034069418 0.047227363)
(-0.0091649168 0.00056650369 0.043826354)
(0.0017716728 0.003428899 0.01847976)
(0.0092499045 0.0092498885 0.04590883)
(0.013382615 0.012461196 0.061580175)
(0.011994133 0.014192118 0.070906771)
(0.0062725296 0.015240955 0.077202008)
(-0.0025426743 0.015853304 0.083026354)
(-0.014281096 0.016175567 0.089336064)
(-0.023516202 0.015567673 0.096888056)
(-0.031775623 0.013491836 0.09624097)
(-0.012954451 0.0063120748 0.073786171)
(0.0024666207 0.0050797068 0.024978086)
(0.012461212 0.013382596 0.061580175)
(0.01793371 0.017933691 0.083134352)
(0.016353147 0.020382065 0.096121515)
(0.0092183664 0.021767163 0.10471114)
(-0.0017046986 0.022456982 0.11194631)
(-0.015808308 0.022503347 0.1187249)
(-0.026608514 0.021155178 0.12514069)
(-0.035199437 0.017279472 0.11940537)
(-0.013907634 0.0074378735 0.084863189)
(0.0028042555 0.0042106499 0.028801149)
(0.014192133 0.011994118 0.070906771)
(0.020382084 0.016353132 0.096121515)
(0.018689477 0.018689462 0.11138199)
(0.01077347 0.019938139 0.12129805)
(-0.0012476849 0.020461267 0.12912207)
(-0.016469371 0.02025628 0.13565752)
(-0.027897548 0.018705267 0.14058557)
(-0.036441052 0.014675483 0.13113773)
(-0.014211307 0.0058121206 0.089804362)
(0.0030511683 0.0012986969 0.031455908)
(0.01524097 0.0062725251 0.077202008)
(0.021767181 0.0092183617 0.10471114)
(0.019938153 0.010773466 0.12129805)
(0.011517934 0.011517929 0.13190962)
(-0.0011505781 0.011709542 0.13994285)
(-0.016989133 0.011342168 0.14615006)
(-0.028733707 0.010065858 0.14997231)
(-0.037198678 0.0072115969 0.13813733)
(-0.014413161 0.0018384247 0.09272457)
(0.0031938843 -0.0031759355 0.034315071)
(0.015853319 -0.0025426675 0.083026354)
(0.022457 -0.001704692 0.11194631)
(0.020461281 -0.0012476785 0.12912207)
(0.011709547 -0.0011505718 0.13994285)
(-0.0013271266 -0.0013271203 0.14797819)
(-0.017499865 -0.0017691136 0.15398074)
(-0.029415461 -0.0024737412 0.1572187)
(-0.037807959 -0.003398989 0.14397636)
(-0.014555627 -0.0036828499 0.095594284)
(0.003423787 -0.0095301581 0.03802872)
(0.016175582 -0.01428108 0.089336063)
(0.022503365 -0.015808293 0.1187249)
(0.020256294 -0.016469356 0.13565752)
(0.011342173 -0.016989118 0.14615006)
(-0.0017691199 -0.01749985 0.15398074)
(-0.017997223 -0.017997208 0.159954)
(-0.029993632 -0.018096107 0.16322444)
(-0.038415651 -0.016895307 0.14961356)