/*--------------------------------*- C++ -*----------------------------------*\
| =========                 |                                                 |
| \\      /  F ield         | OpenFOAM: The Open Source CFD Toolbox           |
|  \\    /   O peration     | Version:  dev                                   |
|   \\  /    A nd           | Web:      www.OpenFOAM.org                      |
|    \\/     M anipulation  |                                                 |
\*---------------------------------------------------------------------------*/
FoamFile
{
    version     2.0;
    format      ascii;
    class       volScalarField;
    location    "74.995";
    object      A;
}
// * * * * * * * * * * * * * * * * * * * * * * * * * * * * * * * * * * * * * //

dimensions      [0 0 0 0 1 0 0];

internalField   nonuniform List<scalar> 
10000
(
1.8566336e-25
1.8543704e-25
1.8531789e-25
1.8525414e-25
1.8522215e-25
1.8520844e-25
1.8520611e-25
1.852135e-25
1.8523427e-25
1.8527686e-25
1.8543704e-25
1.8521167e-25
1.8509284e-25
1.8502924e-25
1.8499735e-25
1.8498375e-25
1.8498163e-25
1.8498954e-25
1.8501167e-25
1.8505819e-25
1.8531789e-25
1.8509284e-25
1.8497421e-25
1.8491072e-25
1.8487893e-25
1.8486546e-25
1.848636e-25
1.8487201e-25
1.8489507e-25
1.8494294e-25
1.8525414e-25
1.8502924e-25
1.8491072e-25
1.8484733e-25
1.8481562e-25
1.8480227e-25
1.848006e-25
1.8480935e-25
1.8483291e-25
1.8488128e-25
1.8522215e-25
1.8499735e-25
1.8487893e-25
1.8481562e-25
1.8478399e-25
1.8477072e-25
1.8476919e-25
1.8477812e-25
1.8480193e-25
1.848505e-25
1.8520844e-25
1.8498375e-25
1.8486546e-25
1.8480227e-25
1.8477072e-25
1.8475753e-25
1.8475608e-25
1.8476512e-25
1.8478903e-25
1.8483769e-25
1.8520611e-25
1.8498163e-25
1.848636e-25
1.848006e-25
1.8476919e-25
1.8475608e-25
1.8475469e-25
1.8476378e-25
1.8478775e-25
1.8483644e-25
1.852135e-25
1.8498954e-25
1.8487201e-25
1.8480935e-25
1.8477812e-25
1.8476512e-25
1.8476378e-25
1.8477292e-25
1.8479693e-25
1.8484564e-25
1.8523427e-25
1.8501167e-25
1.8489507e-25
1.8483291e-25
1.8480193e-25
1.8478903e-25
1.8478775e-25
1.8479693e-25
1.8482096e-25
1.8486973e-25
1.8527686e-25
1.8505819e-25
1.8494294e-25
1.8488128e-25
1.848505e-25
1.8483769e-25
1.8483644e-25
1.8484564e-25
1.8486973e-25
1.8491863e-25
6.2486942e-25
6.2413665e-25
6.2374007e-25
6.2352742e-25
6.2342065e-25
6.2337486e-25
6.2336703e-25
6.2339157e-25
6.2346075e-25
6.2360781e-25
6.2413665e-25
6.2340685e-25
6.2301134e-25
6.2279917e-25
6.2269272e-25
6.2264729e-25
6.2264019e-25
6.2266647e-25
6.2274023e-25
6.2290058e-25
6.2374007e-25
6.2301134e-25
6.2261649e-25
6.2240472e-25
6.2229858e-25
6.222536e-25
6.2224734e-25
6.2227532e-25
6.223522e-25
6.2251707e-25
6.2352742e-25
6.2279917e-25
6.2240472e-25
6.2219323e-25
6.2208738e-25
6.2204278e-25
6.2203719e-25
6.220663e-25
6.2214485e-25
6.2231141e-25
6.2342065e-25
6.2269272e-25
6.2229858e-25
6.2208738e-25
6.2198178e-25
6.2193747e-25
6.2193231e-25
6.2196206e-25
6.2204143e-25
6.2220866e-25
6.2337486e-25
6.2264729e-25
6.222536e-25
6.2204278e-25
6.2193747e-25
6.2189342e-25
6.2188854e-25
6.2191863e-25
6.2199838e-25
6.2216588e-25
6.2336703e-25
6.2264019e-25
6.2224734e-25
6.2203719e-25
6.2193231e-25
6.2188854e-25
6.2188385e-25
6.2191414e-25
6.2199408e-25
6.221617e-25
6.2339157e-25
6.2266647e-25
6.2227532e-25
6.220663e-25
6.2196206e-25
6.2191863e-25
6.2191414e-25
6.2194457e-25
6.2202461e-25
6.2219233e-25
6.2346075e-25
6.2274023e-25
6.223522e-25
6.2214485e-25
6.2204143e-25
6.2199838e-25
6.2199408e-25
6.2202461e-25
6.2210478e-25
6.2227266e-25
6.2360781e-25
6.2290058e-25
6.2251707e-25
6.2231141e-25
6.2220866e-25
6.2216588e-25
6.221617e-25
6.2219233e-25
6.2227266e-25
6.2244103e-25
1.2982414e-24
1.2967687e-24
1.2959606e-24
1.2955259e-24
1.2953075e-24
1.2952136e-24
1.2951974e-24
1.2952472e-24
1.2953879e-24
1.2956963e-24
1.2967687e-24
1.295302e-24
1.2944959e-24
1.2940623e-24
1.2938444e-24
1.2937514e-24
1.2937367e-24
1.2937901e-24
1.2939402e-24
1.2942762e-24
1.2959606e-24
1.2944959e-24
1.2936912e-24
1.2932584e-24
1.2930412e-24
1.292949e-24
1.2929361e-24
1.292993e-24
1.2931496e-24
1.2934949e-24
1.2955259e-24
1.2940623e-24
1.2932584e-24
1.2928262e-24
1.2926095e-24
1.2925182e-24
1.2925066e-24
1.2925658e-24
1.2927259e-24
1.2930747e-24
1.2953075e-24
1.2938444e-24
1.2930412e-24
1.2926095e-24
1.2923934e-24
1.2923027e-24
1.292292e-24
1.2923525e-24
1.2925143e-24
1.2928645e-24
1.2952136e-24
1.2937514e-24
1.292949e-24
1.2925182e-24
1.2923027e-24
1.2922125e-24
1.2922023e-24
1.2922636e-24
1.2924261e-24
1.2927769e-24
1.2951974e-24
1.2937367e-24
1.2929361e-24
1.2925066e-24
1.292292e-24
1.2922023e-24
1.2921926e-24
1.2922543e-24
1.2924172e-24
1.2927682e-24
1.2952472e-24
1.2937901e-24
1.292993e-24
1.2925658e-24
1.2923525e-24
1.2922636e-24
1.2922543e-24
1.2923163e-24
1.2924794e-24
1.2928306e-24
1.2953879e-24
1.2939402e-24
1.2931496e-24
1.2927259e-24
1.2925143e-24
1.2924261e-24
1.2924172e-24
1.2924794e-24
1.2926428e-24
1.2929943e-24
1.2956963e-24
1.2942762e-24
1.2934949e-24
1.2930747e-24
1.2928645e-24
1.2927769e-24
1.2927682e-24
1.2928306e-24
1.2929943e-24
1.2933469e-24
2.4712312e-24
2.4685188e-24
2.4670176e-24
2.4662078e-24
2.4658001e-24
2.4656248e-24
2.4655942e-24
2.465686e-24
2.4659455e-24
2.4665197e-24
2.4685188e-24
2.465817e-24
2.4643198e-24
2.4635118e-24
2.4631053e-24
2.4629314e-24
2.4629036e-24
2.4630022e-24
2.4632797e-24
2.4639062e-24
2.4670176e-24
2.4643198e-24
2.4628249e-24
2.4620184e-24
2.4616131e-24
2.4614409e-24
2.4614165e-24
2.4615217e-24
2.4618114e-24
2.4624556e-24
2.4662078e-24
2.4635118e-24
2.4620184e-24
2.4612131e-24
2.4608088e-24
2.4606382e-24
2.4606163e-24
2.4607259e-24
2.4610222e-24
2.461673e-24
2.4658001e-24
2.4631053e-24
2.4616131e-24
2.4608088e-24
2.4604056e-24
2.4602361e-24
2.4602158e-24
2.460328e-24
2.4606274e-24
2.4612809e-24
2.4656248e-24
2.4629314e-24
2.4614409e-24
2.4606382e-24
2.4602361e-24
2.4600675e-24
2.4600484e-24
2.4601619e-24
2.4604628e-24
2.4611173e-24
2.4655942e-24
2.4629036e-24
2.4614165e-24
2.4606163e-24
2.4602158e-24
2.4600484e-24
2.46003e-24
2.4601443e-24
2.4604459e-24
2.4611009e-24
2.465686e-24
2.4630022e-24
2.4615217e-24
2.4607259e-24
2.460328e-24
2.4601619e-24
2.4601443e-24
2.4602591e-24
2.4605611e-24
2.4612165e-24
2.4659455e-24
2.4632797e-24
2.4618114e-24
2.4610222e-24
2.4606274e-24
2.4604628e-24
2.4604459e-24
2.4605611e-24
2.4608636e-24
2.4615196e-24
2.4665197e-24
2.4639062e-24
2.4624556e-24
2.461673e-24
2.4612809e-24
2.4611173e-24
2.4611009e-24
2.4612165e-24
2.4615196e-24
2.4621775e-24
4.6275441e-24
4.6226309e-24
4.6198954e-24
4.6184155e-24
4.6176691e-24
4.6173477e-24
4.6172908e-24
4.6174567e-24
4.6179247e-24
4.618959e-24
4.6226309e-24
4.6177368e-24
4.6150084e-24
4.6135318e-24
4.6127875e-24
4.6124686e-24
4.612417e-24
4.6125955e-24
4.613097e-24
4.6142288e-24
4.6198954e-24
4.6150084e-24
4.6122843e-24
4.6108104e-24
4.6100684e-24
4.6097527e-24
4.6097073e-24
4.6098981e-24
4.6104223e-24
4.611587e-24
4.6184155e-24
4.6135318e-24
4.6108104e-24
4.6093385e-24
4.6085985e-24
4.6082856e-24
4.6082449e-24
4.6084439e-24
4.6089803e-24
4.6101574e-24
4.6176691e-24
4.6127875e-24
4.6100684e-24
4.6085985e-24
4.6078602e-24
4.6075495e-24
4.6075119e-24
4.6077156e-24
4.6082579e-24
4.6094398e-24
4.6173477e-24
4.6124686e-24
4.6097527e-24
4.6082856e-24
4.6075495e-24
4.6072406e-24
4.607205e-24
4.6074112e-24
4.6079562e-24
4.6091401e-24
4.6172908e-24
4.612417e-24
4.6097073e-24
4.6082449e-24
4.6075119e-24
4.607205e-24
4.6071709e-24
4.6073785e-24
4.6079249e-24
4.6091097e-24
4.6174567e-24
4.6125955e-24
4.6098981e-24
4.6084439e-24
4.6077156e-24
4.6074112e-24
4.6073785e-24
4.607587e-24
4.6081342e-24
4.6093196e-24
4.6179247e-24
4.613097e-24
4.6104223e-24
4.6089803e-24
4.6082579e-24
4.6079562e-24
4.6079249e-24
4.6081342e-24
4.6086822e-24
4.6098687e-24
4.618959e-24
4.6142288e-24
4.611587e-24
4.6101574e-24
4.6094398e-24
4.6091401e-24
4.6091097e-24
4.6093196e-24
4.6098687e-24
4.6110589e-24
8.6895952e-24
8.6806741e-24
8.675683e-24
8.6729752e-24
8.671607e-24
8.6710169e-24
8.6709112e-24
8.6712108e-24
8.6720546e-24
8.6739086e-24
8.6806741e-24
8.6717876e-24
8.6668092e-24
8.6641072e-24
8.6627429e-24
8.6621576e-24
8.6620616e-24
8.6623849e-24
8.6632911e-24
8.6653271e-24
8.675683e-24
8.6668092e-24
8.6618387e-24
8.6591416e-24
8.6577814e-24
8.657202e-24
8.6571175e-24
8.6574636e-24
8.6584123e-24
8.6605098e-24
8.6729752e-24
8.6641072e-24
8.6591416e-24
8.6564483e-24
8.6550918e-24
8.6545175e-24
8.6544419e-24
8.6548033e-24
8.6557745e-24
8.657895e-24
8.671607e-24
8.6627429e-24
8.6577814e-24
8.6550918e-24
8.6537386e-24
8.6531683e-24
8.6530984e-24
8.6534685e-24
8.6544508e-24
8.6565804e-24
8.6710169e-24
8.6621576e-24
8.657202e-24
8.6545175e-24
8.6531683e-24
8.6526014e-24
8.6525352e-24
8.6529099e-24
8.6538973e-24
8.6560306e-24
8.6709112e-24
8.6620616e-24
8.6571175e-24
8.6544419e-24
8.6530984e-24
8.6525352e-24
8.6524719e-24
8.6528491e-24
8.653839e-24
8.655974e-24
8.6712108e-24
8.6623849e-24
8.6574636e-24
8.6548033e-24
8.6534685e-24
8.6529099e-24
8.6528491e-24
8.6532282e-24
8.6542196e-24
8.6563557e-24
8.6720546e-24
8.6632911e-24
8.6584123e-24
8.6557745e-24
8.6544508e-24
8.6538973e-24
8.653839e-24
8.6542196e-24
8.6552124e-24
8.6573505e-24
8.6739086e-24
8.6653271e-24
8.6605098e-24
8.657895e-24
8.6565804e-24
8.6560306e-24
8.655974e-24
8.6563557e-24
8.6573505e-24
8.659495e-24
1.6455066e-23
1.6438738e-23
1.6429562e-23
1.642457e-23
1.6422043e-23
1.6420952e-23
1.6420754e-23
1.6421299e-23
1.6422831e-23
1.6426171e-23
1.6438738e-23
1.6422472e-23
1.641332e-23
1.6408338e-23
1.6405819e-23
1.6404736e-23
1.6404556e-23
1.6405146e-23
1.6406795e-23
1.6410478e-23
1.6429562e-23
1.641332e-23
1.6404181e-23
1.6399209e-23
1.6396697e-23
1.6395625e-23
1.6395467e-23
1.63961e-23
1.6397829e-23
1.6401627e-23
1.642457e-23
1.6408338e-23
1.6399209e-23
1.6394244e-23
1.6391738e-23
1.6390677e-23
1.6390535e-23
1.6391196e-23
1.6392967e-23
1.6396809e-23
1.6422043e-23
1.6405819e-23
1.6396697e-23
1.6391738e-23
1.6389239e-23
1.6388185e-23
1.6388054e-23
1.6388732e-23
1.6390524e-23
1.6394383e-23
1.6420952e-23
1.6404736e-23
1.6395625e-23
1.6390677e-23
1.6388185e-23
1.6387137e-23
1.6387013e-23
1.6387699e-23
1.6389501e-23
1.6393367e-23
1.6420754e-23
1.6404556e-23
1.6395467e-23
1.6390535e-23
1.6388054e-23
1.6387013e-23
1.6386894e-23
1.6387585e-23
1.6389391e-23
1.6393261e-23
1.6421299e-23
1.6405146e-23
1.63961e-23
1.6391196e-23
1.6388732e-23
1.6387699e-23
1.6387585e-23
1.638828e-23
1.6390089e-23
1.639396e-23
1.6422831e-23
1.6406795e-23
1.6397829e-23
1.6392967e-23
1.6390524e-23
1.6389501e-23
1.6389391e-23
1.6390089e-23
1.63919e-23
1.6395775e-23
1.6426171e-23
1.6410478e-23
1.6401627e-23
1.6396809e-23
1.6394383e-23
1.6393367e-23
1.6393261e-23
1.639396e-23
1.6395775e-23
1.6399661e-23
3.1476105e-23
3.144593e-23
3.14289e-23
3.141961e-23
3.1414899e-23
3.1412861e-23
3.1412487e-23
3.141349e-23
3.1416296e-23
3.1422366e-23
3.144593e-23
3.141587e-23
3.1398882e-23
3.1389611e-23
3.1384914e-23
3.1382893e-23
3.1382553e-23
3.138364e-23
3.1386669e-23
3.1393391e-23
3.14289e-23
3.1398882e-23
3.1381921e-23
3.1372667e-23
3.1367984e-23
3.1365984e-23
3.1365685e-23
3.1366852e-23
3.1370033e-23
3.1376974e-23
3.141961e-23
3.1389611e-23
3.1372667e-23
3.1363426e-23
3.1358756e-23
3.1356774e-23
3.1356506e-23
3.1357728e-23
3.1360989e-23
3.1368012e-23
3.1414899e-23
3.1384914e-23
3.1367984e-23
3.1358756e-23
3.1354097e-23
3.1352129e-23
3.1351882e-23
3.1353135e-23
3.1356435e-23
3.1363491e-23
3.1412861e-23
3.1382893e-23
3.1365984e-23
3.1356774e-23
3.1352129e-23
3.1350173e-23
3.1349939e-23
3.1351208e-23
3.1354527e-23
3.1361596e-23
3.1412487e-23
3.1382553e-23
3.1365685e-23
3.1356506e-23
3.1351882e-23
3.1349939e-23
3.1349715e-23
3.1350994e-23
3.135432e-23
3.1361395e-23
3.141349e-23
3.138364e-23
3.1366852e-23
3.1357728e-23
3.1353135e-23
3.1351208e-23
3.1350994e-23
3.1352278e-23
3.135561e-23
3.1362689e-23
3.1416296e-23
3.1386669e-23
3.1370033e-23
3.1360989e-23
3.1356435e-23
3.1354527e-23
3.135432e-23
3.135561e-23
3.1358947e-23
3.1366033e-23
3.1422366e-23
3.1393391e-23
3.1376974e-23
3.1368012e-23
3.1363491e-23
3.1361596e-23
3.1361395e-23
3.1362689e-23
3.1366033e-23
3.1373139e-23
6.0851625e-23
6.079529e-23
6.0763362e-23
6.0745899e-23
6.0737029e-23
6.0733186e-23
6.0732472e-23
6.0734333e-23
6.0739528e-23
6.0750669e-23
6.079529e-23
6.0739167e-23
6.0707317e-23
6.068989e-23
6.0681044e-23
6.0677233e-23
6.0676586e-23
6.0678608e-23
6.068423e-23
6.0696622e-23
6.0763362e-23
6.0707317e-23
6.0675518e-23
6.0658122e-23
6.0649303e-23
6.0645532e-23
6.0644962e-23
6.0647139e-23
6.0653051e-23
6.0665864e-23
6.0745899e-23
6.068989e-23
6.0658122e-23
6.064075e-23
6.0631956e-23
6.0628219e-23
6.0627709e-23
6.0629991e-23
6.0636056e-23
6.0649027e-23
6.0737029e-23
6.0681044e-23
6.0649303e-23
6.0631956e-23
6.0623184e-23
6.0619474e-23
6.0619003e-23
6.0621343e-23
6.0627484e-23
6.0640517e-23
6.0733186e-23
6.0677233e-23
6.0645532e-23
6.0628219e-23
6.0619474e-23
6.0615786e-23
6.0615341e-23
6.0617713e-23
6.0623888e-23
6.0636946e-23
6.0732472e-23
6.0676586e-23
6.0644962e-23
6.0627709e-23
6.0619003e-23
6.0615341e-23
6.0614915e-23
6.0617304e-23
6.0623495e-23
6.0636565e-23
6.0734333e-23
6.0678608e-23
6.0647139e-23
6.0629991e-23
6.0621343e-23
6.0617713e-23
6.0617304e-23
6.0619705e-23
6.0625906e-23
6.0638984e-23
6.0739528e-23
6.068423e-23
6.0653051e-23
6.0636056e-23
6.0627484e-23
6.0623888e-23
6.0623495e-23
6.0625906e-23
6.0632117e-23
6.0645207e-23
6.0750669e-23
6.0696622e-23
6.0665864e-23
6.0649027e-23
6.0640517e-23
6.0636946e-23
6.0636565e-23
6.0638984e-23
6.0645207e-23
6.0658333e-23
1.1892024e-22
1.1881396e-22
1.1875349e-22
1.1872032e-22
1.1870345e-22
1.1869612e-22
1.1869475e-22
1.1869824e-22
1.1870796e-22
1.1872862e-22
1.1881396e-22
1.1870809e-22
1.1864776e-22
1.1861466e-22
1.1859783e-22
1.1859057e-22
1.1858933e-22
1.1859313e-22
1.1860367e-22
1.1862676e-22
1.1875349e-22
1.1864776e-22
1.1858752e-22
1.1855448e-22
1.185377e-22
1.1853052e-22
1.1852942e-22
1.1853353e-22
1.1854463e-22
1.1856854e-22
1.1872032e-22
1.1861466e-22
1.1855448e-22
1.1852149e-22
1.1850476e-22
1.1849764e-22
1.1849666e-22
1.1850097e-22
1.1851237e-22
1.1853658e-22
1.1870345e-22
1.1859783e-22
1.185377e-22
1.1850476e-22
1.1848807e-22
1.18481e-22
1.184801e-22
1.1848452e-22
1.1849607e-22
1.185204e-22
1.1869612e-22
1.1859057e-22
1.1853052e-22
1.1849764e-22
1.18481e-22
1.1847398e-22
1.1847313e-22
1.1847761e-22
1.1848922e-22
1.185136e-22
1.1869475e-22
1.1858933e-22
1.1852942e-22
1.1849666e-22
1.184801e-22
1.1847313e-22
1.1847231e-22
1.1847682e-22
1.1848847e-22
1.1851287e-22
1.1869824e-22
1.1859313e-22
1.1853353e-22
1.1850097e-22
1.1848452e-22
1.1847761e-22
1.1847682e-22
1.1848136e-22
1.1849302e-22
1.1851744e-22
1.1870796e-22
1.1860367e-22
1.1854463e-22
1.1851237e-22
1.1849607e-22
1.1848922e-22
1.1848847e-22
1.1849302e-22
1.1850471e-22
1.1852914e-22
1.1872862e-22
1.1862676e-22
1.1856854e-22
1.1853658e-22
1.185204e-22
1.185136e-22
1.1851287e-22
1.1851744e-22
1.1852914e-22
1.1855365e-22
2.3494774e-22
2.3474516e-22
2.3462941e-22
2.3456577e-22
2.3453333e-22
2.3451923e-22
2.3451656e-22
2.3452319e-22
2.3454155e-22
2.3458028e-22
2.3474516e-22
2.3454333e-22
2.3442786e-22
2.3436434e-22
2.3433199e-22
2.3431802e-22
2.343156e-22
2.3432283e-22
2.3434282e-22
2.3438629e-22
2.3462941e-22
2.3442786e-22
2.3431256e-22
2.3424915e-22
2.342169e-22
2.3420308e-22
2.3420095e-22
2.3420877e-22
2.3422986e-22
2.3427493e-22
2.3456577e-22
2.3436434e-22
2.3424915e-22
2.3418584e-22
2.3415368e-22
2.3413998e-22
2.3413808e-22
2.3414629e-22
2.3416796e-22
2.3421364e-22
2.3453333e-22
2.3433199e-22
2.342169e-22
2.3415368e-22
2.341216e-22
2.3410801e-22
2.3410626e-22
2.3411469e-22
2.3413664e-22
2.3418255e-22
2.3451923e-22
2.3431802e-22
2.3420308e-22
2.3413998e-22
2.3410801e-22
2.340945e-22
2.3409284e-22
2.341014e-22
2.3412348e-22
2.3416948e-22
2.3451656e-22
2.343156e-22
2.3420095e-22
2.3413808e-22
2.3410626e-22
2.3409284e-22
2.3409125e-22
2.3409987e-22
2.3412202e-22
2.3416807e-22
2.3452319e-22
2.3432283e-22
2.3420877e-22
2.3414629e-22
2.3411469e-22
2.341014e-22
2.3409987e-22
2.3410854e-22
2.3413072e-22
2.3417679e-22
2.3454155e-22
2.3434282e-22
2.3422986e-22
2.3416796e-22
2.3413664e-22
2.3412348e-22
2.3412202e-22
2.3413072e-22
2.3415293e-22
2.3419905e-22
2.3458028e-22
2.3438629e-22
2.3427493e-22
2.3421364e-22
2.3418255e-22
2.3416948e-22
2.3416807e-22
2.3417679e-22
2.3419905e-22
2.342453e-22
4.6929314e-22
4.689029e-22
4.6867903e-22
4.6855562e-22
4.6849262e-22
4.6846521e-22
4.6845997e-22
4.6847267e-22
4.6850777e-22
4.6858111e-22
4.689029e-22
4.685141e-22
4.6829076e-22
4.6816759e-22
4.6810476e-22
4.6807759e-22
4.6807284e-22
4.6808674e-22
4.6812505e-22
4.6820781e-22
4.6867903e-22
4.6829076e-22
4.6806776e-22
4.679448e-22
4.6788217e-22
4.6785529e-22
4.6785111e-22
4.6786618e-22
4.6790665e-22
4.6799258e-22
4.6855562e-22
4.6816759e-22
4.679448e-22
4.6782202e-22
4.6775957e-22
4.6773294e-22
4.6772922e-22
4.6774505e-22
4.6778668e-22
4.6787378e-22
4.6849262e-22
4.6810476e-22
4.6788217e-22
4.6775957e-22
4.6769727e-22
4.6767084e-22
4.6766741e-22
4.6768369e-22
4.6772587e-22
4.6781344e-22
4.6846521e-22
4.6807759e-22
4.6785529e-22
4.6773294e-22
4.6767084e-22
4.6764459e-22
4.6764134e-22
4.6765785e-22
4.6770029e-22
4.6778806e-22
4.6845997e-22
4.6807284e-22
4.6785111e-22
4.6772922e-22
4.6766741e-22
4.6764134e-22
4.6763823e-22
4.6765487e-22
4.6769744e-22
4.6778529e-22
4.6847267e-22
4.6808674e-22
4.6786618e-22
4.6774505e-22
4.6768369e-22
4.6765785e-22
4.6765487e-22
4.676716e-22
4.6771424e-22
4.6780214e-22
4.6850777e-22
4.6812505e-22
4.6790665e-22
4.6778668e-22
4.6772587e-22
4.6770029e-22
4.6769744e-22
4.6771424e-22
4.6775694e-22
4.6784492e-22
4.6858111e-22
4.6820781e-22
4.6799258e-22
4.6787378e-22
4.6781344e-22
4.6778806e-22
4.6778529e-22
4.6780214e-22
4.6784492e-22
4.6793314e-22
9.4775005e-22
9.4699037e-22
9.4655283e-22
9.4631101e-22
9.4618737e-22
9.4613351e-22
9.4612312e-22
9.4614773e-22
9.4621553e-22
9.4635594e-22
9.4699037e-22
9.4623346e-22
9.4579694e-22
9.455556e-22
9.4543229e-22
9.4537889e-22
9.4536948e-22
9.4539651e-22
9.4547071e-22
9.4562997e-22
9.4655283e-22
9.4579694e-22
9.4536108e-22
9.4512016e-22
9.4499723e-22
9.4494442e-22
9.4493616e-22
9.449655e-22
9.4504404e-22
9.4520963e-22
9.4631101e-22
9.455556e-22
9.4512016e-22
9.4487958e-22
9.44757e-22
9.447047e-22
9.4469734e-22
9.4472822e-22
9.4480906e-22
9.44977e-22
9.4618737e-22
9.4543229e-22
9.4499723e-22
9.44757e-22
9.4463475e-22
9.4458284e-22
9.4457606e-22
9.4460782e-22
9.4468977e-22
9.4485865e-22
9.4613351e-22
9.4537889e-22
9.4494442e-22
9.447047e-22
9.4458284e-22
9.4453127e-22
9.4452486e-22
9.4455709e-22
9.4463956e-22
9.4480882e-22
9.4612312e-22
9.4536948e-22
9.4493616e-22
9.4469734e-22
9.4457606e-22
9.4452486e-22
9.4451873e-22
9.4455122e-22
9.4463393e-22
9.4480336e-22
9.4614773e-22
9.4539651e-22
9.449655e-22
9.4472822e-22
9.4460782e-22
9.4455709e-22
9.4455122e-22
9.4458388e-22
9.4466673e-22
9.4483626e-22
9.4621553e-22
9.4547071e-22
9.4504404e-22
9.4480906e-22
9.4468977e-22
9.4463956e-22
9.4463393e-22
9.4466673e-22
9.4474972e-22
9.449194e-22
9.4635594e-22
9.4562997e-22
9.4520963e-22
9.44977e-22
9.4485865e-22
9.4480882e-22
9.4480336e-22
9.4483626e-22
9.449194e-22
9.4508954e-22
1.9352408e-21
1.9337462e-21
1.9328821e-21
1.9324033e-21
1.9321581e-21
1.9320511e-21
1.9320304e-21
1.9320786e-21
1.932211e-21
1.9324827e-21
1.9337462e-21
1.9322571e-21
1.9313949e-21
1.9309171e-21
1.9306725e-21
1.9305665e-21
1.9305477e-21
1.9306008e-21
1.9307461e-21
1.9310559e-21
1.9328821e-21
1.9313949e-21
1.930534e-21
1.930057e-21
1.9298132e-21
1.9297084e-21
1.9296919e-21
1.9297497e-21
1.9299038e-21
1.9302264e-21
1.9324033e-21
1.9309171e-21
1.930057e-21
1.9295807e-21
1.9293376e-21
1.9292338e-21
1.9292191e-21
1.92928e-21
1.9294387e-21
1.9297661e-21
1.9321581e-21
1.9306725e-21
1.9298132e-21
1.9293376e-21
1.9290952e-21
1.9289921e-21
1.9289786e-21
1.9290413e-21
1.9292022e-21
1.9295315e-21
1.9320511e-21
1.9305665e-21
1.9297084e-21
1.9292338e-21
1.9289921e-21
1.9288898e-21
1.928877e-21
1.9289406e-21
1.9291026e-21
1.9294327e-21
1.9320304e-21
1.9305477e-21
1.9296919e-21
1.9292191e-21
1.9289786e-21
1.928877e-21
1.9288648e-21
1.9289289e-21
1.9290914e-21
1.9294218e-21
1.9320786e-21
1.9306008e-21
1.9297497e-21
1.92928e-21
1.9290413e-21
1.9289406e-21
1.9289289e-21
1.9289934e-21
1.9291562e-21
1.9294868e-21
1.932211e-21
1.9307461e-21
1.9299038e-21
1.9294387e-21
1.9292022e-21
1.9291026e-21
1.9290914e-21
1.9291562e-21
1.9293192e-21
1.9296501e-21
1.9324827e-21
1.9310559e-21
1.9302264e-21
1.9297661e-21
1.9295315e-21
1.9294327e-21
1.9294218e-21
1.9294868e-21
1.9296501e-21
1.9299818e-21
3.9955692e-21
3.9925977e-21
3.990873e-21
3.9899151e-21
3.9894237e-21
3.9892091e-21
3.9891671e-21
3.9892627e-21
3.989524e-21
3.9900555e-21
3.9925977e-21
3.9896369e-21
3.9879161e-21
3.98696e-21
3.9864699e-21
3.9862573e-21
3.9862193e-21
3.9863248e-21
3.9866125e-21
3.9872219e-21
3.990873e-21
3.9879161e-21
3.9861979e-21
3.9852434e-21
3.9847549e-21
3.9845446e-21
3.9845114e-21
3.9846264e-21
3.984932e-21
3.9855674e-21
3.9899151e-21
3.98696e-21
3.9852434e-21
3.9842903e-21
3.9838032e-21
3.983595e-21
3.9835654e-21
3.9836868e-21
3.9840018e-21
3.984647e-21
3.9894237e-21
3.9864699e-21
3.9847549e-21
3.9838032e-21
3.9833174e-21
3.9831109e-21
3.9830837e-21
3.9832086e-21
3.9835283e-21
3.9841773e-21
3.9892091e-21
3.9862573e-21
3.9845446e-21
3.983595e-21
3.9831109e-21
3.9829057e-21
3.98288e-21
3.9830069e-21
3.9833286e-21
3.9839792e-21
3.9891671e-21
3.9862193e-21
3.9845114e-21
3.9835654e-21
3.9830837e-21
3.98288e-21
3.9828555e-21
3.9829834e-21
3.9833062e-21
3.9839574e-21
3.9892627e-21
3.9863248e-21
3.9846264e-21
3.9836868e-21
3.9832086e-21
3.9830069e-21
3.9829834e-21
3.9831121e-21
3.9834354e-21
3.9840871e-21
3.989524e-21
3.9866125e-21
3.984932e-21
3.9840018e-21
3.9835283e-21
3.9833286e-21
3.9833062e-21
3.9834354e-21
3.9837592e-21
3.9844115e-21
3.9900555e-21
3.9872219e-21
3.9855674e-21
3.984647e-21
3.9841773e-21
3.9839792e-21
3.9839574e-21
3.9840871e-21
3.9844115e-21
3.9850655e-21
8.3412571e-21
8.3352866e-21
8.331808e-21
8.3298712e-21
8.3288761e-21
8.3284413e-21
8.3283555e-21
8.328547e-21
8.3290684e-21
8.3301193e-21
8.3352866e-21
8.3293374e-21
8.3258665e-21
8.3239333e-21
8.322941e-21
8.32251e-21
8.3224326e-21
8.3226445e-21
8.3232205e-21
8.3244321e-21
8.331808e-21
8.3258665e-21
8.3224008e-21
8.320471e-21
8.3194818e-21
8.3190557e-21
8.318988e-21
8.3192195e-21
8.3198323e-21
8.3210978e-21
8.3298712e-21
8.3239333e-21
8.320471e-21
8.3185439e-21
8.3175576e-21
8.3171358e-21
8.3170756e-21
8.3173203e-21
8.3179525e-21
8.3192381e-21
8.3288761e-21
8.322941e-21
8.3194818e-21
8.3175576e-21
8.3165741e-21
8.3161555e-21
8.3161003e-21
8.3163523e-21
8.3169941e-21
8.3182876e-21
8.3284413e-21
8.32251e-21
8.3190557e-21
8.3171358e-21
8.3161555e-21
8.3157398e-21
8.3156877e-21
8.3159437e-21
8.3165898e-21
8.3178866e-21
8.3283555e-21
8.3224326e-21
8.318988e-21
8.3170756e-21
8.3161003e-21
8.3156877e-21
8.315638e-21
8.3158962e-21
8.3165443e-21
8.3178425e-21
8.328547e-21
8.3226445e-21
8.3192195e-21
8.3173203e-21
8.3163523e-21
8.3159437e-21
8.3158962e-21
8.3161558e-21
8.3168051e-21
8.3181041e-21
8.3290684e-21
8.3232205e-21
8.3198323e-21
8.3179525e-21
8.3169941e-21
8.3165898e-21
8.3165443e-21
8.3168051e-21
8.3174555e-21
8.3187557e-21
8.3301193e-21
8.3244321e-21
8.3210978e-21
8.3192381e-21
8.3182876e-21
8.3178866e-21
8.3178425e-21
8.3181041e-21
8.3187557e-21
8.3200592e-21
1.7607428e-20
1.7595305e-20
1.7588215e-20
1.7584258e-20
1.7582222e-20
1.7581331e-20
1.7581155e-20
1.7581543e-20
1.7582594e-20
1.7584695e-20
1.7595305e-20
1.7583224e-20
1.757615e-20
1.75722e-20
1.757017e-20
1.7569287e-20
1.7569128e-20
1.7569558e-20
1.7570724e-20
1.757316e-20
1.7588215e-20
1.757615e-20
1.7569086e-20
1.7565143e-20
1.7563119e-20
1.7562247e-20
1.7562108e-20
1.7562579e-20
1.7563821e-20
1.756637e-20
1.7584258e-20
1.75722e-20
1.7565143e-20
1.7561206e-20
1.7559188e-20
1.7558325e-20
1.7558201e-20
1.75587e-20
1.7559983e-20
1.7562573e-20
1.7582222e-20
1.757017e-20
1.7563119e-20
1.7559188e-20
1.7557176e-20
1.7556319e-20
1.7556206e-20
1.755672e-20
1.7558022e-20
1.7560629e-20
1.7581331e-20
1.7569287e-20
1.7562247e-20
1.7558325e-20
1.7556319e-20
1.7555468e-20
1.7555362e-20
1.7555884e-20
1.7557195e-20
1.7559809e-20
1.7581155e-20
1.7569128e-20
1.7562108e-20
1.7558201e-20
1.7556206e-20
1.7555362e-20
1.755526e-20
1.7555787e-20
1.7557103e-20
1.7559719e-20
1.7581543e-20
1.7569558e-20
1.7562579e-20
1.75587e-20
1.755672e-20
1.7555884e-20
1.7555787e-20
1.7556316e-20
1.7557635e-20
1.7560253e-20
1.7582594e-20
1.7570724e-20
1.7563821e-20
1.7559983e-20
1.7558022e-20
1.7557195e-20
1.7557103e-20
1.7557635e-20
1.7558955e-20
1.7561576e-20
1.7584695e-20
1.757316e-20
1.756637e-20
1.7562573e-20
1.7560629e-20
1.7559809e-20
1.7559719e-20
1.7560253e-20
1.7561576e-20
1.7564203e-20
3.7581115e-20
3.7556238e-20
3.7541636e-20
3.7533467e-20
3.7529258e-20
3.7527415e-20
3.7527047e-20
3.7527841e-20
3.7529987e-20
3.753423e-20
3.7556238e-20
3.7531448e-20
3.7516878e-20
3.7508724e-20
3.7504526e-20
3.7502699e-20
3.7502368e-20
3.7503252e-20
3.7505637e-20
3.7510588e-20
3.7541636e-20
3.7516878e-20
3.7502329e-20
3.7494189e-20
3.7490004e-20
3.7488199e-20
3.7487911e-20
3.7488881e-20
3.7491427e-20
3.7496615e-20
3.7533467e-20
3.7508724e-20
3.7494189e-20
3.7486061e-20
3.7481889e-20
3.7480102e-20
3.7479847e-20
3.7480874e-20
3.7483506e-20
3.7488782e-20
3.7529258e-20
3.7504526e-20
3.7490004e-20
3.7481889e-20
3.7477729e-20
3.7475956e-20
3.7475723e-20
3.7476782e-20
3.7479456e-20
3.7484767e-20
3.7527415e-20
3.7502699e-20
3.7488199e-20
3.7480102e-20
3.7475956e-20
3.7474197e-20
3.7473977e-20
3.7475053e-20
3.7477746e-20
3.7483071e-20
3.7527047e-20
3.7502368e-20
3.7487911e-20
3.7479847e-20
3.7475723e-20
3.7473977e-20
3.7473767e-20
3.7474853e-20
3.7477555e-20
3.7482886e-20
3.7527841e-20
3.7503252e-20
3.7488881e-20
3.7480874e-20
3.7476782e-20
3.7475053e-20
3.7474853e-20
3.7475946e-20
3.7478653e-20
3.7483988e-20
3.7529987e-20
3.7505637e-20
3.7491427e-20
3.7483506e-20
3.7479456e-20
3.7477746e-20
3.7477555e-20
3.7478653e-20
3.7481364e-20
3.7486703e-20
3.753423e-20
3.7510588e-20
3.7496615e-20
3.7488782e-20
3.7484767e-20
3.7483071e-20
3.7482886e-20
3.7483988e-20
3.7486703e-20
3.7492056e-20
8.110461e-20
8.1053024e-20
8.1022635e-20
8.1005595e-20
8.0996802e-20
8.0992948e-20
8.0992177e-20
8.0993822e-20
8.0998245e-20
8.1006911e-20
8.1053024e-20
8.1001618e-20
8.0971294e-20
8.0954285e-20
8.0945516e-20
8.0941697e-20
8.0941003e-20
8.0942839e-20
8.0947773e-20
8.0957947e-20
8.1022635e-20
8.0971294e-20
8.0941015e-20
8.0924035e-20
8.0915294e-20
8.0911521e-20
8.0910917e-20
8.0912936e-20
8.0918213e-20
8.0928892e-20
8.1005595e-20
8.0954285e-20
8.0924035e-20
8.090708e-20
8.0898366e-20
8.0894632e-20
8.0894098e-20
8.0896239e-20
8.0901698e-20
8.0912564e-20
8.0996802e-20
8.0945516e-20
8.0915294e-20
8.0898366e-20
8.0889676e-20
8.0885973e-20
8.0885485e-20
8.0887695e-20
8.0893242e-20
8.0904182e-20
8.0992948e-20
8.0941697e-20
8.0911521e-20
8.0894632e-20
8.0885973e-20
8.0882296e-20
8.0881837e-20
8.0884083e-20
8.0889671e-20
8.0900642e-20
8.0992177e-20
8.0941003e-20
8.0910917e-20
8.0894098e-20
8.0885485e-20
8.0881837e-20
8.0881401e-20
8.0883667e-20
8.0889274e-20
8.0900258e-20
8.0993822e-20
8.0942839e-20
8.0912936e-20
8.0896239e-20
8.0887695e-20
8.0884083e-20
8.0883667e-20
8.0885947e-20
8.0891565e-20
8.0902556e-20
8.0998245e-20
8.0947773e-20
8.0918213e-20
8.0901698e-20
8.0893242e-20
8.0889671e-20
8.0889274e-20
8.0891565e-20
8.0897191e-20
8.0908193e-20
8.1006911e-20
8.0957947e-20
8.0928892e-20
8.0912564e-20
8.0904182e-20
8.0900642e-20
8.0900258e-20
8.0902556e-20
8.0908193e-20
8.0919221e-20
1.7697468e-19
1.7686659e-19
1.7680269e-19
1.7676678e-19
1.7674822e-19
1.7674008e-19
1.7673845e-19
1.7674189e-19
1.7675111e-19
1.76769e-19
1.7686659e-19
1.7675888e-19
1.7669511e-19
1.7665926e-19
1.7664076e-19
1.7663269e-19
1.7663122e-19
1.7663508e-19
1.7664539e-19
1.7666653e-19
1.7680269e-19
1.7669511e-19
1.7663144e-19
1.7659565e-19
1.765772e-19
1.7656924e-19
1.7656796e-19
1.7657221e-19
1.7658326e-19
1.7660549e-19
1.7676678e-19
1.7665926e-19
1.7659565e-19
1.7655992e-19
1.7654153e-19
1.7653364e-19
1.7653252e-19
1.7653703e-19
1.7654847e-19
1.765711e-19
1.7674822e-19
1.7664076e-19
1.765772e-19
1.7654153e-19
1.7652319e-19
1.7651537e-19
1.7651434e-19
1.76519e-19
1.7653064e-19
1.7655343e-19
1.7674008e-19
1.7663269e-19
1.7656924e-19
1.7653364e-19
1.7651537e-19
1.7650761e-19
1.7650665e-19
1.7651138e-19
1.7652311e-19
1.7654596e-19
1.7673845e-19
1.7663122e-19
1.7656796e-19
1.7653252e-19
1.7651434e-19
1.7650665e-19
1.7650573e-19
1.7651051e-19
1.7652227e-19
1.7654515e-19
1.7674189e-19
1.7663508e-19
1.7657221e-19
1.7653703e-19
1.76519e-19
1.7651138e-19
1.7651051e-19
1.7651532e-19
1.7652711e-19
1.7655e-19
1.7675111e-19
1.7664539e-19
1.7658326e-19
1.7654847e-19
1.7653064e-19
1.7652311e-19
1.7652227e-19
1.7652711e-19
1.7653891e-19
1.7656183e-19
1.76769e-19
1.7666653e-19
1.7660549e-19
1.765711e-19
1.7655343e-19
1.7654596e-19
1.7654515e-19
1.7655e-19
1.7656183e-19
1.765848e-19
3.904348e-19
3.9020596e-19
3.900702e-19
3.8999373e-19
3.8995416e-19
3.8993679e-19
3.8993329e-19
3.8994058e-19
3.8996001e-19
3.8999734e-19
3.9020596e-19
3.8997791e-19
3.8984243e-19
3.897661e-19
3.8972664e-19
3.8970943e-19
3.8970629e-19
3.8971447e-19
3.8973628e-19
3.8978068e-19
3.900702e-19
3.8984243e-19
3.8970715e-19
3.8963095e-19
3.8959162e-19
3.8957462e-19
3.895719e-19
3.8958094e-19
3.8960435e-19
3.8965111e-19
3.8999373e-19
3.897661e-19
3.8963095e-19
3.8955486e-19
3.8951565e-19
3.8949883e-19
3.8949644e-19
3.8950605e-19
3.8953031e-19
3.8957795e-19
3.8995416e-19
3.8972664e-19
3.8959162e-19
3.8951565e-19
3.8947655e-19
3.8945988e-19
3.894577e-19
3.8946763e-19
3.894923e-19
3.8954029e-19
3.8993679e-19
3.8970943e-19
3.8957462e-19
3.8949883e-19
3.8945988e-19
3.8944333e-19
3.8944129e-19
3.8945138e-19
3.8947625e-19
3.8952438e-19
3.8993329e-19
3.8970629e-19
3.895719e-19
3.8949644e-19
3.894577e-19
3.8944129e-19
3.8943935e-19
3.8944954e-19
3.894745e-19
3.8952268e-19
3.8994058e-19
3.8971447e-19
3.8958094e-19
3.8950605e-19
3.8946763e-19
3.8945138e-19
3.8944954e-19
3.8945979e-19
3.894848e-19
3.8953302e-19
3.8996001e-19
3.8973628e-19
3.8960435e-19
3.8953031e-19
3.894923e-19
3.8947625e-19
3.894745e-19
3.894848e-19
3.8950985e-19
3.8955811e-19
3.8999734e-19
3.8978068e-19
3.8965111e-19
3.8957795e-19
3.8954029e-19
3.8952438e-19
3.8952268e-19
3.8953302e-19