/*--------------------------------*- C++ -*----------------------------------*\
| =========                 |                                                 |
| \\      /  F ield         | OpenFOAM: The Open Source CFD Toolbox           |
|  \\    /   O peration     | Version:  dev                                   |
|   \\  /    A nd           | Web:      www.OpenFOAM.org                      |
|    \\/     M anipulation  |                                                 |
\*---------------------------------------------------------------------------*/
FoamFile
{
    version     2.0;
    format      ascii;
    class       volScalarField;
    location    "74.995";
    object      A_0;
}
// * * * * * * * * * * * * * * * * * * * * * * * * * * * * * * * * * * * * * //

dimensions      [0 0 0 0 1 0 0];

internalField   nonuniform List<scalar> 
10000
(
1.8089021e-25
1.8066948e-25
1.805533e-25
1.8049116e-25
1.8046e-25
1.8044665e-25
1.8044438e-25
1.8045158e-25
1.8047182e-25
1.8051334e-25
1.8066948e-25
1.8044968e-25
1.8033381e-25
1.8027182e-25
1.8024075e-25
1.802275e-25
1.8022545e-25
1.8023315e-25
1.8025472e-25
1.8030007e-25
1.805533e-25
1.8033381e-25
1.8021814e-25
1.8015626e-25
1.8012528e-25
1.8011217e-25
1.8011036e-25
1.8011856e-25
1.8014103e-25
1.8018769e-25
1.8049116e-25
1.8027182e-25
1.8015626e-25
1.8009446e-25
1.8006357e-25
1.8005057e-25
1.8004895e-25
1.8005748e-25
1.8008044e-25
1.8012759e-25
1.8046e-25
1.8024075e-25
1.8012528e-25
1.8006357e-25
1.8003275e-25
1.8001983e-25
1.8001834e-25
1.8002705e-25
1.8005025e-25
1.800976e-25
1.8044665e-25
1.802275e-25
1.8011217e-25
1.8005057e-25
1.8001983e-25
1.8000699e-25
1.8000558e-25
1.8001439e-25
1.800377e-25
1.8008512e-25
1.8044438e-25
1.8022545e-25
1.8011036e-25
1.8004895e-25
1.8001834e-25
1.8000558e-25
1.8000423e-25
1.8001309e-25
1.8003645e-25
1.8008392e-25
1.8045158e-25
1.8023315e-25
1.8011856e-25
1.8005748e-25
1.8002705e-25
1.8001439e-25
1.8001309e-25
1.80022e-25
1.8004539e-25
1.8009288e-25
1.8047182e-25
1.8025472e-25
1.8014103e-25
1.8008044e-25
1.8005025e-25
1.800377e-25
1.8003645e-25
1.8004539e-25
1.8006882e-25
1.8011636e-25
1.8051334e-25
1.8030007e-25
1.8018769e-25
1.8012759e-25
1.800976e-25
1.8008512e-25
1.8008392e-25
1.8009288e-25
1.8011636e-25
1.8016403e-25
6.0886436e-25
6.0814961e-25
6.0776289e-25
6.0755559e-25
6.0745156e-25
6.0740696e-25
6.0739934e-25
6.0742327e-25
6.0749069e-25
6.0763405e-25
6.0814961e-25
6.0743777e-25
6.0705209e-25
6.0684526e-25
6.0674154e-25
6.0669729e-25
6.0669039e-25
6.0671601e-25
6.067879e-25
6.0694422e-25
6.0776289e-25
6.0705209e-25
6.0666705e-25
6.064606e-25
6.0635719e-25
6.0631338e-25
6.063073e-25
6.0633457e-25
6.0640951e-25
6.0657024e-25
6.0755559e-25
6.0684526e-25
6.064606e-25
6.0625445e-25
6.061513e-25
6.0610787e-25
6.0610243e-25
6.0613081e-25
6.0620738e-25
6.0636975e-25
6.0745156e-25
6.0674154e-25
6.0635719e-25
6.061513e-25
6.060484e-25
6.0600526e-25
6.0600024e-25
6.0602925e-25
6.0610661e-25
6.0626963e-25
6.0740696e-25
6.0669729e-25
6.0631338e-25
6.0610787e-25
6.0600526e-25
6.0596235e-25
6.0595761e-25
6.0598695e-25
6.0606468e-25
6.0622797e-25
6.0739934e-25
6.0669039e-25
6.063073e-25
6.0610243e-25
6.0600024e-25
6.0595761e-25
6.0595307e-25
6.0598259e-25
6.060605e-25
6.0622392e-25
6.0742327e-25
6.0671601e-25
6.0633457e-25
6.0613081e-25
6.0602925e-25
6.0598695e-25
6.0598259e-25
6.0601225e-25
6.0609027e-25
6.0625377e-25
6.0749069e-25
6.067879e-25
6.0640951e-25
6.0620738e-25
6.0610661e-25
6.0606468e-25
6.060605e-25
6.0609027e-25
6.061684e-25
6.0633207e-25
6.0763405e-25
6.0694422e-25
6.0657024e-25
6.0636975e-25
6.0626963e-25
6.0622797e-25
6.0622392e-25
6.0625377e-25
6.0633207e-25
6.064962e-25
1.2652162e-24
1.2637796e-24
1.2629913e-24
1.2625676e-24
1.2623547e-24
1.2622633e-24
1.2622475e-24
1.2622961e-24
1.2624332e-24
1.2627339e-24
1.2637796e-24
1.2623486e-24
1.2615625e-24
1.2611397e-24
1.2609274e-24
1.2608367e-24
1.2608224e-24
1.2608745e-24
1.2610209e-24
1.2613484e-24
1.2629913e-24
1.2615625e-24
1.2607776e-24
1.2603556e-24
1.2601439e-24
1.2600542e-24
1.2600416e-24
1.2600971e-24
1.2602497e-24
1.2605864e-24
1.2625676e-24
1.2611397e-24
1.2603556e-24
1.2599342e-24
1.2597231e-24
1.2596341e-24
1.2596228e-24
1.2596806e-24
1.2598366e-24
1.2601767e-24
1.2623547e-24
1.2609274e-24
1.2601439e-24
1.2597231e-24
1.2595125e-24
1.2594241e-24
1.2594137e-24
1.2594727e-24
1.2596304e-24
1.2599719e-24
1.2622633e-24
1.2608367e-24
1.2600542e-24
1.2596341e-24
1.2594241e-24
1.2593362e-24
1.2593264e-24
1.2593861e-24
1.2595445e-24
1.2598865e-24
1.2622475e-24
1.2608224e-24
1.2600416e-24
1.2596228e-24
1.2594137e-24
1.2593264e-24
1.259317e-24
1.2593771e-24
1.2595359e-24
1.2598781e-24
1.2622961e-24
1.2608745e-24
1.2600971e-24
1.2596806e-24
1.2594727e-24
1.2593861e-24
1.2593771e-24
1.2594375e-24
1.2595965e-24
1.2599389e-24
1.2624332e-24
1.2610209e-24
1.2602497e-24
1.2598366e-24
1.2596304e-24
1.2595445e-24
1.2595359e-24
1.2595965e-24
1.2597558e-24
1.2600985e-24
1.2627339e-24
1.2613484e-24
1.2605864e-24
1.2601767e-24
1.2599719e-24
1.2598865e-24
1.2598781e-24
1.2599389e-24
1.2600985e-24
1.2604423e-24
2.4089303e-24
2.4062835e-24
2.404819e-24
2.4040293e-24
2.4036319e-24
2.4034611e-24
2.4034313e-24
2.4035208e-24
2.4037738e-24
2.4043338e-24
2.4062835e-24
2.4036471e-24
2.4021865e-24
2.4013985e-24
2.4010022e-24
2.4008328e-24
2.4008058e-24
2.400902e-24
2.4011725e-24
2.4017835e-24
2.404819e-24
2.4021865e-24
2.4007282e-24
2.3999417e-24
2.3995466e-24
2.3993788e-24
2.399355e-24
2.3994577e-24
2.3997401e-24
2.4003684e-24
2.4040293e-24
2.4013985e-24
2.3999417e-24
2.3991563e-24
2.3987622e-24
2.3985959e-24
2.3985747e-24
2.3986816e-24
2.3989705e-24
2.3996052e-24
2.4036319e-24
2.4010022e-24
2.3995466e-24
2.3987622e-24
2.3983691e-24
2.398204e-24
2.3981843e-24
2.3982937e-24
2.3985857e-24
2.3992229e-24
2.4034611e-24
2.4008328e-24
2.3993788e-24
2.3985959e-24
2.398204e-24
2.3980397e-24
2.3980212e-24
2.3981319e-24
2.3984252e-24
2.3990636e-24
2.4034313e-24
2.4008058e-24
2.399355e-24
2.3985747e-24
2.3981843e-24
2.3980212e-24
2.3980033e-24
2.3981148e-24
2.3984089e-24
2.3990477e-24
2.4035208e-24
2.400902e-24
2.3994577e-24
2.3986816e-24
2.3982937e-24
2.3981319e-24
2.3981148e-24
2.3982267e-24
2.3985212e-24
2.3991604e-24
2.4037738e-24
2.4011725e-24
2.3997401e-24
2.3989705e-24
2.3985857e-24
2.3984252e-24
2.3984089e-24
2.3985212e-24
2.3988162e-24
2.3994559e-24
2.4043338e-24
2.4017835e-24
2.4003684e-24
2.3996052e-24
2.3992229e-24
2.3990636e-24
2.3990477e-24
2.3991604e-24
2.3994559e-24
2.4000976e-24
4.512074e-24
4.5072783e-24
4.504609e-24
4.5031654e-24
4.5024377e-24
4.5021244e-24
4.5020691e-24
4.5022309e-24
4.5026873e-24
4.5036962e-24
4.5072783e-24
4.5025014e-24
4.499839e-24
4.4983986e-24
4.4976729e-24
4.4973621e-24
4.497312e-24
4.4974861e-24
4.4979752e-24
4.4990792e-24
4.504609e-24
4.499839e-24
4.4971808e-24
4.495743e-24
4.4950195e-24
4.4947119e-24
4.4946677e-24
4.4948538e-24
4.4953652e-24
4.4965014e-24
4.5031654e-24
4.4983986e-24
4.495743e-24
4.4943073e-24
4.4935857e-24
4.4932808e-24
4.4932413e-24
4.4934354e-24
4.4939585e-24
4.4951067e-24
4.5024377e-24
4.4976729e-24
4.4950195e-24
4.4935857e-24
4.4928659e-24
4.492563e-24
4.4925265e-24
4.4927252e-24
4.4932541e-24
4.4944071e-24
4.5021244e-24
4.4973621e-24
4.4947119e-24
4.4932808e-24
4.492563e-24
4.492262e-24
4.4922274e-24
4.4924285e-24
4.4929601e-24
4.494115e-24
4.5020691e-24
4.497312e-24
4.4946677e-24
4.4932413e-24
4.4925265e-24
4.4922274e-24
4.4921943e-24
4.4923968e-24
4.4929297e-24
4.4940855e-24
4.5022309e-24
4.4974861e-24
4.4948538e-24
4.4934354e-24
4.4927252e-24
4.4924285e-24
4.4923968e-24
4.4926001e-24
4.4931338e-24
4.4942902e-24
4.5026873e-24
4.4979752e-24
4.4953652e-24
4.4939585e-24
4.4932541e-24
4.4929601e-24
4.4929297e-24
4.4931338e-24
4.4936683e-24
4.4948258e-24
4.5036962e-24
4.4990792e-24
4.4965014e-24
4.4951067e-24
4.4944071e-24
4.494115e-24
4.4940855e-24
4.4942902e-24
4.4948258e-24
4.4959868e-24
8.4751419e-24
8.4664319e-24
8.4615601e-24
8.458918e-24
8.4575836e-24
8.4570084e-24
8.4569055e-24
8.4571979e-24
8.4580211e-24
8.45983e-24
8.4664319e-24
8.4577557e-24
8.4528963e-24
8.4502598e-24
8.4489292e-24
8.4483587e-24
8.4482653e-24
8.4485807e-24
8.4494649e-24
8.4514515e-24
8.4615601e-24
8.4528963e-24
8.4480446e-24
8.445413e-24
8.4440864e-24
8.4435216e-24
8.4434394e-24
8.4437771e-24
8.4447026e-24
8.4467493e-24
8.458918e-24
8.4502598e-24
8.445413e-24
8.442785e-24
8.441462e-24
8.4409022e-24
8.4408287e-24
8.4411813e-24
8.4421289e-24
8.444198e-24
8.4575836e-24
8.4489292e-24
8.4440864e-24
8.441462e-24
8.4401422e-24
8.4395863e-24
8.4395184e-24
8.4398795e-24
8.4408378e-24
8.4429158e-24
8.4570084e-24
8.4483587e-24
8.4435216e-24
8.4409022e-24
8.4395863e-24
8.4390336e-24
8.4389694e-24
8.439335e-24
8.4402983e-24
8.4423799e-24
8.4569055e-24
8.4482653e-24
8.4434394e-24
8.4408287e-24
8.4395184e-24
8.4389694e-24
8.4389078e-24
8.4392759e-24
8.4402416e-24
8.4423248e-24
8.4571979e-24
8.4485807e-24
8.4437771e-24
8.4411813e-24
8.4398795e-24
8.439335e-24
8.4392759e-24
8.4396457e-24
8.4406129e-24
8.4426973e-24
8.4580211e-24
8.4494649e-24
8.4447026e-24
8.4421289e-24
8.4408378e-24
8.4402983e-24
8.4402416e-24
8.4406129e-24
8.4415815e-24
8.4436678e-24
8.45983e-24
8.4514515e-24
8.4467493e-24
8.444198e-24
8.4429158e-24
8.4423799e-24
8.4423248e-24
8.4426973e-24
8.4436678e-24
8.4457603e-24
1.6053614e-23
1.6037667e-23
1.6028708e-23
1.6023836e-23
1.6021371e-23
1.6020307e-23
1.6020114e-23
1.6020646e-23
1.6022141e-23
1.6025401e-23
1.6037667e-23
1.6021782e-23
1.6012846e-23
1.6007984e-23
1.6005526e-23
1.600447e-23
1.6004295e-23
1.6004871e-23
1.600648e-23
1.6010075e-23
1.6028708e-23
1.6012846e-23
1.6003923e-23
1.599907e-23
1.5996619e-23
1.5995575e-23
1.5995421e-23
1.5996038e-23
1.5997725e-23
1.6001433e-23
1.6023836e-23
1.6007984e-23
1.599907e-23
1.5994224e-23
1.599178e-23
1.5990744e-23
1.5990607e-23
1.5991252e-23
1.5992981e-23
1.599673e-23
1.6021371e-23
1.6005526e-23
1.5996619e-23
1.599178e-23
1.5989342e-23
1.5988314e-23
1.5988186e-23
1.5988848e-23
1.5990596e-23
1.5994363e-23
1.6020307e-23
1.600447e-23
1.5995575e-23
1.5990744e-23
1.5988314e-23
1.5987292e-23
1.5987171e-23
1.5987841e-23
1.5989599e-23
1.5993372e-23
1.6020114e-23
1.6004295e-23
1.5995421e-23
1.5990607e-23
1.5988186e-23
1.5987171e-23
1.5987056e-23
1.598773e-23
1.5989493e-23
1.5993269e-23
1.6020646e-23
1.6004871e-23
1.5996038e-23
1.5991252e-23
1.5988848e-23
1.5987841e-23
1.598773e-23
1.5988408e-23
1.5990173e-23
1.5993952e-23
1.6022141e-23
1.600648e-23
1.5997725e-23
1.5992981e-23
1.5990596e-23
1.5989599e-23
1.5989493e-23
1.5990173e-23
1.5991941e-23
1.5995723e-23
1.6025401e-23
1.6010075e-23
1.6001433e-23
1.599673e-23
1.5994363e-23
1.5993372e-23
1.5993269e-23
1.5993952e-23
1.5995723e-23
1.5999516e-23
3.0717269e-23
3.0687791e-23
3.0671158e-23
3.0662089e-23
3.0657492e-23
3.0655504e-23
3.065514e-23
3.0656118e-23
3.0658858e-23
3.0664784e-23
3.0687791e-23
3.0658425e-23
3.0641834e-23
3.0632783e-23
3.0628199e-23
3.0626227e-23
3.0625897e-23
3.0626957e-23
3.0629915e-23
3.0636477e-23
3.0671158e-23
3.0641834e-23
3.0625268e-23
3.0616234e-23
3.0611664e-23
3.0609713e-23
3.0609422e-23
3.0610562e-23
3.0613666e-23
3.0620444e-23
3.0662089e-23
3.0632783e-23
3.0616234e-23
3.0607212e-23
3.0602654e-23
3.0600721e-23
3.0600461e-23
3.0601654e-23
3.0604837e-23
3.0611694e-23
3.0657492e-23
3.0628199e-23
3.0611664e-23
3.0602654e-23
3.0598108e-23
3.0596188e-23
3.0595948e-23
3.0597171e-23
3.0600392e-23
3.0607281e-23
3.0655504e-23
3.0626227e-23
3.0609713e-23
3.0600721e-23
3.0596188e-23
3.059428e-23
3.0594053e-23
3.0595292e-23
3.0598531e-23
3.0605433e-23
3.065514e-23
3.0625897e-23
3.0609422e-23
3.0600461e-23
3.0595948e-23
3.0594053e-23
3.0593835e-23
3.0595083e-23
3.0598331e-23
3.0605238e-23
3.0656118e-23
3.0626957e-23
3.0610562e-23
3.0601654e-23
3.0597171e-23
3.0595292e-23
3.0595083e-23
3.0596337e-23
3.059959e-23
3.0606501e-23
3.0658858e-23
3.0629915e-23
3.0613666e-23
3.0604837e-23
3.0600392e-23
3.0598531e-23
3.0598331e-23
3.059959e-23
3.0602847e-23
3.0609765e-23
3.0664784e-23
3.0636477e-23
3.0620444e-23
3.0611694e-23
3.0607281e-23
3.0605433e-23
3.0605238e-23
3.0606501e-23
3.0609765e-23
3.0616703e-23
5.9402464e-23
5.9347412e-23
5.9316221e-23
5.9299166e-23
5.9290507e-23
5.9286758e-23
5.9286063e-23
5.928788e-23
5.9292952e-23
5.9303832e-23
5.9347412e-23
5.9292568e-23
5.9261453e-23
5.9244433e-23
5.9235798e-23
5.923208e-23
5.923145e-23
5.9233425e-23
5.9238914e-23
5.9251016e-23
5.9316221e-23
5.9261453e-23
5.9230386e-23
5.9213397e-23
5.9204788e-23
5.9201109e-23
5.9200554e-23
5.9202681e-23
5.9208453e-23
5.9220967e-23
5.9299166e-23
5.9244433e-23
5.9213397e-23
5.9196432e-23
5.9187847e-23
5.9184201e-23
5.9183705e-23
5.9185933e-23
5.9191856e-23
5.9204524e-23
5.9290507e-23
5.9235798e-23
5.9204788e-23
5.9187847e-23
5.9179284e-23
5.9175664e-23
5.9175206e-23
5.9177492e-23
5.9183488e-23
5.9196216e-23
5.9286758e-23
5.923208e-23
5.9201109e-23
5.9184201e-23
5.9175664e-23
5.9172067e-23
5.9171633e-23
5.917395e-23
5.9179979e-23
5.9192733e-23
5.9286063e-23
5.923145e-23
5.9200554e-23
5.9183705e-23
5.9175206e-23
5.9171633e-23
5.9171219e-23
5.9173552e-23
5.9179598e-23
5.9192362e-23
5.928788e-23
5.9233425e-23
5.9202681e-23
5.9185933e-23
5.9177492e-23
5.917395e-23
5.9173552e-23
5.9175896e-23
5.9181952e-23
5.9194724e-23
5.9292952e-23
5.9238914e-23
5.9208453e-23
5.9191856e-23
5.9183488e-23
5.9179979e-23
5.9179598e-23
5.9181952e-23
5.9188017e-23
5.92008e-23
5.9303832e-23
5.9251016e-23
5.9220967e-23
5.9204524e-23
5.9196216e-23
5.9192733e-23
5.9192362e-23
5.9194724e-23
5.92008e-23
5.921362e-23
1.1612367e-22
1.1601979e-22
1.1596069e-22
1.1592829e-22
1.1591181e-22
1.1590466e-22
1.1590332e-22
1.1590673e-22
1.1591622e-22
1.1593641e-22
1.1601979e-22
1.1591629e-22
1.1585733e-22
1.15825e-22
1.1580857e-22
1.1580148e-22
1.1580027e-22
1.1580398e-22
1.1581428e-22
1.1583684e-22
1.1596069e-22
1.1585733e-22
1.1579847e-22
1.1576619e-22
1.1574981e-22
1.157428e-22
1.1574173e-22
1.1574574e-22
1.1575659e-22
1.1577994e-22
1.1592829e-22
1.15825e-22
1.1576619e-22
1.1573396e-22
1.1571762e-22
1.1571068e-22
1.1570972e-22
1.1571393e-22
1.1572507e-22
1.1574872e-22
1.1591181e-22
1.1580857e-22
1.1574981e-22
1.1571762e-22
1.1570133e-22
1.1569443e-22
1.1569355e-22
1.1569787e-22
1.1570915e-22
1.1573292e-22
1.1590466e-22
1.1580148e-22
1.157428e-22
1.1571068e-22
1.1569443e-22
1.1568758e-22
1.1568675e-22
1.1569112e-22
1.1570247e-22
1.1572628e-22
1.1590332e-22
1.1580027e-22
1.1574173e-22
1.1570972e-22
1.1569355e-22
1.1568675e-22
1.1568595e-22
1.1569036e-22
1.1570173e-22
1.1572557e-22
1.1590673e-22
1.1580398e-22
1.1574574e-22
1.1571393e-22
1.1569787e-22
1.1569112e-22
1.1569036e-22
1.1569479e-22
1.1570618e-22
1.1573004e-22
1.1591622e-22
1.1581428e-22
1.1575659e-22
1.1572507e-22
1.1570915e-22
1.1570247e-22
1.1570173e-22
1.1570618e-22
1.157176e-22
1.1574147e-22
1.1593641e-22
1.1583684e-22
1.1577994e-22
1.1574872e-22
1.1573292e-22
1.1572628e-22
1.1572557e-22
1.1573004e-22
1.1574147e-22
1.1576541e-22
2.2949381e-22
2.2929572e-22
2.2918257e-22
2.2912037e-22
2.2908869e-22
2.2907493e-22
2.2907233e-22
2.290788e-22
2.2909675e-22
2.2913459e-22
2.2929572e-22
2.2909837e-22
2.2898549e-22
2.2892342e-22
2.2889182e-22
2.2887818e-22
2.2887582e-22
2.2888289e-22
2.2890242e-22
2.289449e-22
2.2918257e-22
2.2898549e-22
2.2887278e-22
2.2881082e-22
2.2877932e-22
2.2876582e-22
2.2876375e-22
2.2877139e-22
2.2879199e-22
2.2883604e-22
2.2912037e-22
2.2892342e-22
2.2881082e-22
2.2874894e-22
2.2871753e-22
2.2870416e-22
2.2870231e-22
2.2871034e-22
2.2873151e-22
2.2877614e-22
2.2908869e-22
2.2889182e-22
2.2877932e-22
2.2871753e-22
2.286862e-22
2.2867293e-22
2.2867122e-22
2.2867947e-22
2.2870091e-22
2.2874578e-22
2.2907493e-22
2.2887818e-22
2.2876582e-22
2.2870416e-22
2.2867293e-22
2.2865974e-22
2.2865813e-22
2.2866649e-22
2.2868806e-22
2.2873302e-22
2.2907233e-22
2.2887582e-22
2.2876375e-22
2.2870231e-22
2.2867122e-22
2.2865813e-22
2.2865658e-22
2.28665e-22
2.2868664e-22
2.2873164e-22
2.290788e-22
2.2888289e-22
2.2877139e-22
2.2871034e-22
2.2867947e-22
2.2866649e-22
2.28665e-22
2.2867347e-22
2.2869514e-22
2.2874017e-22
2.2909675e-22
2.2890242e-22
2.2879199e-22
2.2873151e-22
2.2870091e-22
2.2868806e-22
2.2868664e-22
2.2869514e-22
2.2871685e-22
2.2876192e-22
2.2913459e-22
2.289449e-22
2.2883604e-22
2.2877614e-22
2.2874578e-22
2.2873302e-22
2.2873164e-22
2.2874017e-22
2.2876192e-22
2.2880711e-22
4.5854358e-22
4.5816188e-22
4.5794296e-22
4.5782232e-22
4.5776076e-22
4.57734e-22
4.5772889e-22
4.577413e-22
4.577756e-22
4.578473e-22
4.5816188e-22
4.5778158e-22
4.5756318e-22
4.5744278e-22
4.5738139e-22
4.5735485e-22
4.5735022e-22
4.5736381e-22
4.5740125e-22
4.5748215e-22
4.5794296e-22
4.5756318e-22
4.5734511e-22
4.5722492e-22
4.5716372e-22
4.5713747e-22
4.5713341e-22
4.5714813e-22
4.5718769e-22
4.5727169e-22
4.5782232e-22
4.5744278e-22
4.5722492e-22
4.571049e-22
4.5704388e-22
4.5701788e-22
4.5701425e-22
4.5702973e-22
4.5707041e-22
4.5715557e-22
4.5776076e-22
4.5738139e-22
4.5716372e-22
4.5704388e-22
4.5698301e-22
4.569572e-22
4.5695386e-22
4.5696977e-22
4.57011e-22
4.5709661e-22
4.57734e-22
4.5735485e-22
4.5713747e-22
4.5701788e-22
4.569572e-22
4.5693156e-22
4.569284e-22
4.5694454e-22
4.5698602e-22
4.5707181e-22
4.5772889e-22
4.5735022e-22
4.5713341e-22
4.5701425e-22
4.5695386e-22
4.569284e-22
4.5692537e-22
4.5694164e-22
4.5698324e-22
4.5706912e-22
4.577413e-22
4.5736381e-22
4.5714813e-22
4.5702973e-22
4.5696977e-22
4.5694454e-22
4.5694164e-22
4.5695799e-22
4.5699967e-22
4.5708559e-22
4.577756e-22
4.5740125e-22
4.5718769e-22
4.5707041e-22
4.57011e-22
4.5698602e-22
4.5698324e-22
4.5699967e-22
4.570414e-22
4.5712741e-22
4.578473e-22
4.5748215e-22
4.5727169e-22
4.5715557e-22
4.5709661e-22
4.5707181e-22
4.5706912e-22
4.5708559e-22
4.5712741e-22
4.5721365e-22
9.2633681e-22
9.2559351e-22
9.2516552e-22
9.2492907e-22
9.2480821e-22
9.247556e-22
9.2474547e-22
9.2476954e-22
9.2483582e-22
9.2497311e-22
9.2559351e-22
9.2485292e-22
9.2442592e-22
9.2418993e-22
9.2406941e-22
9.2401725e-22
9.2400808e-22
9.240345e-22
9.2410706e-22
9.2426278e-22
9.2516552e-22
9.2442592e-22
9.2399957e-22
9.2376399e-22
9.2364384e-22
9.2359226e-22
9.2358421e-22
9.236129e-22
9.2368969e-22
9.2385161e-22
9.2492907e-22
9.2418993e-22
9.2376399e-22
9.2352875e-22
9.2340894e-22
9.2335785e-22
9.2335068e-22
9.2338088e-22
9.2345991e-22
9.2362414e-22
9.2480821e-22
9.2406941e-22
9.2364384e-22
9.2340894e-22
9.2328946e-22
9.2323875e-22
9.2323214e-22
9.232632e-22
9.2334333e-22
9.2350846e-22
9.247556e-22
9.2401725e-22
9.2359226e-22
9.2335785e-22
9.2323875e-22
9.2318837e-22
9.2318213e-22
9.2321364e-22
9.2329427e-22
9.2345978e-22
9.2474547e-22
9.2400808e-22
9.2358421e-22
9.2335068e-22
9.2323214e-22
9.2318213e-22
9.2317616e-22
9.2320792e-22
9.2328879e-22
9.2345447e-22
9.2476954e-22
9.240345e-22
9.236129e-22
9.2338088e-22
9.232632e-22
9.2321364e-22
9.2320792e-22
9.2323986e-22
9.2332087e-22
9.2348664e-22
9.2483582e-22
9.2410706e-22
9.2368969e-22
9.2345991e-22
9.2334333e-22
9.2329427e-22
9.2328879e-22
9.2332087e-22
9.23402e-22
9.2356792e-22
9.2497311e-22
9.2426278e-22
9.2385161e-22
9.2362414e-22
9.2350846e-22
9.2345978e-22
9.2345447e-22
9.2348664e-22
9.2356792e-22
9.237343e-22
1.8921293e-21
1.8906665e-21
1.8898209e-21
1.8893526e-21
1.8891128e-21
1.8890084e-21
1.8889881e-21
1.8890353e-21
1.8891647e-21
1.8894305e-21
1.8906665e-21
1.889209e-21
1.8883653e-21
1.8878979e-21
1.8876588e-21
1.8875552e-21
1.8875369e-21
1.8875888e-21
1.887731e-21
1.888034e-21
1.8898209e-21
1.8883653e-21
1.887523e-21
1.8870564e-21
1.886818e-21
1.8867156e-21
1.8866995e-21
1.886756e-21
1.8869067e-21
1.8872223e-21
1.8893526e-21
1.8878979e-21
1.8870564e-21
1.8865904e-21
1.8863528e-21
1.8862513e-21
1.886237e-21
1.8862966e-21
1.8864518e-21
1.886772e-21
1.8891128e-21
1.8876588e-21
1.886818e-21
1.8863528e-21
1.8861158e-21
1.8860151e-21
1.8860019e-21
1.8860632e-21
1.8862206e-21
1.8865427e-21
1.8890084e-21
1.8875552e-21
1.8867156e-21
1.8862513e-21
1.8860151e-21
1.8859151e-21
1.8859026e-21
1.8859648e-21
1.8861233e-21
1.8864461e-21
1.8889881e-21
1.8875369e-21
1.8866995e-21
1.886237e-21
1.8860019e-21
1.8859026e-21
1.8858907e-21
1.8859535e-21
1.8861124e-21
1.8864355e-21
1.8890353e-21
1.8875888e-21
1.886756e-21
1.8862966e-21
1.8860632e-21
1.8859648e-21
1.8859535e-21
1.8860165e-21
1.8861757e-21
1.8864991e-21
1.8891647e-21
1.887731e-21
1.8869067e-21
1.8864518e-21
1.8862206e-21
1.8861233e-21
1.8861124e-21
1.8861757e-21
1.8863352e-21
1.8866588e-21
1.8894305e-21
1.888034e-21
1.8872223e-21
1.886772e-21
1.8865427e-21
1.8864461e-21
1.8864355e-21
1.8864991e-21
1.8866588e-21
1.8869833e-21
3.9078434e-21
3.9049341e-21
3.9032459e-21
3.9023085e-21
3.9018279e-21
3.9016182e-21
3.9015772e-21
3.9016708e-21
3.9019264e-21
3.9024464e-21
3.9049341e-21
3.9020352e-21
3.9003508e-21
3.8994153e-21
3.898936e-21
3.8987281e-21
3.8986911e-21
3.8987943e-21
3.8990758e-21
3.899672e-21
3.9032459e-21
3.9003508e-21
3.898669e-21
3.897735e-21
3.8972573e-21
3.8970517e-21
3.8970193e-21
3.8971318e-21
3.8974308e-21
3.8980526e-21
3.9023085e-21
3.8994153e-21
3.897735e-21
3.8968025e-21
3.8963261e-21
3.8961226e-21
3.8960937e-21
3.8962125e-21
3.8965207e-21
3.897152e-21
3.9018279e-21
3.898936e-21
3.8972573e-21
3.8963261e-21
3.895851e-21
3.895649e-21
3.8956225e-21
3.8957448e-21
3.8960575e-21
3.8966926e-21
3.9016182e-21
3.8987281e-21
3.8970517e-21
3.8961226e-21
3.895649e-21
3.8954485e-21
3.8954234e-21
3.8955476e-21
3.8958624e-21
3.896499e-21
3.9015772e-21
3.8986911e-21
3.8970193e-21
3.8960937e-21
3.8956225e-21
3.8954234e-21
3.8953995e-21
3.8955247e-21
3.8958405e-21
3.8964778e-21
3.9016708e-21
3.8987943e-21
3.8971318e-21
3.8962125e-21
3.8957448e-21
3.8955476e-21
3.8955247e-21
3.8956506e-21
3.8959669e-21
3.8966046e-21
3.9019264e-21
3.8990758e-21
3.8974308e-21
3.8965207e-21
3.8960575e-21
3.8958624e-21
3.8958405e-21
3.8959669e-21
3.8962838e-21
3.896922e-21
3.9024464e-21
3.899672e-21
3.8980526e-21
3.897152e-21
3.8966926e-21
3.896499e-21
3.8964778e-21
3.8966046e-21
3.896922e-21
3.897562e-21
8.1608366e-21
8.154989e-21
8.1515829e-21
8.1496872e-21
8.1487137e-21
8.1482885e-21
8.1482048e-21
8.1483922e-21
8.1489024e-21
8.149931e-21
8.154989e-21
8.1491622e-21
8.1457638e-21
8.1438716e-21
8.1429007e-21
8.1424793e-21
8.1424037e-21
8.1426112e-21
8.1431749e-21
8.1443608e-21
8.1515829e-21
8.1457638e-21
8.1423703e-21
8.1404814e-21
8.1395137e-21
8.139097e-21
8.1390309e-21
8.1392576e-21
8.1398573e-21
8.1410961e-21
8.1496872e-21
8.1438716e-21
8.1404814e-21
8.1385953e-21
8.1376303e-21
8.1372178e-21
8.1371592e-21
8.1373986e-21
8.1380174e-21
8.1392758e-21
8.1487137e-21
8.1429007e-21
8.1395137e-21
8.1376303e-21
8.136668e-21
8.1362588e-21
8.1362049e-21
8.1364516e-21
8.1370797e-21
8.1383458e-21
8.1482885e-21
8.1424793e-21
8.139097e-21
8.1372178e-21
8.1362588e-21
8.1358523e-21
8.1358015e-21
8.136052e-21
8.1366844e-21
8.1379537e-21
8.1482048e-21
8.1424037e-21
8.1390309e-21
8.1371592e-21
8.1362049e-21
8.1358015e-21
8.135753e-21
8.1360057e-21
8.13664e-21
8.1379107e-21
8.1483922e-21
8.1426112e-21
8.1392576e-21
8.1373986e-21
8.1364516e-21
8.136052e-21
8.1360057e-21
8.1362598e-21
8.1368953e-21
8.1381668e-21
8.1489024e-21
8.1431749e-21
8.1398573e-21
8.1380174e-21
8.1370797e-21
8.1366844e-21
8.13664e-21
8.1368953e-21
8.1375318e-21
8.1388044e-21
8.149931e-21
8.1443608e-21
8.1410961e-21
8.1392758e-21
8.1383458e-21
8.1379537e-21
8.1379107e-21
8.1381668e-21
8.1388044e-21
8.1400804e-21
1.72324e-20
1.7220523e-20
1.7213578e-20
1.7209704e-20
1.7207711e-20
1.720684e-20
1.7206667e-20
1.7207047e-20
1.7208077e-20
1.7210133e-20
1.7220523e-20
1.7208687e-20
1.7201757e-20
1.719789e-20
1.7195903e-20
1.719504e-20
1.7194884e-20
1.7195306e-20
1.7196447e-20
1.7198832e-20
1.7213578e-20
1.7201757e-20
1.7194839e-20
1.7190978e-20
1.7188997e-20
1.7188144e-20
1.7188008e-20
1.718847e-20
1.7189686e-20
1.7192181e-20
1.7209704e-20
1.719789e-20
1.7190978e-20
1.7187123e-20
1.7185148e-20
1.7184303e-20
1.7184183e-20
1.7184671e-20
1.7185927e-20
1.7188463e-20
1.7207711e-20
1.7195903e-20
1.7188997e-20
1.7185148e-20
1.7183179e-20
1.7182341e-20
1.718223e-20
1.7182734e-20
1.7184009e-20
1.7186561e-20
1.720684e-20
1.719504e-20
1.7188144e-20
1.7184303e-20
1.7182341e-20
1.7181508e-20
1.7181404e-20
1.7181916e-20
1.71832e-20
1.7185759e-20
1.7206667e-20
1.7194884e-20
1.7188008e-20
1.7184183e-20
1.718223e-20
1.7181404e-20
1.7181305e-20
1.7181821e-20
1.7183109e-20
1.7185671e-20
1.7207047e-20
1.7195306e-20
1.718847e-20
1.7184671e-20
1.7182734e-20
1.7181916e-20
1.7181821e-20
1.718234e-20
1.718363e-20
1.7186194e-20
1.7208077e-20
1.7196447e-20
1.7189686e-20
1.7185927e-20
1.7184009e-20
1.71832e-20
1.7183109e-20
1.718363e-20
1.7184923e-20
1.7187489e-20
1.7210133e-20
1.7198832e-20
1.7192181e-20
1.7188463e-20
1.7186561e-20
1.7185759e-20
1.7185671e-20
1.7186194e-20
1.7187489e-20
1.7190061e-20
3.6793252e-20
3.676887e-20
3.6754563e-20
3.6746562e-20
3.6742441e-20
3.6740637e-20
3.6740278e-20
3.6741056e-20
3.6743157e-20
3.6747313e-20
3.676887e-20
3.6744574e-20
3.6730298e-20
3.6722311e-20
3.6718201e-20
3.6716414e-20
3.6716091e-20
3.6716957e-20
3.6719293e-20
3.6724142e-20
3.6754563e-20
3.6730298e-20
3.6716042e-20
3.670807e-20
3.6703973e-20
3.6702206e-20
3.6701925e-20
3.6702875e-20
3.6705369e-20
3.6710451e-20
3.6746562e-20
3.6722311e-20
3.670807e-20
3.6700109e-20
3.6696024e-20
3.6694276e-20
3.6694027e-20
3.6695033e-20
3.6697611e-20
3.6702779e-20
3.6742441e-20
3.6718201e-20
3.6703973e-20
3.6696024e-20
3.6691951e-20
3.6690217e-20
3.6689989e-20
3.6691027e-20
3.6693645e-20
3.6698847e-20
3.6740637e-20
3.6716414e-20
3.6702206e-20
3.6694276e-20
3.6690217e-20
3.6688495e-20
3.6688281e-20
3.6689335e-20
3.6691972e-20
3.6697188e-20
3.6740278e-20
3.6716091e-20
3.6701925e-20
3.6694027e-20
3.6689989e-20
3.6688281e-20
3.6688076e-20
3.668914e-20
3.6691786e-20
3.6697008e-20
3.6741056e-20
3.6716957e-20
3.6702875e-20
3.6695033e-20
3.6691027e-20
3.6689335e-20
3.668914e-20
3.6690211e-20
3.6692861e-20
3.6698087e-20
3.6743157e-20
3.6719293e-20
3.6705369e-20
3.6697611e-20
3.6693645e-20
3.6691972e-20
3.6691786e-20
3.6692861e-20
3.6695516e-20
3.6700746e-20
3.6747313e-20
3.6724142e-20
3.6710451e-20
3.6702779e-20
3.6698847e-20
3.6697188e-20
3.6697008e-20
3.6698087e-20
3.6700746e-20
3.670599e-20
7.9431853e-20
7.9381277e-20
7.9351491e-20
7.9334796e-20
7.9326185e-20
7.9322412e-20
7.9321659e-20
7.932327e-20
7.9327603e-20
7.9336094e-20
7.9381277e-20
7.9330877e-20
7.9301155e-20
7.928449e-20
7.9275902e-20
7.9272164e-20
7.9271486e-20
7.9273285e-20
7.9278118e-20
7.9288087e-20
7.9351491e-20
7.9301155e-20
7.9271477e-20
7.925484e-20
7.924628e-20
7.9242586e-20
7.9241997e-20
7.9243975e-20
7.9249145e-20
7.9259609e-20
7.9334796e-20
7.928449e-20
7.925484e-20
7.9238228e-20
7.9229693e-20
7.9226038e-20
7.9225518e-20
7.9227615e-20
7.9232963e-20
7.9243611e-20
7.9326185e-20
7.9275902e-20
7.924628e-20
7.9229693e-20
7.9221183e-20
7.9217558e-20
7.9217082e-20
7.9219247e-20
7.9224682e-20
7.9235402e-20
7.9322412e-20
7.9272164e-20
7.9242586e-20
7.9226038e-20
7.9217558e-20
7.9213959e-20
7.9213512e-20
7.9215713e-20
7.9221187e-20
7.9231937e-20
7.9321659e-20
7.9271486e-20
7.9241997e-20
7.9225518e-20
7.9217082e-20
7.9213512e-20
7.9213086e-20
7.9215306e-20
7.9220799e-20
7.9231562e-20
7.932327e-20
7.9273285e-20
7.9243975e-20
7.9227615e-20
7.9219247e-20
7.9215713e-20
7.9215306e-20
7.921754e-20
7.9223044e-20
7.9233814e-20
7.9327603e-20
7.9278118e-20
7.9249145e-20
7.9232963e-20
7.9224682e-20
7.9221187e-20
7.9220799e-20
7.9223044e-20
7.9228556e-20
7.9239336e-20
7.9336094e-20
7.9288087e-20
7.9259609e-20
7.9243611e-20
7.9235402e-20
7.9231937e-20
7.9231562e-20
7.9233814e-20
7.9239336e-20
7.9250142e-20
1.7338556e-19
1.7327955e-19
1.7321689e-19
1.7318169e-19
1.7316351e-19
1.7315554e-19
1.7315394e-19
1.7315732e-19
1.7316635e-19
1.7318389e-19
1.7327955e-19
1.731739e-19
1.7311138e-19
1.7307625e-19
1.7305811e-19
1.7305022e-19
1.7304878e-19
1.7305256e-19
1.7306267e-19
1.7308339e-19
1.7321689e-19
1.7311138e-19
1.7304895e-19
1.7301387e-19
1.729958e-19
1.72988e-19
1.7298675e-19
1.7299092e-19
1.7300175e-19
1.7302354e-19
1.7318169e-19
1.7307625e-19
1.7301387e-19
1.7297885e-19
1.7296083e-19
1.7295311e-19
1.7295201e-19
1.7295643e-19
1.7296765e-19
1.7298983e-19
1.7316351e-19
1.7305811e-19
1.729958e-19
1.7296083e-19
1.7294287e-19
1.7293521e-19
1.7293421e-19
1.7293877e-19
1.7295018e-19
1.7297251e-19
1.7315554e-19
1.7305022e-19
1.72988e-19
1.7295311e-19
1.7293521e-19
1.7292761e-19
1.7292667e-19
1.7293131e-19
1.729428e-19
1.729652e-19
1.7315394e-19
1.7304878e-19
1.7298675e-19
1.7295201e-19
1.7293421e-19
1.7292667e-19
1.7292578e-19
1.7293046e-19
1.7294199e-19
1.7296442e-19
1.7315732e-19
1.7305256e-19
1.7299092e-19
1.7295643e-19
1.7293877e-19
1.7293131e-19
1.7293046e-19
1.7293517e-19
1.7294673e-19
1.7296917e-19
1.7316635e-19
1.7306267e-19
1.7300175e-19
1.7296765e-19
1.7295018e-19
1.729428e-19
1.7294199e-19
1.7294673e-19
1.729583e-19
1.7298076e-19
1.7318389e-19
1.7308339e-19
1.7302354e-19
1.7298983e-19
1.7297251e-19
1.729652e-19
1.7296442e-19
1.7296917e-19
1.7298076e-19
1.7300328e-19
3.826528e-19
3.8242828e-19
3.8229512e-19
3.8222015e-19
3.8218136e-19
3.8216435e-19
3.8216093e-19
3.8216808e-19
3.8218712e-19
3.8222372e-19
3.8242828e-19
3.8220453e-19
3.8207165e-19
3.8199681e-19
3.8195813e-19
3.8194128e-19
3.8193821e-19
3.8194623e-19
3.8196762e-19
3.8201115e-19
3.8229512e-19
3.8207165e-19
3.8193896e-19
3.8186425e-19
3.818257e-19
3.8180905e-19
3.8180639e-19
3.8181525e-19
3.8183821e-19
3.8188406e-19
3.8222015e-19
3.8199681e-19
3.8186425e-19
3.8178964e-19
3.8175121e-19
3.8173474e-19
3.8173241e-19
3.8174182e-19
3.8176561e-19
3.8181233e-19
3.8218136e-19
3.8195813e-19
3.818257e-19
3.8175121e-19
3.8171289e-19
3.8169656e-19
3.8169444e-19
3.8170417e-19
3.8172836e-19
3.8177542e-19
3.8216435e-19
3.8194128e-19
3.8180905e-19
3.8173474e-19
3.8169656e-19
3.8168035e-19
3.8167836e-19
3.8168826e-19
3.8171264e-19
3.8175983e-19
3.8216093e-19
3.8193821e-19
3.8180639e-19
3.8173241e-19
3.8169444e-19
3.8167836e-19
3.8167646e-19
3.8168646e-19
3.8171093e-19
3.8175817e-19
3.8216808e-19
3.8194623e-19
3.8181525e-19
3.8174182e-19
3.8170417e-19
3.8168826e-19
3.8168646e-19
3.8169651e-19
3.8172103e-19
3.8176831e-19
3.8218712e-19
3.8196762e-19
3.8183821e-19
3.8176561e-19
3.8172836e-19
3.8171264e-19
3.8171093e-19
3.8172103e-19
3.8174559e-19
3.8179291e-19
3.8222372e-19
3.8201115e-19
3.8188406e-19
3.8181233e-19
3.8177542e-19
3.8175983e-19
3.8175817e-19
3.8176831e-19