/*--------------------------------*- C++ -*----------------------------------*\
| =========                 |                                                 |
| \\      /  F ield         | OpenFOAM: The Open Source CFD Toolbox           |
|  \\    /   O peration     | Version:  dev                                   |
|   \\  /    A nd           | Web:      www.OpenFOAM.org                      |
|    \\/     M anipulation  |                                                 |
\*---------------------------------------------------------------------------*/
FoamFile
{
    version     2.0;
    format      ascii;
    class       volScalarField;
    location    "89.995";
    object      A;
}
// * * * * * * * * * * * * * * * * * * * * * * * * * * * * * * * * * * * * * //

dimensions      [0 0 0 0 1 0 0];

internalField   nonuniform List<scalar> 
10000
(
1.7177015e-22
1.7161333e-22
1.715265e-22
1.7147636e-22
1.7144868e-22
1.7143538e-22
1.7143219e-22
1.7143804e-22
1.7145543e-22
1.7148964e-22
1.7161333e-22
1.7145712e-22
1.713705e-22
1.7132046e-22
1.7129286e-22
1.7127965e-22
1.7127663e-22
1.7128288e-22
1.7130125e-22
1.7133827e-22
1.715265e-22
1.713705e-22
1.7128401e-22
1.7123407e-22
1.7120656e-22
1.7119348e-22
1.7119068e-22
1.7119731e-22
1.7121638e-22
1.7125438e-22
1.7147636e-22
1.7132046e-22
1.7123407e-22
1.7118421e-22
1.7115679e-22
1.7114383e-22
1.7114121e-22
1.7114813e-22
1.7116759e-22
1.7120597e-22
1.7144868e-22
1.7129286e-22
1.7120656e-22
1.7115679e-22
1.7112946e-22
1.711166e-22
1.7111412e-22
1.7112122e-22
1.7114089e-22
1.7117942e-22
1.7143538e-22
1.7127965e-22
1.7119348e-22
1.7114383e-22
1.711166e-22
1.7110384e-22
1.7110145e-22
1.7110866e-22
1.7112844e-22
1.7116705e-22
1.7143219e-22
1.7127663e-22
1.7119068e-22
1.7114121e-22
1.7111412e-22
1.7110145e-22
1.7109915e-22
1.7110643e-22
1.7112627e-22
1.7116492e-22
1.7143804e-22
1.7128288e-22
1.7119731e-22
1.7114813e-22
1.7112122e-22
1.7110866e-22
1.7110643e-22
1.7111376e-22
1.7113364e-22
1.7117232e-22
1.7145543e-22
1.7130125e-22
1.7121638e-22
1.7116759e-22
1.7114089e-22
1.7112844e-22
1.7112627e-22
1.7113364e-22
1.7115356e-22
1.7119228e-22
1.7148964e-22
1.7133827e-22
1.7125438e-22
1.7120597e-22
1.7117942e-22
1.7116705e-22
1.7116492e-22
1.7117232e-22
1.7119228e-22
1.7123112e-22
5.643198e-22
5.6382472e-22
5.635424e-22
5.6337898e-22
5.632887e-22
5.6324529e-22
5.6323483e-22
5.6325383e-22
5.6331045e-22
5.6342579e-22
5.6382472e-22
5.6333149e-22
5.6304984e-22
5.6288674e-22
5.6279671e-22
5.6275361e-22
5.6274373e-22
5.6276401e-22
5.6282387e-22
5.6294848e-22
5.635424e-22
5.6304984e-22
5.6276863e-22
5.6260585e-22
5.6251611e-22
5.6247342e-22
5.6246425e-22
5.6248582e-22
5.6254796e-22
5.6267577e-22
5.6337898e-22
5.6288674e-22
5.6260585e-22
5.6244335e-22
5.6235391e-22
5.6231161e-22
5.6230303e-22
5.6232553e-22
5.6238895e-22
5.6251801e-22
5.632887e-22
5.6279671e-22
5.6251611e-22
5.6235391e-22
5.6226476e-22
5.622228e-22
5.6221466e-22
5.6223775e-22
5.6230185e-22
5.6243144e-22
5.6324529e-22
5.6275361e-22
5.6247342e-22
5.6231161e-22
5.622228e-22
5.6218115e-22
5.6217334e-22
5.6219678e-22
5.6226124e-22
5.6239107e-22
5.6323483e-22
5.6274373e-22
5.6246425e-22
5.6230303e-22
5.6221466e-22
5.6217334e-22
5.6216578e-22
5.6218946e-22
5.6225412e-22
5.6238408e-22
5.6325383e-22
5.6276401e-22
5.6248582e-22
5.6232553e-22
5.6223775e-22
5.6219678e-22
5.6218946e-22
5.622133e-22
5.622781e-22
5.6240816e-22
5.6331045e-22
5.6282387e-22
5.6254796e-22
5.6238895e-22
5.6230185e-22
5.6226124e-22
5.6225412e-22
5.622781e-22
5.6234302e-22
5.6247322e-22
5.6342579e-22
5.6294848e-22
5.6267577e-22
5.6251801e-22
5.6243144e-22
5.6239107e-22
5.6238408e-22
5.6240816e-22
5.6247322e-22
5.626038e-22
1.1208738e-21
1.1199233e-21
1.1193727e-21
1.1190529e-21
1.118876e-21
1.1187909e-21
1.1187703e-21
1.1188071e-21
1.1189175e-21
1.1191496e-21
1.1199233e-21
1.1189763e-21
1.118427e-21
1.1181079e-21
1.1179315e-21
1.1178469e-21
1.1178274e-21
1.1178668e-21
1.1179836e-21
1.1182341e-21
1.1193727e-21
1.118427e-21
1.1178785e-21
1.11756e-21
1.1173842e-21
1.1173005e-21
1.1172824e-21
1.1173243e-21
1.1174456e-21
1.1177024e-21
1.1190529e-21
1.1181079e-21
1.11756e-21
1.1172421e-21
1.1170668e-21
1.1169839e-21
1.1169669e-21
1.1170107e-21
1.1171345e-21
1.1173938e-21
1.118876e-21
1.1179315e-21
1.1173842e-21
1.1170668e-21
1.1168922e-21
1.1168099e-21
1.1167938e-21
1.1168388e-21
1.1169639e-21
1.1172242e-21
1.1187909e-21
1.1178469e-21
1.1173005e-21
1.1169839e-21
1.1168099e-21
1.1167282e-21
1.1167128e-21
1.1167584e-21
1.1168843e-21
1.1171451e-21
1.1187703e-21
1.1178274e-21
1.1172824e-21
1.1169669e-21
1.1167938e-21
1.1167128e-21
1.1166979e-21
1.116744e-21
1.1168702e-21
1.1171313e-21
1.1188071e-21
1.1178668e-21
1.1173243e-21
1.1170107e-21
1.1168388e-21
1.1167584e-21
1.116744e-21
1.1167904e-21
1.1169169e-21
1.1171782e-21
1.1189175e-21
1.1179836e-21
1.1174456e-21
1.1171345e-21
1.1169639e-21
1.1168843e-21
1.1168702e-21
1.1169169e-21
1.1170437e-21
1.1173052e-21
1.1191496e-21
1.1182341e-21
1.1177024e-21
1.1173938e-21
1.1172242e-21
1.1171451e-21
1.1171313e-21
1.1171782e-21
1.1173052e-21
1.1175676e-21
2.0105207e-21
2.0088722e-21
2.0079076e-21
2.0073455e-21
2.0070341e-21
2.0068839e-21
2.0068472e-21
2.0069113e-21
2.0071035e-21
2.0075129e-21
2.0088722e-21
2.0072297e-21
2.0062673e-21
2.0057064e-21
2.0053958e-21
2.0052467e-21
2.005212e-21
2.0052806e-21
2.0054843e-21
2.0059266e-21
2.0079076e-21
2.0062673e-21
2.0053064e-21
2.0047466e-21
2.004437e-21
2.0042893e-21
2.0042571e-21
2.0043302e-21
2.004542e-21
2.0049956e-21
2.0073455e-21
2.0057064e-21
2.0047466e-21
2.0041877e-21
2.0038791e-21
2.0037329e-21
2.0037028e-21
2.0037791e-21
2.0039954e-21
2.0044534e-21
2.0070341e-21
2.0053958e-21
2.004437e-21
2.0038791e-21
2.0035716e-21
2.0034265e-21
2.003398e-21
2.0034764e-21
2.0036951e-21
2.004155e-21
2.0068839e-21
2.0052467e-21
2.0042893e-21
2.0037329e-21
2.0034265e-21
2.0032825e-21
2.0032551e-21
2.0033348e-21
2.0035548e-21
2.0040155e-21
2.0068472e-21
2.005212e-21
2.0042571e-21
2.0037028e-21
2.003398e-21
2.0032551e-21
2.0032286e-21
2.0033091e-21
2.0035298e-21
2.0039909e-21
2.0069113e-21
2.0052806e-21
2.0043302e-21
2.0037791e-21
2.0034764e-21
2.0033348e-21
2.0033091e-21
2.0033902e-21
2.0036114e-21
2.0040729e-21
2.0071035e-21
2.0054843e-21
2.004542e-21
2.0039954e-21
2.0036951e-21
2.0035548e-21
2.0035298e-21
2.0036114e-21
2.0038329e-21
2.0042949e-21
2.0075129e-21
2.0059266e-21
2.0049956e-21
2.0044534e-21
2.004155e-21
2.0040155e-21
2.0039909e-21
2.0040729e-21
2.0042949e-21
2.0047583e-21
3.5171553e-21
3.5143677e-21
3.512725e-21
3.5117647e-21
3.5112315e-21
3.5109739e-21
3.5109104e-21
3.5110183e-21
3.5113428e-21
3.5120347e-21
3.5143677e-21
3.5115902e-21
3.5099512e-21
3.5089927e-21
3.508461e-21
3.5082053e-21
3.5081452e-21
3.508261e-21
3.5086055e-21
3.5093546e-21
3.512725e-21
3.5099512e-21
3.5083147e-21
3.5073581e-21
3.5068281e-21
3.5065749e-21
3.5065192e-21
3.5066428e-21
3.5070013e-21
3.5077701e-21
3.5117647e-21
3.5089927e-21
3.5073581e-21
3.5064032e-21
3.505875e-21
3.5056242e-21
3.505572e-21
3.5057013e-21
3.5060676e-21
3.5068441e-21
3.5112315e-21
3.508461e-21
3.5068281e-21
3.505875e-21
3.5053485e-21
3.5050998e-21
3.5050503e-21
3.5051832e-21
3.5055537e-21
3.5063334e-21
3.5109739e-21
3.5082053e-21
3.5065749e-21
3.5056242e-21
3.5050998e-21
3.5048529e-21
3.5048054e-21
3.5049405e-21
3.5053131e-21
3.5060944e-21
3.5109104e-21
3.5081452e-21
3.5065192e-21
3.505572e-21
3.5050503e-21
3.5048054e-21
3.5047595e-21
3.504896e-21
3.5052699e-21
3.5060519e-21
3.5110183e-21
3.508261e-21
3.5066428e-21
3.5057013e-21
3.5051832e-21
3.5049405e-21
3.504896e-21
3.5050336e-21
3.5054082e-21
3.5061908e-21
3.5113428e-21
3.5086055e-21
3.5070013e-21
3.5060676e-21
3.5055537e-21
3.5053131e-21
3.5052699e-21
3.5054082e-21
3.5057836e-21
3.506567e-21
3.5120347e-21
3.5093546e-21
3.5077701e-21
3.5068441e-21
3.5063334e-21
3.5060944e-21
3.5060519e-21
3.5061908e-21
3.506567e-21
3.5073528e-21
6.1404826e-21
6.1357802e-21
6.1329934e-21
6.1313591e-21
6.1304498e-21
6.1300099e-21
6.1299002e-21
6.130081e-21
6.1306253e-21
6.1317814e-21
6.1357802e-21
6.1310944e-21
6.128314e-21
6.1266828e-21
6.125776e-21
6.1253393e-21
6.1252356e-21
6.12543e-21
6.1260089e-21
6.1272646e-21
6.1329934e-21
6.128314e-21
6.1255378e-21
6.1239098e-21
6.123006e-21
6.1225736e-21
6.1224773e-21
6.1226854e-21
6.1232885e-21
6.1245783e-21
6.1313591e-21
6.1266828e-21
6.1239098e-21
6.1222846e-21
6.1213839e-21
6.1209555e-21
6.1208656e-21
6.1210834e-21
6.1217002e-21
6.1230032e-21
6.1304498e-21
6.125776e-21
6.123006e-21
6.1213839e-21
6.1204862e-21
6.1200614e-21
6.1199761e-21
6.1202002e-21
6.1208241e-21
6.1221327e-21
6.1300099e-21
6.1253393e-21
6.1225736e-21
6.1209555e-21
6.1200614e-21
6.1196399e-21
6.119558e-21
6.1197858e-21
6.1204135e-21
6.1217247e-21
6.1299002e-21
6.1252356e-21
6.1224773e-21
6.1208656e-21
6.1199761e-21
6.119558e-21
6.1194788e-21
6.1197091e-21
6.1203389e-21
6.1216515e-21
6.130081e-21
6.12543e-21
6.1226854e-21
6.1210834e-21
6.1202002e-21
6.1197858e-21
6.1197091e-21
6.1199411e-21
6.1205723e-21
6.1218859e-21
6.1306253e-21
6.1260089e-21
6.1232885e-21
6.1217002e-21
6.1208241e-21
6.1204135e-21
6.1203389e-21
6.1205723e-21
6.1212048e-21
6.1225198e-21
6.1317814e-21
6.1272646e-21
6.1245783e-21
6.1230032e-21
6.1221327e-21
6.1217247e-21
6.1216515e-21
6.1218859e-21
6.1225198e-21
6.1238386e-21
1.0781197e-20
1.0773223e-20
1.0768474e-20
1.076568e-20
1.0764123e-20
1.0763368e-20
1.0763178e-20
1.0763482e-20
1.0764398e-20
1.0766332e-20
1.0773223e-20
1.0765277e-20
1.0760539e-20
1.075775e-20
1.0756197e-20
1.0755447e-20
1.0755268e-20
1.0755595e-20
1.0756572e-20
1.075868e-20
1.0768474e-20
1.0760539e-20
1.0755808e-20
1.0753024e-20
1.0751476e-20
1.0750734e-20
1.0750567e-20
1.0750919e-20
1.0751938e-20
1.0754105e-20
1.076568e-20
1.075775e-20
1.0753024e-20
1.0750246e-20
1.0748703e-20
1.0747968e-20
1.0747812e-20
1.0748181e-20
1.0749223e-20
1.0751414e-20
1.0764123e-20
1.0756197e-20
1.0751476e-20
1.0748703e-20
1.0747166e-20
1.0746437e-20
1.0746289e-20
1.0746669e-20
1.0747723e-20
1.0749923e-20
1.0763368e-20
1.0755447e-20
1.0750734e-20
1.0747968e-20
1.0746437e-20
1.0745714e-20
1.0745572e-20
1.0745958e-20
1.0747019e-20
1.0749224e-20
1.0763178e-20
1.0755268e-20
1.0750567e-20
1.0747812e-20
1.0746289e-20
1.0745572e-20
1.0745435e-20
1.0745825e-20
1.074689e-20
1.0749097e-20
1.0763482e-20
1.0755595e-20
1.0750919e-20
1.0748181e-20
1.0746669e-20
1.0745958e-20
1.0745825e-20
1.0746218e-20
1.0747286e-20
1.0749494e-20
1.0764398e-20
1.0756572e-20
1.0751938e-20
1.0749223e-20
1.0747723e-20
1.0747019e-20
1.074689e-20
1.0747286e-20
1.0748355e-20
1.0750566e-20
1.0766332e-20
1.075868e-20
1.0754105e-20
1.0751414e-20
1.0749923e-20
1.0749224e-20
1.0749097e-20
1.0749494e-20
1.0750566e-20
1.0752784e-20
1.9086283e-20
1.9072654e-20
1.90645e-20
1.9059688e-20
1.9057e-20
1.9055695e-20
1.9055363e-20
1.9055878e-20
1.9057431e-20
1.9060686e-20
1.9072654e-20
1.9059073e-20
1.9050937e-20
1.9046134e-20
1.9043454e-20
1.9042158e-20
1.9041844e-20
1.9042401e-20
1.9044059e-20
1.904762e-20
1.90645e-20
1.9050937e-20
1.9042813e-20
1.903802e-20
1.9035348e-20
1.9034065e-20
1.9033774e-20
1.9034373e-20
1.9036105e-20
1.9039771e-20
1.9059688e-20
1.9046134e-20
1.903802e-20
1.9033235e-20
1.9030572e-20
1.9029302e-20
1.902903e-20
1.9029658e-20
1.9031432e-20
1.9035138e-20
1.9057e-20
1.9043454e-20
1.9035348e-20
1.9030572e-20
1.9027919e-20
1.9026659e-20
1.9026402e-20
1.9027049e-20
1.9028845e-20
1.9032568e-20
1.9055695e-20
1.9042158e-20
1.9034065e-20
1.9029302e-20
1.9026659e-20
1.902541e-20
1.9025162e-20
1.9025821e-20
1.9027628e-20
1.903136e-20
1.9055363e-20
1.9041844e-20
1.9033774e-20
1.902903e-20
1.9026402e-20
1.9025162e-20
1.9024923e-20
1.9025589e-20
1.9027403e-20
1.9031138e-20
1.9055878e-20
1.9042401e-20
1.9034373e-20
1.9029658e-20
1.9027049e-20
1.9025821e-20
1.9025589e-20
1.9026261e-20
1.9028079e-20
1.9031817e-20
1.9057431e-20
1.9044059e-20
1.9036105e-20
1.9031432e-20
1.9028845e-20
1.9027628e-20
1.9027403e-20
1.9028079e-20
1.90299e-20
1.9033643e-20
1.9060686e-20
1.904762e-20
1.9039771e-20
1.9035138e-20
1.9032568e-20
1.903136e-20
1.9031138e-20
1.9031817e-20
1.9033643e-20
1.9037396e-20
3.4100493e-20
3.4076995e-20
3.4062873e-20
3.4054514e-20
3.4049835e-20
3.4047559e-20
3.4046975e-20
3.4047855e-20
3.4050509e-20
3.4056032e-20
3.4076995e-20
3.4053579e-20
3.4039487e-20
3.4031144e-20
3.4026478e-20
3.4024219e-20
3.4023667e-20
3.4024621e-20
3.4027462e-20
3.4033528e-20
3.4062873e-20
3.4039487e-20
3.4025417e-20
3.401709e-20
3.401244e-20
3.4010204e-20
3.4009691e-20
3.4010719e-20
3.4013691e-20
3.4019943e-20
3.4054514e-20
3.4031144e-20
3.401709e-20
3.4008778e-20
3.4004144e-20
3.4001929e-20
3.4001451e-20
3.4002532e-20
3.4005577e-20
3.4011901e-20
3.4049835e-20
3.4026478e-20
3.401244e-20
3.4004144e-20
3.3999526e-20
3.3997331e-20
3.3996877e-20
3.3997991e-20
3.4001076e-20
3.400743e-20
3.4047559e-20
3.4024219e-20
3.4010204e-20
3.4001929e-20
3.3997331e-20
3.3995153e-20
3.3994718e-20
3.3995852e-20
3.3998957e-20
3.4005325e-20
3.4046975e-20
3.4023667e-20
3.4009691e-20
3.4001451e-20
3.3996877e-20
3.3994718e-20
3.3994297e-20
3.3995445e-20
3.3998561e-20
3.4004936e-20
3.4047855e-20
3.4024621e-20
3.4010719e-20
3.4002532e-20
3.3997991e-20
3.3995852e-20
3.3995445e-20
3.3996602e-20
3.3999725e-20
3.4006105e-20
3.4050509e-20
3.4027462e-20
3.4013691e-20
3.4005577e-20
3.4001076e-20
3.3998957e-20
3.3998561e-20
3.3999725e-20
3.4002855e-20
3.4009242e-20
3.4056032e-20
3.4033528e-20
3.4019943e-20
3.4011901e-20
3.400743e-20
3.4005325e-20
3.4004936e-20
3.4006105e-20
3.4009242e-20
3.4015648e-20
6.1507719e-20
6.1466836e-20
6.1442157e-20
6.1427506e-20
6.1419289e-20
6.1415286e-20
6.1414248e-20
6.1415766e-20
6.1420343e-20
6.14298e-20
6.1466836e-20
6.1426095e-20
6.1401468e-20
6.1386845e-20
6.137865e-20
6.1374677e-20
6.1373696e-20
6.1375346e-20
6.1380259e-20
6.1390687e-20
6.1442157e-20
6.1401468e-20
6.137688e-20
6.1362284e-20
6.1354117e-20
6.1350184e-20
6.1349275e-20
6.1351057e-20
6.1356203e-20
6.1366963e-20
6.1427506e-20
6.1386845e-20
6.1362284e-20
6.1347715e-20
6.1339577e-20
6.1335682e-20
6.1334834e-20
6.133671e-20
6.1341987e-20
6.1352876e-20
6.1419289e-20
6.137865e-20
6.1354117e-20
6.1339577e-20
6.1331468e-20
6.1327607e-20
6.1326804e-20
6.1328739e-20
6.1334085e-20
6.1345028e-20
6.1415286e-20
6.1374677e-20
6.1350184e-20
6.1335682e-20
6.1327607e-20
6.1323778e-20
6.1323007e-20
6.1324979e-20
6.1330361e-20
6.1341329e-20
6.1414248e-20
6.1373696e-20
6.1349275e-20
6.1334834e-20
6.1326804e-20
6.1323007e-20
6.1322262e-20
6.1324257e-20
6.132966e-20
6.134064e-20
6.1415766e-20
6.1375346e-20
6.1351057e-20
6.133671e-20
6.1328739e-20
6.1324979e-20
6.1324257e-20
6.1326269e-20
6.1331685e-20
6.1342674e-20
6.1420343e-20
6.1380259e-20
6.1356203e-20
6.1341987e-20
6.1334085e-20
6.1330361e-20
6.132966e-20
6.1331685e-20
6.1337112e-20
6.1348113e-20
6.14298e-20
6.1390687e-20
6.1366963e-20
6.1352876e-20
6.1345028e-20
6.1341329e-20
6.134064e-20
6.1342674e-20
6.1348113e-20
6.1359146e-20
1.1201829e-19
1.119465e-19
1.1190298e-19
1.1187706e-19
1.118625e-19
1.1185539e-19
1.1185354e-19
1.1185618e-19
1.1186415e-19
1.1188049e-19
1.119465e-19
1.1187496e-19
1.1183153e-19
1.1180566e-19
1.1179114e-19
1.1178409e-19
1.1178233e-19
1.1178521e-19
1.1179379e-19
1.1181188e-19
1.1190298e-19
1.1183153e-19
1.1178816e-19
1.1176235e-19
1.1174787e-19
1.1174089e-19
1.1173927e-19
1.1174238e-19
1.1175138e-19
1.1177007e-19
1.1187706e-19
1.1180566e-19
1.1176235e-19
1.1173658e-19
1.1172215e-19
1.1171524e-19
1.1171373e-19
1.1171701e-19
1.1172624e-19
1.1174517e-19
1.118625e-19
1.1179114e-19
1.1174787e-19
1.1172215e-19
1.1170778e-19
1.1170093e-19
1.116995e-19
1.1170289e-19
1.1171225e-19
1.1173127e-19
1.1185539e-19
1.1178409e-19
1.1174089e-19
1.1171524e-19
1.1170093e-19
1.1169414e-19
1.1169276e-19
1.1169622e-19
1.1170564e-19
1.1172471e-19
1.1185354e-19
1.1178233e-19
1.1173927e-19
1.1171373e-19
1.116995e-19
1.1169276e-19
1.1169143e-19
1.1169493e-19
1.1170439e-19
1.1172348e-19
1.1185618e-19
1.1178521e-19
1.1174238e-19
1.1171701e-19
1.1170289e-19
1.1169622e-19
1.1169493e-19
1.1169846e-19
1.1170795e-19
1.1172705e-19
1.1186415e-19
1.1179379e-19
1.1175138e-19
1.1172624e-19
1.1171225e-19
1.1170564e-19
1.1170439e-19
1.1170795e-19
1.1171745e-19
1.1173657e-19
1.1188049e-19
1.1181188e-19
1.1177007e-19
1.1174517e-19
1.1173127e-19
1.1172471e-19
1.1172348e-19
1.1172705e-19
1.1173657e-19
1.1175576e-19
2.0600148e-19
2.0587425e-19
2.0579677e-19
2.0575052e-19
2.0572447e-19
2.0571174e-19
2.0570838e-19
2.0571303e-19
2.0572703e-19
2.0575553e-19
2.0587425e-19
2.0574745e-19
2.0567014e-19
2.0562397e-19
2.0559799e-19
2.0558536e-19
2.0558219e-19
2.0558727e-19
2.0560238e-19
2.0563407e-19
2.0579677e-19
2.0567014e-19
2.0559295e-19
2.0554686e-19
2.0552098e-19
2.0550848e-19
2.0550554e-19
2.0551105e-19
2.0552693e-19
2.0555971e-19
2.0575052e-19
2.0562397e-19
2.0554686e-19
2.0550086e-19
2.0547507e-19
2.0546269e-19
2.0545996e-19
2.0546578e-19
2.0548208e-19
2.0551529e-19
2.0572447e-19
2.0559799e-19
2.0552098e-19
2.0547507e-19
2.0544937e-19
2.0543711e-19
2.0543452e-19
2.0544053e-19
2.0545706e-19
2.0549045e-19
2.0571174e-19
2.0558536e-19
2.0550848e-19
2.0546269e-19
2.0543711e-19
2.0542494e-19
2.0542246e-19
2.0542859e-19
2.0544524e-19
2.0547871e-19
2.0570838e-19
2.0558219e-19
2.0550554e-19
2.0545996e-19
2.0543452e-19
2.0542246e-19
2.0542006e-19
2.0542627e-19
2.0544298e-19
2.0547649e-19
2.0571303e-19
2.0558727e-19
2.0551105e-19
2.0546578e-19
2.0544053e-19
2.0542859e-19
2.0542627e-19
2.0543253e-19
2.0544929e-19
2.0548283e-19
2.0572703e-19
2.0560238e-19
2.0552693e-19
2.0548208e-19
2.0545706e-19
2.0544524e-19
2.0544298e-19
2.0544929e-19
2.0546608e-19
2.0549965e-19
2.0575553e-19
2.0563407e-19
2.0555971e-19
2.0551529e-19
2.0549045e-19
2.0547871e-19
2.0547649e-19
2.0548283e-19
2.0549965e-19
2.0553332e-19
3.8255538e-19
3.8232779e-19
3.8218861e-19
3.8210527e-19
3.8205826e-19
3.8203524e-19
3.8202913e-19
3.8203738e-19
3.8206222e-19
3.8211239e-19
3.8232779e-19
3.8210096e-19
3.8196207e-19
3.8187889e-19
3.81832e-19
3.8180916e-19
3.818034e-19
3.8181244e-19
3.8183931e-19
3.8189536e-19
3.8218861e-19
3.8196207e-19
3.818234e-19
3.8174037e-19
3.8169365e-19
3.8167105e-19
3.8166571e-19
3.8167554e-19
3.8170382e-19
3.8176188e-19
3.8210527e-19
3.8187889e-19
3.8174037e-19
3.8165749e-19
3.8161094e-19
3.8158857e-19
3.815836e-19
3.81594e-19
3.8162306e-19
3.816819e-19
3.8205826e-19
3.81832e-19
3.8169365e-19
3.8161094e-19
3.8156456e-19
3.815424e-19
3.8153769e-19
3.8154844e-19
3.8157793e-19
3.8163709e-19
3.8203524e-19
3.8180916e-19
3.8167105e-19
3.8158857e-19
3.815424e-19
3.8152042e-19
3.8151591e-19
3.8152688e-19
3.8155658e-19
3.8161589e-19
3.8202913e-19
3.818034e-19
3.8166571e-19
3.815836e-19
3.8153769e-19
3.8151591e-19
3.8151155e-19
3.8152266e-19
3.8155248e-19
3.8161187e-19
3.8203738e-19
3.8181244e-19
3.8167554e-19
3.81594e-19
3.8154844e-19
3.8152688e-19
3.8152266e-19
3.8153387e-19
3.8156377e-19
3.8162321e-19
3.8206222e-19
3.8183931e-19
3.8170382e-19
3.8162306e-19
3.8157793e-19
3.8155658e-19
3.8155248e-19
3.8156377e-19
3.8159374e-19
3.8165324e-19
3.8211239e-19
3.8189536e-19
3.8176188e-19
3.816819e-19
3.8163709e-19
3.8161589e-19
3.8161187e-19
3.8162321e-19
3.8165324e-19
3.8171291e-19
7.1742361e-19
7.1701266e-19
7.1676031e-19
7.1660877e-19
7.1652313e-19
7.1648114e-19
7.1646991e-19
7.1648469e-19
7.1652919e-19
7.1661834e-19
7.1701266e-19
7.1660309e-19
7.1635126e-19
7.1619999e-19
7.1611458e-19
7.1607292e-19
7.1606233e-19
7.1607858e-19
7.1612684e-19
7.1622693e-19
7.1676031e-19
7.1635126e-19
7.160998e-19
7.1594882e-19
7.1586372e-19
7.158225e-19
7.158127e-19
7.1583042e-19
7.1588129e-19
7.159851e-19
7.1660877e-19
7.1619999e-19
7.1594882e-19
7.1579813e-19
7.1571333e-19
7.1567254e-19
7.1566342e-19
7.1568218e-19
7.1573451e-19
7.1583976e-19
7.1652313e-19
7.1611458e-19
7.1586372e-19
7.1571333e-19
7.1562885e-19
7.1558844e-19
7.1557981e-19
7.1559923e-19
7.1565234e-19
7.1575819e-19
7.1648114e-19
7.1607292e-19
7.158225e-19
7.1567254e-19
7.1558844e-19
7.1554837e-19
7.1554009e-19
7.1555992e-19
7.1561343e-19
7.1571957e-19
7.1646991e-19
7.1606233e-19
7.158127e-19
7.1566342e-19
7.1557981e-19
7.1554009e-19
7.1553211e-19
7.1555219e-19
7.1560593e-19
7.1571221e-19
7.1648469e-19
7.1607858e-19
7.1583042e-19
7.1568218e-19
7.1559923e-19
7.1555992e-19
7.1555219e-19
7.1557246e-19
7.1562634e-19
7.1573271e-19
7.1652919e-19
7.1612684e-19
7.1588129e-19
7.1573451e-19
7.1565234e-19
7.1561343e-19
7.1560593e-19
7.1562634e-19
7.1568033e-19
7.1578682e-19
7.1661834e-19
7.1622693e-19
7.159851e-19
7.1583976e-19
7.1575819e-19
7.1571957e-19
7.1571221e-19
7.1573271e-19
7.1578682e-19
7.1589359e-19
1.3587042e-18
1.3579552e-18
1.3574934e-18
1.3572153e-18
1.3570578e-18
1.3569805e-18
1.3569597e-18
1.3569864e-18
1.3570669e-18
1.3572269e-18
1.3579552e-18
1.3572087e-18
1.3567478e-18
1.3564702e-18
1.3563132e-18
1.3562365e-18
1.3562169e-18
1.3562464e-18
1.3563339e-18
1.3565144e-18
1.3574934e-18
1.3567478e-18
1.3562876e-18
1.3560106e-18
1.3558541e-18
1.3557782e-18
1.3557601e-18
1.3557923e-18
1.3558847e-18
1.3560722e-18
1.3572153e-18
1.3564702e-18
1.3560106e-18
1.355734e-18
1.3555781e-18
1.355503e-18
1.3554862e-18
1.3555204e-18
1.3556155e-18
1.3558056e-18
1.3570578e-18
1.3563132e-18
1.3558541e-18
1.3555781e-18
1.3554228e-18
1.3553484e-18
1.3553325e-18
1.3553679e-18
1.3554645e-18
1.3556558e-18
1.3569805e-18
1.3562365e-18
1.3557782e-18
1.355503e-18
1.3553484e-18
1.3552747e-18
1.3552594e-18
1.3552956e-18
1.3553929e-18
1.3555847e-18
1.3569597e-18
1.3562169e-18
1.3557601e-18
1.3554862e-18
1.3553325e-18
1.3552594e-18
1.3552447e-18
1.3552813e-18
1.3553791e-18
1.3555711e-18
1.3569864e-18
1.3562464e-18
1.3557923e-18
1.3555204e-18
1.3553679e-18
1.3552956e-18
1.3552813e-18
1.3553183e-18
1.3554164e-18
1.3556086e-18
1.3570669e-18
1.3563339e-18
1.3558847e-18
1.3556155e-18
1.3554645e-18
1.3553929e-18
1.3553791e-18
1.3554164e-18
1.3555146e-18
1.355707e-18
1.3572269e-18
1.3565144e-18
1.3560722e-18
1.3558056e-18
1.3556558e-18
1.3555847e-18
1.3555711e-18
1.3556086e-18
1.355707e-18
1.3559e-18
2.598655e-18
2.5972772e-18
2.5964241e-18
2.595909e-18
2.5956169e-18
2.5954732e-18
2.5954343e-18
2.5954832e-18
2.5956302e-18
2.5959199e-18
2.5972772e-18
2.5959039e-18
2.5950526e-18
2.5945384e-18
2.594247e-18
2.5941045e-18
2.5940679e-18
2.594122e-18
2.5942822e-18
2.5946107e-18
2.5964241e-18
2.5950526e-18
2.5942025e-18
2.5936893e-18
2.593399e-18
2.593258e-18
2.5932242e-18
2.5932834e-18
2.5934529e-18
2.5937946e-18
2.595909e-18
2.5945384e-18
2.5936893e-18
2.593177e-18
2.5928878e-18
2.5927484e-18
2.5927169e-18
2.5927798e-18
2.5929545e-18
2.5933013e-18
2.5956169e-18
2.594247e-18
2.593399e-18
2.5928878e-18
2.5925997e-18
2.5924616e-18
2.5924318e-18
2.5924971e-18
2.5926745e-18
2.5930234e-18
2.5954732e-18
2.5941045e-18
2.593258e-18
2.5927484e-18
2.5924616e-18
2.5923247e-18
2.5922962e-18
2.5923629e-18
2.5925417e-18
2.5928916e-18
2.5954343e-18
2.5940679e-18
2.5932242e-18
2.5927169e-18
2.5924318e-18
2.5922962e-18
2.5922687e-18
2.5923363e-18
2.5925159e-18
2.5928663e-18
2.5954832e-18
2.594122e-18
2.5932834e-18
2.5927798e-18
2.5924971e-18
2.5923629e-18
2.5923363e-18
2.5924046e-18
2.5925847e-18
2.5929354e-18
2.5956302e-18
2.5942822e-18
2.5934529e-18
2.5929545e-18
2.5926745e-18
2.5925417e-18
2.5925159e-18
2.5925847e-18
2.5927651e-18
2.5931162e-18
2.5959199e-18
2.5946107e-18
2.5937946e-18
2.5933013e-18
2.5930234e-18
2.5928916e-18
2.5928663e-18
2.5929354e-18
2.5931162e-18
2.5934683e-18
5.0193717e-18
5.0168133e-18
5.0152229e-18
5.01426e-18
5.0137129e-18
5.0134435e-18
5.0133702e-18
5.0134604e-18
5.0137313e-18
5.0142611e-18
5.0168133e-18
5.0142634e-18
5.0126761e-18
5.0117149e-18
5.0111693e-18
5.0109021e-18
5.010833e-18
5.0109331e-18
5.0112295e-18
5.0118333e-18
5.0152229e-18
5.0126761e-18
5.0110912e-18
5.0101318e-18
5.0095882e-18
5.009324e-18
5.0092602e-18
5.0093702e-18
5.0096842e-18
5.0103131e-18
5.01426e-18
5.0117149e-18
5.0101318e-18
5.0091743e-18
5.0086327e-18
5.0083713e-18
5.0083121e-18
5.0084291e-18
5.0087529e-18
5.0093916e-18
5.0137129e-18
5.0111693e-18
5.0095882e-18
5.0086327e-18
5.0080932e-18
5.0078344e-18
5.0077784e-18
5.0078999e-18
5.0082288e-18
5.0088716e-18
5.0134435e-18
5.0109021e-18
5.009324e-18
5.0083713e-18
5.0078344e-18
5.0075778e-18
5.0075243e-18
5.0076484e-18
5.0079801e-18
5.0086248e-18
5.0133702e-18
5.010833e-18
5.0092602e-18
5.0083121e-18
5.0077784e-18
5.0075243e-18
5.0074727e-18
5.0075986e-18
5.0079317e-18
5.0085774e-18
5.0134604e-18
5.0109331e-18
5.0093702e-18
5.0084291e-18
5.0078999e-18
5.0076484e-18
5.0075986e-18
5.0077257e-18
5.0080598e-18
5.008706e-18
5.0137313e-18
5.0112295e-18
5.0096842e-18
5.0087529e-18
5.0082288e-18
5.0079801e-18
5.0079317e-18
5.0080598e-18
5.0083946e-18
5.0090416e-18
5.0142611e-18
5.0118333e-18
5.0103131e-18
5.0093916e-18
5.0088716e-18
5.0086248e-18
5.0085774e-18
5.008706e-18
5.0090416e-18
5.0096902e-18
9.7909619e-18
9.786167e-18
9.7831744e-18
9.7813577e-18
9.7803238e-18
9.7798142e-18
9.7796747e-18
9.7798429e-18
9.7803471e-18
9.7813252e-18
9.786167e-18
9.7813878e-18
9.7784011e-18
9.7765876e-18
9.7755565e-18
9.775051e-18
9.7749198e-18
9.775107e-18
9.7756603e-18
9.7767809e-18
9.7831744e-18
9.7784011e-18
9.7754189e-18
9.7736088e-18
9.7725815e-18
9.7720816e-18
9.7719606e-18
9.7721668e-18
9.772754e-18
9.7739231e-18
9.7813577e-18
9.7765876e-18
9.7736088e-18
9.7718023e-18
9.7707789e-18
9.7702845e-18
9.7701722e-18
9.7703919e-18
9.7709979e-18
9.7721858e-18
9.7803238e-18
9.7755565e-18
9.7725815e-18
9.7707789e-18
9.7697595e-18
9.76927e-18
9.769164e-18
9.7693922e-18
9.7700082e-18
9.771204e-18
9.7798142e-18
9.775051e-18
9.7720816e-18
9.7702845e-18
9.76927e-18
9.7687849e-18
9.7686835e-18
9.7689169e-18
9.7695381e-18
9.7707375e-18
9.7796747e-18
9.7749198e-18
9.7719606e-18
9.7701722e-18
9.769164e-18
9.7686835e-18
9.7685858e-18
9.7688225e-18
9.7694466e-18
9.7706478e-18
9.7798429e-18
9.775107e-18
9.7721668e-18
9.7703919e-18
9.7693922e-18
9.7689169e-18
9.7688225e-18
9.7690616e-18
9.7696875e-18
9.7708899e-18
9.7803471e-18
9.7756603e-18
9.772754e-18
9.7709979e-18
9.7700082e-18
9.7695381e-18
9.7694466e-18
9.7696875e-18
9.7703148e-18
9.7715185e-18
9.7813252e-18
9.7767809e-18
9.7739231e-18
9.7721858e-18
9.771204e-18
9.7707375e-18
9.7706478e-18
9.7708899e-18
9.7715185e-18
9.7727253e-18
1.9287252e-17
1.9278182e-17
1.9272499e-17
1.9269041e-17
1.9267069e-17
1.9266096e-17
1.9265828e-17
1.9266145e-17
1.9267092e-17
1.9268915e-17
1.9278182e-17
1.9269142e-17
1.926347e-17
1.9260017e-17
1.9258051e-17
1.9257085e-17
1.9256834e-17
1.9257188e-17
1.9258231e-17
1.9260331e-17
1.9272499e-17
1.926347e-17
1.9257807e-17
1.925436e-17
1.9252401e-17
1.9251447e-17
1.9251215e-17
1.9251606e-17
1.9252714e-17
1.9254909e-17
1.9269041e-17
1.9260017e-17
1.925436e-17
1.9250921e-17
1.9248969e-17
1.9248026e-17
1.9247811e-17
1.9248227e-17
1.9249373e-17
1.9251604e-17
1.9267069e-17
1.9258051e-17
1.9252401e-17
1.9248969e-17
1.9247025e-17
1.9246091e-17
1.9245888e-17
1.9246322e-17
1.9247486e-17
1.9249733e-17
1.9266096e-17
1.9257085e-17
1.9251447e-17
1.9248026e-17
1.9246091e-17
1.9245165e-17
1.9244972e-17
1.9245415e-17
1.924659e-17
1.9248843e-17
1.9265828e-17
1.9256834e-17
1.9251215e-17
1.9247811e-17
1.9245888e-17
1.9244972e-17
1.9244785e-17
1.9245235e-17
1.9246415e-17
1.9248672e-17
1.9266145e-17
1.9257188e-17
1.9251606e-17
1.9248227e-17
1.9246322e-17
1.9245415e-17
1.9245235e-17
1.9245689e-17
1.9246873e-17
1.9249132e-17
1.9267092e-17
1.9258231e-17
1.9252714e-17
1.9249373e-17
1.9247486e-17
1.924659e-17
1.9246415e-17
1.9246873e-17
1.924806e-17
1.9250321e-17
1.9268915e-17
1.9260331e-17
1.9254909e-17
1.9251604e-17
1.9249733e-17
1.9248843e-17
1.9248672e-17
1.9249132e-17
1.9250321e-17
1.9252589e-17
3.8368364e-17
3.8351049e-17
3.8340157e-17
3.8333512e-17
3.8329717e-17
3.8327842e-17
3.8327324e-17
3.8327926e-17
3.8329725e-17
3.8333155e-17
3.8351049e-17
3.8333789e-17
3.8322919e-17
3.8316285e-17
3.83125e-17
3.8310641e-17
3.8310155e-17
3.8310829e-17
3.8312814e-17
3.8316789e-17
3.8340157e-17
3.8322919e-17
3.8312065e-17
3.8305443e-17
3.8301673e-17
3.8299835e-17
3.8299388e-17
3.8300134e-17
3.8302248e-17
3.8306408e-17
3.8333512e-17
3.8316285e-17
3.8305443e-17
3.8298834e-17
3.8295079e-17
3.8293262e-17
3.8292847e-17
3.8293645e-17
3.8295831e-17
3.8300062e-17
3.8329717e-17
3.83125e-17
3.8301673e-17
3.8295079e-17
3.8291338e-17
3.828954e-17
3.8289149e-17
3.8289979e-17
3.8292203e-17
3.8296464e-17
3.8327842e-17
3.8310641e-17
3.8299835e-17
3.8293262e-17
3.828954e-17
3.8287757e-17
3.8287385e-17
3.8288235e-17
3.8290478e-17
3.8294753e-17
3.8327324e-17
3.8310155e-17
3.8299388e-17
3.8292847e-17
3.8289149e-17
3.8287385e-17
3.8287026e-17
3.8287888e-17
3.8290143e-17
3.8294424e-17
3.8327926e-17
3.8310829e-17
3.8300134e-17
3.8293645e-17
3.8289979e-17
3.8288235e-17
3.8287888e-17
3.828876e-17
3.8291021e-17
3.8295307e-17
3.8329725e-17
3.8312814e-17
3.8302248e-17
3.8295831e-17
3.8292203e-17
3.8290478e-17
3.8290143e-17
3.8291021e-17
3.8293288e-17
3.8297579e-17
3.8333155e-17
3.8316789e-17
3.8306408e-17
3.8300062e-17
3.8296464e-17
3.8294753e-17
3.8294424e-17
3.8295307e-17
3.8297579e-17
3.830188e-17
7.7075776e-17
7.7042415e-17
7.7021352e-17
7.7008466e-17
7.7001097e-17
7.6997452e-17
7.6996443e-17
7.6997598e-17
7.7001044e-17
7.700756e-17
7.7042415e-17
7.7009162e-17
7.6988139e-17
7.6975275e-17
7.6967926e-17
7.6964312e-17
7.6963365e-17
7.6964664e-17
7.6968479e-17
7.6976073e-17
7.7021352e-17
7.6988139e-17
7.6967147e-17
7.6954308e-17
7.6946986e-17
7.6943415e-17
7.6942544e-17
7.6943986e-17
7.6948056e-17
7.6956016e-17
7.7008466e-17
7.6975275e-17
7.6954308e-17
7.6941495e-17
7.6934202e-17
7.6930672e-17
7.6929866e-17
7.6931409e-17
7.6935622e-17
7.6943723e-17
7.7001097e-17
7.6967926e-17
7.6946986e-17
7.6934202e-17
7.692694e-17
7.6923445e-17
7.6922687e-17
7.6924294e-17
7.6928582e-17
7.6936742e-17
7.6997452e-17
7.6964312e-17
7.6943415e-17
7.6930672e-17
7.6923445e-17
7.6919984e-17
7.691926e-17
7.6920906e-17
7.6925233e-17
7.693342e-17
7.6996443e-17
7.6963365e-17
7.6942544e-17
7.6929866e-17
7.6922687e-17
7.691926e-17
7.6918564e-17
7.6920235e-17
7.6924583e-17
7.6932784e-17
7.6997598e-17
7.6964664e-17
7.6943986e-17
7.6931409e-17
7.6924294e-17
7.6920906e-17
7.6920235e-17
7.6921924e-17
7.6926285e-17
7.6934495e-17
7.7001044e-17
7.6968479e-17
7.6948056e-17
7.6935622e-17
7.6928582e-17
7.6925233e-17
7.6924583e-17
7.6926285e-17
7.6930657e-17
7.6938876e-17
7.700756e-17
7.6976073e-17
7.6956016e-17
7.6943723e-17
7.6936742e-17
7.693342e-17