/*--------------------------------*- C++ -*----------------------------------*\
| =========                 |                                                 |
| \\      /  F ield         | OpenFOAM: The Open Source CFD Toolbox           |
|  \\    /   O peration     | Version:  dev                                   |
|   \\  /    A nd           | Web:      www.OpenFOAM.org                      |
|    \\/     M anipulation  |                                                 |
\*---------------------------------------------------------------------------*/
FoamFile
{
    version     2.0;
    format      ascii;
    class       volScalarField;
    location    "83.995";
    object      A;
}
// * * * * * * * * * * * * * * * * * * * * * * * * * * * * * * * * * * * * * //

dimensions      [0 0 0 0 1 0 0];

internalField   nonuniform List<scalar> 
10000
(
1.3875411e-23
1.3861258e-23
1.3853549e-23
1.3849206e-23
1.3846882e-23
1.3845806e-23
1.3845572e-23
1.3846077e-23
1.3847545e-23
1.3850471e-23
1.3861258e-23
1.384716e-23
1.383947e-23
1.3835137e-23
1.383282e-23
1.3831752e-23
1.3831533e-23
1.3832072e-23
1.3833627e-23
1.3836804e-23
1.3853549e-23
1.383947e-23
1.3831793e-23
1.3827468e-23
1.3825158e-23
1.38241e-23
1.3823899e-23
1.3824473e-23
1.3826089e-23
1.3829353e-23
1.3849206e-23
1.3835137e-23
1.3827468e-23
1.382315e-23
1.3820847e-23
1.3819799e-23
1.3819613e-23
1.382021e-23
1.382186e-23
1.3825157e-23
1.3846882e-23
1.383282e-23
1.3825158e-23
1.3820847e-23
1.3818551e-23
1.3817511e-23
1.3817335e-23
1.3817948e-23
1.3819615e-23
1.3822926e-23
1.3845806e-23
1.3831752e-23
1.38241e-23
1.3819799e-23
1.3817511e-23
1.3816477e-23
1.3816309e-23
1.381693e-23
1.3818606e-23
1.3821923e-23
1.3845572e-23
1.3831533e-23
1.3823899e-23
1.3819613e-23
1.3817335e-23
1.3816309e-23
1.3816147e-23
1.3816773e-23
1.3818454e-23
1.3821775e-23
1.3846077e-23
1.3832072e-23
1.3824473e-23
1.382021e-23
1.3817948e-23
1.381693e-23
1.3816773e-23
1.3817403e-23
1.3819087e-23
1.382241e-23
1.3847545e-23
1.3833627e-23
1.3826089e-23
1.382186e-23
1.3819615e-23
1.3818606e-23
1.3818454e-23
1.3819087e-23
1.3820774e-23
1.38241e-23
1.3850471e-23
1.3836804e-23
1.3829353e-23
1.3825157e-23
1.3822926e-23
1.3821923e-23
1.3821775e-23
1.382241e-23
1.38241e-23
1.3827436e-23
4.5976763e-23
4.5931675e-23
4.5906402e-23
4.5892132e-23
4.588449e-23
4.5880949e-23
4.5880176e-23
4.5881829e-23
4.5886646e-23
4.5896596e-23
4.5931675e-23
4.5886761e-23
4.586155e-23
4.584731e-23
4.583969e-23
4.5836175e-23
4.5835452e-23
4.5837218e-23
4.5842325e-23
4.5853109e-23
4.5906402e-23
4.586155e-23
4.5836379e-23
4.5822167e-23
4.581457e-23
4.5811089e-23
4.5810426e-23
4.5812305e-23
4.5817615e-23
4.5828685e-23
4.5892132e-23
4.584731e-23
4.5822167e-23
4.5807977e-23
4.5800403e-23
4.5796953e-23
4.579634e-23
4.5798298e-23
4.5803719e-23
4.58149e-23
4.588449e-23
4.583969e-23
4.581457e-23
4.5800403e-23
4.5792853e-23
4.5789429e-23
4.578885e-23
4.5790857e-23
4.5796336e-23
4.5807563e-23
4.5880949e-23
4.5836175e-23
4.5811089e-23
4.5796953e-23
4.5789429e-23
4.5786028e-23
4.5785474e-23
4.5787509e-23
4.5793017e-23
4.5804264e-23
4.5880176e-23
4.5835452e-23
4.5810426e-23
4.579634e-23
4.578885e-23
4.5785474e-23
4.5784939e-23
4.5786991e-23
4.5792515e-23
4.5803772e-23
4.5881829e-23
4.5837218e-23
4.5812305e-23
4.5798298e-23
4.5790857e-23
4.5787509e-23
4.5786991e-23
4.5789056e-23
4.5794591e-23
4.5805855e-23
4.5886646e-23
4.5842325e-23
4.5817615e-23
4.5803719e-23
4.5796336e-23
4.5793017e-23
4.5792515e-23
4.5794591e-23
4.5800134e-23
4.5811411e-23
4.5896596e-23
4.5853109e-23
4.5828685e-23
4.58149e-23
4.5807563e-23
4.5804264e-23
4.5803772e-23
4.5805855e-23
4.5811411e-23
4.582272e-23
9.2799947e-23
9.2711959e-23
9.2661887e-23
9.263353e-23
9.2618323e-23
9.2611269e-23
9.2609719e-23
9.2612977e-23
9.2622507e-23
9.2642826e-23
9.2711959e-23
9.2624304e-23
9.2574354e-23
9.2546056e-23
9.2530892e-23
9.252389e-23
9.2522438e-23
9.2525925e-23
9.2536039e-23
9.2558039e-23
9.2661887e-23
9.2574354e-23
9.2524484e-23
9.2496239e-23
9.2481123e-23
9.2474189e-23
9.2472858e-23
9.2476571e-23
9.2487092e-23
9.2509669e-23
9.263353e-23
9.2546056e-23
9.2496239e-23
9.246804e-23
9.245297e-23
9.2446098e-23
9.2444866e-23
9.2448739e-23
9.2459484e-23
9.2482282e-23
9.2618323e-23
9.2530892e-23
9.2481123e-23
9.245297e-23
9.2437945e-23
9.2431125e-23
9.2429964e-23
9.2433933e-23
9.2444794e-23
9.2467684e-23
9.2611269e-23
9.252389e-23
9.2474189e-23
9.2446098e-23
9.2431125e-23
9.2424351e-23
9.2423239e-23
9.2427266e-23
9.2438186e-23
9.2461116e-23
9.2609719e-23
9.2522438e-23
9.2472858e-23
9.2444866e-23
9.2429964e-23
9.2423239e-23
9.2422166e-23
9.2426227e-23
9.2437179e-23
9.246013e-23
9.2612977e-23
9.2525925e-23
9.2476571e-23
9.2448739e-23
9.2433933e-23
9.2427266e-23
9.2426227e-23
9.2430314e-23
9.2441286e-23
9.2464251e-23
9.2622507e-23
9.2536039e-23
9.2487092e-23
9.2459484e-23
9.2444794e-23
9.2438186e-23
9.2437179e-23
9.2441286e-23
9.2452277e-23
9.2475266e-23
9.2642826e-23
9.2558039e-23
9.2509669e-23
9.2482282e-23
9.2467684e-23
9.2461116e-23
9.246013e-23
9.2464251e-23
9.2475266e-23
9.2498324e-23
1.7006258e-22
1.6990663e-22
1.6981704e-22
1.6976614e-22
1.6973879e-22
1.6972609e-22
1.6972327e-22
1.6972906e-22
1.6974601e-22
1.6978255e-22
1.6990663e-22
1.6975126e-22
1.6966188e-22
1.6961108e-22
1.6958382e-22
1.6957121e-22
1.6956857e-22
1.6957477e-22
1.6959279e-22
1.696324e-22
1.6981704e-22
1.6966188e-22
1.6957265e-22
1.6952195e-22
1.6949477e-22
1.6948228e-22
1.6947986e-22
1.6948648e-22
1.6950523e-22
1.695459e-22
1.6976614e-22
1.6961108e-22
1.6952195e-22
1.6947133e-22
1.6944423e-22
1.6943186e-22
1.6942962e-22
1.6943652e-22
1.6945569e-22
1.6949676e-22
1.6973879e-22
1.6958382e-22
1.6949477e-22
1.6944423e-22
1.6941721e-22
1.6940494e-22
1.6940283e-22
1.6940991e-22
1.6942928e-22
1.6947052e-22
1.6972609e-22
1.6957121e-22
1.6948228e-22
1.6943186e-22
1.6940494e-22
1.6939274e-22
1.6939072e-22
1.693979e-22
1.6941739e-22
1.694587e-22
1.6972327e-22
1.6956857e-22
1.6947986e-22
1.6942962e-22
1.6940283e-22
1.6939072e-22
1.6938877e-22
1.6939602e-22
1.6941556e-22
1.6945691e-22
1.6972906e-22
1.6957477e-22
1.6948648e-22
1.6943652e-22
1.6940991e-22
1.693979e-22
1.6939602e-22
1.6940331e-22
1.6942289e-22
1.6946426e-22
1.6974601e-22
1.6959279e-22
1.6950523e-22
1.6945569e-22
1.6942928e-22
1.6941739e-22
1.6941556e-22
1.6942289e-22
1.694425e-22
1.6948392e-22
1.6978255e-22
1.696324e-22
1.695459e-22
1.6949676e-22
1.6947052e-22
1.694587e-22
1.6945691e-22
1.6946426e-22
1.6948392e-22
1.6952546e-22
3.0496141e-22
3.04691e-22
3.0453463e-22
3.044455e-22
3.0439754e-22
3.0437522e-22
3.0437021e-22
3.0438021e-22
3.0440952e-22
3.0447272e-22
3.04691e-22
3.0442159e-22
3.0426559e-22
3.0417665e-22
3.0412881e-22
3.0410666e-22
3.0410198e-22
3.0411271e-22
3.0414392e-22
3.0421261e-22
3.0453463e-22
3.0426559e-22
3.0410984e-22
3.0402106e-22
3.0397338e-22
3.0395144e-22
3.0394715e-22
3.0395862e-22
3.0399115e-22
3.040617e-22
3.044455e-22
3.0417665e-22
3.0402106e-22
3.0393242e-22
3.0388489e-22
3.0386315e-22
3.0385918e-22
3.0387117e-22
3.0390442e-22
3.039757e-22
3.0439754e-22
3.0412881e-22
3.0397338e-22
3.0388489e-22
3.038375e-22
3.0381593e-22
3.0381219e-22
3.0382449e-22
3.0385812e-22
3.0392969e-22
3.0437522e-22
3.0410666e-22
3.0395144e-22
3.0386315e-22
3.0381593e-22
3.0379451e-22
3.0379093e-22
3.0380341e-22
3.0383723e-22
3.0390894e-22
3.0437021e-22
3.0410198e-22
3.0394715e-22
3.0385918e-22
3.0381219e-22
3.0379093e-22
3.0378747e-22
3.0380006e-22
3.0383399e-22
3.0390576e-22
3.0438021e-22
3.0411271e-22
3.0395862e-22
3.0387117e-22
3.0382449e-22
3.0380341e-22
3.0380006e-22
3.0381274e-22
3.0384673e-22
3.0391855e-22
3.0440952e-22
3.0414392e-22
3.0399115e-22
3.0390442e-22
3.0385812e-22
3.0383723e-22
3.0383399e-22
3.0384673e-22
3.0388078e-22
3.0395267e-22
3.0447272e-22
3.0421261e-22
3.040617e-22
3.039757e-22
3.0392969e-22
3.0390894e-22
3.0390576e-22
3.0391855e-22
3.0395267e-22
3.0402478e-22
5.4680982e-22
5.4634119e-22
5.4606875e-22
5.4591299e-22
5.4582901e-22
5.4578986e-22
5.4578099e-22
5.4579821e-22
5.4584869e-22
5.4595703e-22
5.4634119e-22
5.4587429e-22
5.4560249e-22
5.4544704e-22
5.4536328e-22
5.4532443e-22
5.4531613e-22
5.4533466e-22
5.4538853e-22
5.4550666e-22
5.4606875e-22
5.4560249e-22
5.4533111e-22
5.4517595e-22
5.4509247e-22
5.45054e-22
5.4504639e-22
5.4506623e-22
5.4512244e-22
5.4524391e-22
5.4591299e-22
5.4544704e-22
5.4517595e-22
5.4502105e-22
5.4493782e-22
5.4489971e-22
5.4489267e-22
5.4491343e-22
5.4497093e-22
5.4509368e-22
5.4582901e-22
5.4536328e-22
5.4509247e-22
5.4493782e-22
5.4485485e-22
5.4481703e-22
5.4481039e-22
5.4483171e-22
5.4488989e-22
5.4501316e-22
5.4578986e-22
5.4532443e-22
5.45054e-22
5.4489971e-22
5.4481703e-22
5.4477948e-22
5.4477313e-22
5.4479477e-22
5.4485328e-22
5.4497679e-22
5.4578099e-22
5.4531613e-22
5.4504639e-22
5.4489267e-22
5.4481039e-22
5.4477313e-22
5.44767e-22
5.4478884e-22
5.4484753e-22
5.4497116e-22
5.4579821e-22
5.4533466e-22
5.4506623e-22
5.4491343e-22
5.4483171e-22
5.4479477e-22
5.4478884e-22
5.4481082e-22
5.4486963e-22
5.4499334e-22
5.4584869e-22
5.4538853e-22
5.4512244e-22
5.4497093e-22
5.4488989e-22
5.4485328e-22
5.4484753e-22
5.4486963e-22
5.4492854e-22
5.4505238e-22
5.4595703e-22
5.4550666e-22
5.4524391e-22
5.4509368e-22
5.4501316e-22
5.4497679e-22
5.4497116e-22
5.4499334e-22
5.4505238e-22
5.4517658e-22
9.8710268e-22
9.8628539e-22
9.8580798e-22
9.8553422e-22
9.8538632e-22
9.8531727e-22
9.8530145e-22
9.8533128e-22
9.8541863e-22
9.8560486e-22
9.8628539e-22
9.8547107e-22
9.8499478e-22
9.8472156e-22
9.8457406e-22
9.8450553e-22
9.8449073e-22
9.8452291e-22
9.8461633e-22
9.8482013e-22
9.8580798e-22
9.8499478e-22
9.8451922e-22
9.8424651e-22
9.8409949e-22
9.8403164e-22
9.8401808e-22
9.840526e-22
9.8415022e-22
9.8436001e-22
9.8553422e-22
9.8472156e-22
9.8424651e-22
9.8397424e-22
9.8382768e-22
9.8376047e-22
9.8374793e-22
9.8378408e-22
9.8388402e-22
9.840961e-22
9.8538632e-22
9.8457406e-22
9.8409949e-22
9.8382768e-22
9.8368158e-22
9.836149e-22
9.8360307e-22
9.8364022e-22
9.8374136e-22
9.8395439e-22
9.8531727e-22
9.8450553e-22
9.8403164e-22
9.8376047e-22
9.836149e-22
9.8354869e-22
9.8353737e-22
9.835751e-22
9.8367684e-22
9.8389029e-22
9.8530145e-22
9.8449073e-22
9.8401808e-22
9.8374793e-22
9.8360307e-22
9.8353737e-22
9.8352645e-22
9.8356454e-22
9.8366659e-22
9.8388026e-22
9.8533128e-22
9.8452291e-22
9.840526e-22
9.8378408e-22
9.8364022e-22
9.835751e-22
9.8356454e-22
9.8360288e-22
9.8370514e-22
9.8391895e-22
9.8541863e-22
9.8461633e-22
9.8415022e-22
9.8388402e-22
9.8374136e-22
9.8367684e-22
9.8366659e-22
9.8370514e-22
9.8380759e-22
9.8402161e-22
9.8560486e-22
9.8482013e-22
9.8436001e-22
9.840961e-22
9.8395439e-22
9.8389029e-22
9.8388026e-22
9.8391895e-22
9.8402161e-22
9.8423626e-22
1.7980102e-21
1.7965726e-21
1.795729e-21
1.7952439e-21
1.7949813e-21
1.7948585e-21
1.7948301e-21
1.7948821e-21
1.7950345e-21
1.7953569e-21
1.7965726e-21
1.7951402e-21
1.7942985e-21
1.7938143e-21
1.7935524e-21
1.7934306e-21
1.793404e-21
1.7934603e-21
1.7936236e-21
1.7939779e-21
1.795729e-21
1.7942985e-21
1.7934582e-21
1.7929749e-21
1.7927139e-21
1.7925932e-21
1.7925689e-21
1.7926294e-21
1.7928003e-21
1.7931654e-21
1.7952439e-21
1.7938143e-21
1.7929749e-21
1.7924924e-21
1.7922322e-21
1.7921127e-21
1.7920902e-21
1.7921537e-21
1.7923288e-21
1.792698e-21
1.7949813e-21
1.7935524e-21
1.7927139e-21
1.7922322e-21
1.7919728e-21
1.7918542e-21
1.791833e-21
1.7918983e-21
1.7920756e-21
1.7924465e-21
1.7948585e-21
1.7934306e-21
1.7925932e-21
1.7921127e-21
1.7918542e-21
1.7917365e-21
1.7917162e-21
1.7917826e-21
1.7919609e-21
1.7923326e-21
1.7948301e-21
1.793404e-21
1.7925689e-21
1.7920902e-21
1.791833e-21
1.7917162e-21
1.7916966e-21
1.7917636e-21
1.7919425e-21
1.7923146e-21
1.7948821e-21
1.7934603e-21
1.7926294e-21
1.7921537e-21
1.7918983e-21
1.7917826e-21
1.7917636e-21
1.7918311e-21
1.7920103e-21
1.7923826e-21
1.7950345e-21
1.7936236e-21
1.7928003e-21
1.7923288e-21
1.7920756e-21
1.7919609e-21
1.7919425e-21
1.7920103e-21
1.7921899e-21
1.7925626e-21
1.7953569e-21
1.7939779e-21
1.7931654e-21
1.792698e-21
1.7924465e-21
1.7923326e-21
1.7923146e-21
1.7923826e-21
1.7925626e-21
1.7929364e-21
3.307111e-21
3.3045585e-21
3.3030543e-21
3.3021866e-21
3.301716e-21
3.3014956e-21
3.3014441e-21
3.3015359e-21
3.3018041e-21
3.3023673e-21
3.3045585e-21
3.3020152e-21
3.3005143e-21
3.2996484e-21
3.2991791e-21
3.2989603e-21
3.2989122e-21
3.2990117e-21
3.2992999e-21
3.2999212e-21
3.3030543e-21
3.3005143e-21
3.2990158e-21
3.2981514e-21
3.2976836e-21
3.2974671e-21
3.297423e-21
3.2975302e-21
3.2978323e-21
3.2984733e-21
3.3021866e-21
3.2996484e-21
3.2981514e-21
3.2972884e-21
3.2968222e-21
3.2966077e-21
3.296567e-21
3.2966796e-21
3.2969892e-21
3.2976378e-21
3.301716e-21
3.2991791e-21
3.2976836e-21
3.2968222e-21
3.2963574e-21
3.2961447e-21
3.2961063e-21
3.2962222e-21
3.2965357e-21
3.2971874e-21
3.3014956e-21
3.2989603e-21
3.2974671e-21
3.2966077e-21
3.2961447e-21
3.2959336e-21
3.2958968e-21
3.2960146e-21
3.2963301e-21
3.2969832e-21
3.3014441e-21
3.2989122e-21
3.297423e-21
3.296567e-21
3.2961063e-21
3.2958968e-21
3.2958613e-21
3.2959803e-21
3.2962969e-21
3.2969507e-21
3.3015359e-21
3.2990117e-21
3.2975302e-21
3.2966796e-21
3.2962222e-21
3.2960146e-21
3.2959803e-21
3.2961e-21
3.2964173e-21
3.2970715e-21
3.3018041e-21
3.2992999e-21
3.2978323e-21
3.2969892e-21
3.2965357e-21
3.2963301e-21
3.2962969e-21
3.2964173e-21
3.2967351e-21
3.29739e-21
3.3023673e-21
3.2999212e-21
3.2984733e-21
3.2976378e-21
3.2971874e-21
3.2969832e-21
3.2969507e-21
3.2970715e-21
3.29739e-21
3.2980468e-21
6.1439634e-21
6.1393881e-21
6.1366799e-21
6.1351134e-21
6.1342623e-21
6.1338629e-21
6.1337688e-21
6.1339321e-21
6.1344088e-21
6.1354018e-21
6.1393881e-21
6.1348289e-21
6.1321268e-21
6.1305633e-21
6.1297145e-21
6.1293183e-21
6.1292302e-21
6.1294078e-21
6.1299213e-21
6.1310214e-21
6.1366799e-21
6.1321268e-21
6.1294289e-21
6.1278683e-21
6.1270222e-21
6.12663e-21
6.1265495e-21
6.1267412e-21
6.1272801e-21
6.1284167e-21
6.1351134e-21
6.1305633e-21
6.1278683e-21
6.1263102e-21
6.1254669e-21
6.1250785e-21
6.1250041e-21
6.1252057e-21
6.1257586e-21
6.1269091e-21
6.1342623e-21
6.1297145e-21
6.1270222e-21
6.1254669e-21
6.1246263e-21
6.1242411e-21
6.124171e-21
6.1243786e-21
6.1249387e-21
6.126095e-21
6.1338629e-21
6.1293183e-21
6.12663e-21
6.1250785e-21
6.1242411e-21
6.1238588e-21
6.1237917e-21
6.1240028e-21
6.1245666e-21
6.1257254e-21
6.1337688e-21
6.1292302e-21
6.1265495e-21
6.1250041e-21
6.124171e-21
6.1237917e-21
6.123727e-21
6.1239402e-21
6.1245059e-21
6.125666e-21
6.1339321e-21
6.1294078e-21
6.1267412e-21
6.1252057e-21
6.1243786e-21
6.1240028e-21
6.1239402e-21
6.124155e-21
6.1247219e-21
6.1258828e-21
6.1344088e-21
6.1299213e-21
6.1272801e-21
6.1257586e-21
6.1249387e-21
6.1245666e-21
6.1245059e-21
6.1247219e-21
6.1252899e-21
6.1264519e-21
6.1354018e-21
6.1310214e-21
6.1284167e-21
6.1269091e-21
6.126095e-21
6.1257254e-21
6.125666e-21
6.1258828e-21
6.1264519e-21
6.1276173e-21
1.1530343e-20
1.1522062e-20
1.151714e-20
1.1514284e-20
1.151273e-20
1.1512e-20
1.1511826e-20
1.1512119e-20
1.1512975e-20
1.1514743e-20
1.1522062e-20
1.151381e-20
1.1508898e-20
1.1506048e-20
1.1504498e-20
1.1503774e-20
1.1503611e-20
1.1503931e-20
1.1504855e-20
1.1506823e-20
1.151714e-20
1.1508898e-20
1.1503994e-20
1.1501149e-20
1.1499604e-20
1.1498887e-20
1.1498739e-20
1.1499085e-20
1.1500056e-20
1.1502092e-20
1.1514284e-20
1.1506048e-20
1.1501149e-20
1.1498309e-20
1.1496769e-20
1.1496059e-20
1.1495922e-20
1.1496287e-20
1.1497284e-20
1.1499345e-20
1.151273e-20
1.1504498e-20
1.1499604e-20
1.1496769e-20
1.1495235e-20
1.149453e-20
1.1494401e-20
1.1494777e-20
1.1495788e-20
1.1497859e-20
1.1512e-20
1.1503774e-20
1.1498887e-20
1.1496059e-20
1.149453e-20
1.1493831e-20
1.1493708e-20
1.149409e-20
1.1495108e-20
1.1497184e-20
1.1511826e-20
1.1503611e-20
1.1498739e-20
1.1495922e-20
1.1494401e-20
1.1493708e-20
1.1493589e-20
1.1493975e-20
1.1494996e-20
1.1497075e-20
1.1512119e-20
1.1503931e-20
1.1499085e-20
1.1496287e-20
1.1494777e-20
1.149409e-20
1.1493975e-20
1.1494364e-20
1.1495387e-20
1.1497468e-20
1.1512975e-20
1.1504855e-20
1.1500056e-20
1.1497284e-20
1.1495788e-20
1.1495108e-20
1.1494996e-20
1.1495387e-20
1.1496412e-20
1.1498495e-20
1.1514743e-20
1.1506823e-20
1.1502092e-20
1.1499345e-20
1.1497859e-20
1.1497184e-20
1.1497075e-20
1.1497468e-20
1.1498495e-20
1.1500583e-20
2.1860403e-20
2.1845268e-20
2.1836233e-20
2.1830978e-20
2.1828112e-20
2.1826763e-20
2.182644e-20
2.1826973e-20
2.1828524e-20
2.1831703e-20
2.1845268e-20
2.1830185e-20
2.1821171e-20
2.1815925e-20
2.1813067e-20
2.1811729e-20
2.1811427e-20
2.181201e-20
2.1813689e-20
2.1817243e-20
2.1836233e-20
2.1821171e-20
2.1812169e-20
2.1806934e-20
2.1804085e-20
2.1802761e-20
2.1802485e-20
2.1803117e-20
2.1804885e-20
2.1808566e-20
2.1830978e-20
2.1815925e-20
2.1806934e-20
2.1801707e-20
2.1798867e-20
2.1797556e-20
2.1797302e-20
2.1797968e-20
2.1799785e-20
2.1803514e-20
2.1828112e-20
2.1813067e-20
2.1804085e-20
2.1798867e-20
2.1796037e-20
2.1794738e-20
2.1794498e-20
2.1795185e-20
2.1797027e-20
2.1800776e-20
2.1826763e-20
2.1811729e-20
2.1802761e-20
2.1797556e-20
2.1794738e-20
2.1793448e-20
2.1793218e-20
2.1793918e-20
2.1795772e-20
2.1799531e-20
2.182644e-20
2.1811427e-20
2.1802485e-20
2.1797302e-20
2.1794498e-20
2.1793218e-20
2.1792997e-20
2.1793704e-20
2.1795565e-20
2.1799328e-20
2.1826973e-20
2.181201e-20
2.1803117e-20
2.1797968e-20
2.1795185e-20
2.1793918e-20
2.1793704e-20
2.1794416e-20
2.1796281e-20
2.1800047e-20
2.1828524e-20
2.1813689e-20
2.1804885e-20
2.1799785e-20
2.1797027e-20
2.1795772e-20
2.1795565e-20
2.1796281e-20
2.179815e-20
2.180192e-20
2.1831703e-20
2.1817243e-20
2.1808566e-20
2.1803514e-20
2.1800776e-20
2.1799531e-20
2.1799328e-20
2.1800047e-20
2.180192e-20
2.1805699e-20
4.1871271e-20
4.1843338e-20
4.1826595e-20
4.1816829e-20
4.1811493e-20
4.1808979e-20
4.1808372e-20
4.1809349e-20
4.1812188e-20
4.1817961e-20
4.1843338e-20
4.1815502e-20
4.1798795e-20
4.1789047e-20
4.1783726e-20
4.1781232e-20
4.1780664e-20
4.1781736e-20
4.178482e-20
4.1791303e-20
4.1826595e-20
4.1798795e-20
4.1782113e-20
4.1772383e-20
4.1767079e-20
4.1764612e-20
4.1764093e-20
4.1765258e-20
4.176851e-20
4.1775234e-20
4.1816829e-20
4.1789047e-20
4.1772383e-20
4.1762669e-20
4.1757383e-20
4.175494e-20
4.1754462e-20
4.1755692e-20
4.1759036e-20
4.1765853e-20
4.1811493e-20
4.1783726e-20
4.1767079e-20
4.1757383e-20
4.1752115e-20
4.1749693e-20
4.1749244e-20
4.1750513e-20
4.1753904e-20
4.1760759e-20
4.1808979e-20
4.1781232e-20
4.1764612e-20
4.175494e-20
4.1749693e-20
4.174729e-20
4.174686e-20
4.1748152e-20
4.1751567e-20
4.1758439e-20
4.1808372e-20
4.1780664e-20
4.1764093e-20
4.1754462e-20
4.1749244e-20
4.174686e-20
4.1746446e-20
4.1747752e-20
4.175118e-20
4.175806e-20
4.1809349e-20
4.1781736e-20
4.1765258e-20
4.1755692e-20
4.1750513e-20
4.1748152e-20
4.1747752e-20
4.1749069e-20
4.1752504e-20
4.1759389e-20
4.1812188e-20
4.178482e-20
4.176851e-20
4.1759036e-20
4.1753904e-20
4.1751567e-20
4.175118e-20
4.1752504e-20
4.1755946e-20
4.1762838e-20
4.1817961e-20
4.1791303e-20
4.1775234e-20
4.1765853e-20
4.1760759e-20
4.1758439e-20
4.175806e-20
4.1759389e-20
4.1762838e-20
4.1769749e-20
8.1027225e-20
8.0975166e-20
8.0943833e-20
8.0925507e-20
8.0915479e-20
8.0910746e-20
8.0909595e-20
8.0911406e-20
8.0916656e-20
8.0927243e-20
8.0975166e-20
8.0923286e-20
8.089202e-20
8.0873728e-20
8.0863726e-20
8.0859032e-20
8.0857958e-20
8.0859949e-20
8.0865667e-20
8.0877616e-20
8.0943833e-20
8.089202e-20
8.0860801e-20
8.0842543e-20
8.0832574e-20
8.0827931e-20
8.0826949e-20
8.0829119e-20
8.0835158e-20
8.0847569e-20
8.0925507e-20
8.0873728e-20
8.0842543e-20
8.0824315e-20
8.0814381e-20
8.0809784e-20
8.080888e-20
8.0811173e-20
8.0817389e-20
8.0829977e-20
8.0915479e-20
8.0863726e-20
8.0832574e-20
8.0814381e-20
8.0804479e-20
8.0799922e-20
8.0799073e-20
8.0801441e-20
8.0807748e-20
8.0820409e-20
8.0910746e-20
8.0859032e-20
8.0827931e-20
8.0809784e-20
8.0799922e-20
8.0795401e-20
8.0794589e-20
8.0797002e-20
8.0803354e-20
8.0816047e-20
8.0909595e-20
8.0857958e-20
8.0826949e-20
8.080888e-20
8.0799073e-20
8.0794589e-20
8.0793807e-20
8.0796247e-20
8.0802623e-20
8.0815331e-20
8.0911406e-20
8.0859949e-20
8.0829119e-20
8.0811173e-20
8.0801441e-20
8.0797002e-20
8.0796247e-20
8.0798705e-20
8.0805096e-20
8.0817815e-20
8.0916656e-20
8.0865667e-20
8.0835158e-20
8.0817389e-20
8.0807748e-20
8.0803354e-20
8.0802623e-20
8.0805096e-20
8.08115e-20
8.0824231e-20
8.0927243e-20
8.0877616e-20
8.0847569e-20
8.0829977e-20
8.0820409e-20
8.0816047e-20
8.0815331e-20
8.0817815e-20
8.0824231e-20
8.0836997e-20
1.584212e-19
1.5832323e-19
1.5826402e-19
1.582293e-19
1.5821026e-19
1.5820127e-19
1.5819907e-19
1.5820246e-19
1.5821227e-19
1.5823188e-19
1.5832323e-19
1.5822559e-19
1.581665e-19
1.5813184e-19
1.5811286e-19
1.5810394e-19
1.5810189e-19
1.5810562e-19
1.5811634e-19
1.5813858e-19
1.5826402e-19
1.581665e-19
1.5810751e-19
1.5807291e-19
1.5805399e-19
1.5804517e-19
1.580433e-19
1.5804738e-19
1.5805871e-19
1.5808185e-19
1.582293e-19
1.5813184e-19
1.5807291e-19
1.5803838e-19
1.5801952e-19
1.5801079e-19
1.5800906e-19
1.5801339e-19
1.5802506e-19
1.5804854e-19
1.5821026e-19
1.5811286e-19
1.5805399e-19
1.5801952e-19
1.5800073e-19
1.5799208e-19
1.5799045e-19
1.5799492e-19
1.5800677e-19
1.5803039e-19
1.5820127e-19
1.5810394e-19
1.5804517e-19
1.5801079e-19
1.5799208e-19
1.5798349e-19
1.5798194e-19
1.5798649e-19
1.5799843e-19
1.5802211e-19
1.5819907e-19
1.5810189e-19
1.580433e-19
1.5800906e-19
1.5799045e-19
1.5798194e-19
1.5798045e-19
1.5798505e-19
1.5799704e-19
1.5802075e-19
1.5820246e-19
1.5810562e-19
1.5804738e-19
1.5801339e-19
1.5799492e-19
1.5798649e-19
1.5798505e-19
1.5798969e-19
1.5800171e-19
1.5802544e-19
1.5821227e-19
1.5811634e-19
1.5805871e-19
1.5802506e-19
1.5800677e-19
1.5799843e-19
1.5799704e-19
1.5800171e-19
1.5801374e-19
1.580375e-19
1.5823188e-19
1.5813858e-19
1.5808185e-19
1.5804854e-19
1.5803039e-19
1.5802211e-19
1.5802075e-19
1.5802544e-19
1.580375e-19
1.5806132e-19
3.1294635e-19
3.1276014e-19
3.1264716e-19
3.1258073e-19
3.1254426e-19
3.12527e-19
3.1252275e-19
3.1252916e-19
3.1254767e-19
3.1258436e-19
3.1276014e-19
3.1257456e-19
3.1246182e-19
3.1239551e-19
3.1235913e-19
3.1234202e-19
3.1233806e-19
3.1234515e-19
3.1236542e-19
3.1240726e-19
3.1264716e-19
3.1246182e-19
3.1234925e-19
3.1228306e-19
3.1224681e-19
3.1222988e-19
3.1222627e-19
3.1223403e-19
3.1225551e-19
3.122991e-19
3.1258073e-19
3.1239551e-19
3.1228306e-19
3.1221699e-19
3.1218086e-19
3.1216411e-19
3.1216079e-19
3.1216901e-19
3.1219116e-19
3.1223541e-19
3.1254426e-19
3.1235913e-19
3.1224681e-19
3.1218086e-19
3.1214485e-19
3.1212825e-19
3.1212513e-19
3.1213364e-19
3.1215614e-19
3.1220066e-19
3.12527e-19
3.1234202e-19
3.1222988e-19
3.1216411e-19
3.1212825e-19
3.1211179e-19
3.1210881e-19
3.1211749e-19
3.1214015e-19
3.121848e-19
3.1252275e-19
3.1233806e-19
3.1222627e-19
3.1216079e-19
3.1212513e-19
3.1210881e-19
3.1210594e-19
3.1211472e-19
3.1213747e-19
3.1218218e-19
3.1252916e-19
3.1234515e-19
3.1223403e-19
3.1216901e-19
3.1213364e-19
3.1211749e-19
3.1211472e-19
3.1212357e-19
3.1214638e-19
3.1219112e-19
3.1254767e-19
3.1236542e-19
3.1225551e-19
3.1219116e-19
3.1215614e-19
3.1214015e-19
3.1213747e-19
3.1214638e-19
3.1216923e-19
3.1221402e-19
3.1258436e-19
3.1240726e-19
3.122991e-19
3.1223541e-19
3.1220066e-19
3.121848e-19
3.1218218e-19
3.1219112e-19
3.1221402e-19
3.1225892e-19
6.246018e-19
6.2424443e-19
6.2402675e-19
6.2389843e-19
6.2382785e-19
6.2379442e-19
6.2378614e-19
6.2379839e-19
6.2383367e-19
6.23903e-19
6.2424443e-19
6.2388827e-19
6.2367104e-19
6.2354295e-19
6.2347256e-19
6.234394e-19
6.2343169e-19
6.2344528e-19
6.2348404e-19
6.2356353e-19
6.2402675e-19
6.2367104e-19
6.2345413e-19
6.2332627e-19
6.2325612e-19
6.2322334e-19
6.2321632e-19
6.2323123e-19
6.2327237e-19
6.2335531e-19
6.2389843e-19
6.2354295e-19
6.2332627e-19
6.2319864e-19
6.2312873e-19
6.230963e-19
6.2308984e-19
6.2310567e-19
6.2314813e-19
6.2323237e-19
6.2382785e-19
6.2347256e-19
6.2325612e-19
6.2312873e-19
6.2305907e-19
6.2302693e-19
6.2302087e-19
6.2303726e-19
6.2308039e-19
6.2316518e-19
6.2379442e-19
6.234394e-19
6.2322334e-19
6.230963e-19
6.2302693e-19
6.2299505e-19
6.2298927e-19
6.2300598e-19
6.2304945e-19
6.2313448e-19
6.2378614e-19
6.2343169e-19
6.2321632e-19
6.2308984e-19
6.2302087e-19
6.2298927e-19
6.2298372e-19
6.2300063e-19
6.2304427e-19
6.2312942e-19
6.2379839e-19
6.2344528e-19
6.2323123e-19
6.2310567e-19
6.2303726e-19
6.2300598e-19
6.2300063e-19
6.2301768e-19
6.2306143e-19
6.2314664e-19
6.2383367e-19
6.2348404e-19
6.2327237e-19
6.2314813e-19
6.2308039e-19
6.2304945e-19
6.2304427e-19
6.2306143e-19
6.2310526e-19
6.2319057e-19
6.23903e-19
6.2356353e-19
6.2335531e-19
6.2323237e-19
6.2316518e-19
6.2313448e-19
6.2312942e-19
6.2314664e-19
6.2319057e-19
6.2327609e-19
1.2595386e-18
1.258846e-18
1.2584225e-18
1.2581723e-18
1.2580344e-18
1.257969e-18
1.2579527e-18
1.2579764e-18
1.2580443e-18
1.2581766e-18
1.258846e-18
1.2581558e-18
1.2577332e-18
1.2574833e-18
1.2573458e-18
1.257281e-18
1.2572658e-18
1.2572921e-18
1.257367e-18
1.2575196e-18
1.2584225e-18
1.2577332e-18
1.2573111e-18
1.2570618e-18
1.2569247e-18
1.2568606e-18
1.2568468e-18
1.2568758e-18
1.2569554e-18
1.2571148e-18
1.2581723e-18
1.2574833e-18
1.2570618e-18
1.2568128e-18
1.2566762e-18
1.2566128e-18
1.2566002e-18
1.256631e-18
1.2567132e-18
1.2568752e-18
1.2580344e-18
1.2573458e-18
1.2569247e-18
1.2566762e-18
1.2565402e-18
1.2564773e-18
1.2564655e-18
1.2564974e-18
1.2565809e-18
1.256744e-18
1.257969e-18
1.257281e-18
1.2568606e-18
1.2566128e-18
1.2564773e-18
1.256415e-18
1.2564037e-18
1.2564362e-18
1.2565205e-18
1.2566841e-18
1.2579527e-18
1.2572658e-18
1.2568468e-18
1.2566002e-18
1.2564655e-18
1.2564037e-18
1.2563929e-18
1.2564258e-18
1.2565104e-18
1.2566742e-18
1.2579764e-18
1.2572921e-18
1.2568758e-18
1.256631e-18
1.2564974e-18
1.2564362e-18
1.2564258e-18
1.256459e-18
1.2565438e-18
1.2567077e-18
1.2580443e-18
1.257367e-18
1.2569554e-18
1.2567132e-18
1.2565809e-18
1.2565205e-18
1.2565104e-18
1.2565438e-18
1.2566287e-18
1.2567929e-18
1.2581766e-18
1.2575196e-18
1.2571148e-18
1.2568752e-18
1.256744e-18
1.2566841e-18
1.2566742e-18
1.2567077e-18
1.2567929e-18
1.2569574e-18
2.5661859e-18
2.5648306e-18
2.5639987e-18
2.5635058e-18
2.5632338e-18
2.5631047e-18
2.5630725e-18
2.5631186e-18
2.5632507e-18
2.5635059e-18
2.5648306e-18
2.5634798e-18
2.5626496e-18
2.5621576e-18
2.5618863e-18
2.5617583e-18
2.5617283e-18
2.5617798e-18
2.5619258e-18
2.5622217e-18
2.5639987e-18
2.5626496e-18
2.5618206e-18
2.5613294e-18
2.5610591e-18
2.5609326e-18
2.5609054e-18
2.5609621e-18
2.5611177e-18
2.5614273e-18
2.5635058e-18
2.5621576e-18
2.5613294e-18
2.5608392e-18
2.5605698e-18
2.5604447e-18
2.5604197e-18
2.5604801e-18
2.5606409e-18
2.5609558e-18
2.5632338e-18
2.5618863e-18
2.5610591e-18
2.5605698e-18
2.5603015e-18
2.5601775e-18
2.5601541e-18
2.5602167e-18
2.5603802e-18
2.5606973e-18
2.5631047e-18
2.5617583e-18
2.5609326e-18
2.5604447e-18
2.5601775e-18
2.5600545e-18
2.5600323e-18
2.5600962e-18
2.560261e-18
2.5605791e-18
2.5630725e-18
2.5617283e-18
2.5609054e-18
2.5604197e-18
2.5601541e-18
2.5600323e-18
2.5600109e-18
2.5600756e-18
2.5602411e-18
2.5605596e-18
2.5631186e-18
2.5617798e-18
2.5609621e-18
2.5604801e-18
2.5602167e-18
2.5600962e-18
2.5600756e-18
2.5601409e-18
2.5603068e-18
2.5606256e-18
2.5632507e-18
2.5619258e-18
2.5611177e-18
2.5606409e-18
2.5603802e-18
2.560261e-18
2.5602411e-18
2.5603068e-18
2.5604732e-18
2.5607922e-18
2.5635059e-18
2.5622217e-18
2.5614273e-18
2.5609558e-18
2.5606973e-18
2.5605791e-18
2.5605596e-18
2.5606256e-18
2.5607922e-18
2.5611121e-18
5.2822822e-18
5.2796043e-18
5.2779543e-18
5.2769743e-18
5.2764327e-18
5.2761754e-18
5.2761108e-18
5.2762018e-18
5.2764614e-18
5.2769582e-18
5.2796043e-18
5.2769352e-18
5.2752885e-18
5.2743103e-18
5.2737701e-18
5.273515e-18
5.273455e-18
5.2735568e-18
5.2738447e-18
5.2744242e-18
5.2779543e-18
5.2752885e-18
5.2736443e-18
5.2726678e-18
5.2721295e-18
5.2718774e-18
5.271823e-18
5.2719355e-18
5.2722427e-18
5.2728502e-18
5.2769743e-18
5.2743103e-18
5.2726678e-18
5.271693e-18
5.2711567e-18
5.2709074e-18
5.2708576e-18
5.2709775e-18
5.2712953e-18
5.2719134e-18
5.2764327e-18
5.2737701e-18
5.2721295e-18
5.2711567e-18
5.2706224e-18
5.2703754e-18
5.2703288e-18
5.2704532e-18
5.2707765e-18
5.271399e-18
5.2761754e-18
5.273515e-18
5.2718774e-18
5.2709074e-18
5.2703754e-18
5.2701305e-18
5.2700862e-18
5.2702132e-18
5.2705392e-18
5.2711637e-18
5.2761108e-18
5.273455e-18
5.271823e-18
5.2708576e-18
5.2703288e-18
5.2700862e-18
5.2700436e-18
5.2701723e-18
5.2704997e-18
5.2711251e-18
5.2762018e-18
5.2735568e-18
5.2719355e-18
5.2709775e-18
5.2704532e-18
5.2702132e-18
5.2701723e-18
5.270302e-18
5.2706303e-18
5.2712562e-18
5.2764614e-18
5.2738447e-18
5.2722427e-18
5.2712953e-18
5.2707765e-18
5.2705392e-18
5.2704997e-18
5.2706303e-18
5.2709592e-18
5.2715858e-18
5.2769582e-18
5.2744242e-18
5.2728502e-18
5.2719134e-18
5.271399e-18
5.2711637e-18
5.2711251e-18
5.2712562e-18
5.2715858e-18
5.272214e-18
1.0984875e-17
1.0979533e-17
1.0976229e-17
1.0974262e-17
1.0973173e-17
1.0972656e-17
1.0972525e-17
1.0972707e-17
1.0973222e-17
1.0974199e-17
1.0979533e-17
1.0974208e-17
1.0970911e-17
1.0968947e-17
1.0967862e-17
1.0967348e-17
1.0967227e-17
1.0967431e-17
1.0968004e-17
1.096915e-17
1.0976229e-17
1.0970911e-17
1.0967618e-17
1.0965658e-17
1.0964577e-17
1.0964069e-17
1.096396e-17
1.0964185e-17
1.0964798e-17
1.0966002e-17
1.0974262e-17
1.0968947e-17
1.0965658e-17
1.0963702e-17
1.0962624e-17
1.0962122e-17
1.0962022e-17
1.0962263e-17
1.0962897e-17
1.0964123e-17
1.0973173e-17
1.0967862e-17
1.0964577e-17
1.0962624e-17
1.096155e-17
1.0961053e-17
1.096096e-17
1.0961209e-17
1.0961855e-17
1.096309e-17
1.0972656e-17
1.0967348e-17
1.0964069e-17
1.0962122e-17
1.0961053e-17
1.0960561e-17
1.0960472e-17
1.0960727e-17
1.0961378e-17
1.0962617e-17
1.0972525e-17
1.0967227e-17
1.096396e-17
1.0962022e-17
1.096096e-17
1.0960472e-17
1.0960387e-17
1.0960645e-17
1.0961299e-17
1.096254e-17
1.0972707e-17
1.0967431e-17
1.0964185e-17
1.0962263e-17
1.0961209e-17
1.0960727e-17
1.0960645e-17
1.0960905e-17
1.0961561e-17
1.0962803e-17
1.0973222e-17
1.0968004e-17
1.0964798e-17
1.0962897e-17
1.0961855e-17
1.0961378e-17
1.0961299e-17
1.0961561e-17
1.0962219e-17
1.0963462e-17
1.0974199e-17
1.096915e-17
1.0966002e-17
1.0964123e-17
1.096309e-17
1.0962617e-17
1.096254e-17