/*--------------------------------*- C++ -*----------------------------------*\
| =========                 |                                                 |
| \\      /  F ield         | OpenFOAM: The Open Source CFD Toolbox           |
|  \\    /   O peration     | Version:  dev                                   |
|   \\  /    A nd           | Web:      www.OpenFOAM.org                      |
|    \\/     M anipulation  |                                                 |
\*---------------------------------------------------------------------------*/
FoamFile
{
    version     2.0;
    format      ascii;
    class       volScalarField;
    location    "83.995";
    object      A_0;
}
// * * * * * * * * * * * * * * * * * * * * * * * * * * * * * * * * * * * * * //

dimensions      [0 0 0 0 1 0 0];

internalField   nonuniform List<scalar> 
10000
(
1.3572415e-23
1.3558557e-23
1.355101e-23
1.354676e-23
1.3544487e-23
1.3543434e-23
1.3543205e-23
1.35437e-23
1.3545136e-23
1.3547999e-23
1.3558557e-23
1.3544754e-23
1.3537226e-23
1.3532985e-23
1.3530718e-23
1.3529673e-23
1.3529459e-23
1.3529987e-23
1.3531509e-23
1.3534618e-23
1.355101e-23
1.3537226e-23
1.352971e-23
1.3525477e-23
1.3523217e-23
1.3522183e-23
1.3521987e-23
1.3522548e-23
1.3524129e-23
1.3527324e-23
1.354676e-23
1.3532985e-23
1.3525477e-23
1.3521251e-23
1.3518998e-23
1.3517973e-23
1.3517791e-23
1.3518376e-23
1.3519991e-23
1.3523217e-23
1.3544487e-23
1.3530718e-23
1.3523217e-23
1.3518998e-23
1.3516752e-23
1.3515734e-23
1.3515563e-23
1.3516162e-23
1.3517794e-23
1.3521034e-23
1.3543434e-23
1.3529673e-23
1.3522183e-23
1.3517973e-23
1.3515734e-23
1.3514723e-23
1.3514559e-23
1.3515167e-23
1.3516807e-23
1.3520053e-23
1.3543205e-23
1.3529459e-23
1.3521987e-23
1.3517791e-23
1.3515563e-23
1.3514559e-23
1.3514401e-23
1.3515014e-23
1.3516659e-23
1.3519908e-23
1.35437e-23
1.3529987e-23
1.3522548e-23
1.3518376e-23
1.3516162e-23
1.3515167e-23
1.3515014e-23
1.351563e-23
1.3517278e-23
1.352053e-23
1.3545136e-23
1.3531509e-23
1.3524129e-23
1.3519991e-23
1.3517794e-23
1.3516807e-23
1.3516659e-23
1.3517278e-23
1.3518929e-23
1.3522184e-23
1.3547999e-23
1.3534618e-23
1.3527324e-23
1.3523217e-23
1.3521034e-23
1.3520053e-23
1.3519908e-23
1.352053e-23
1.3522184e-23
1.3525448e-23
4.4976225e-23
4.4932077e-23
4.4907333e-23
4.4893366e-23
4.4885889e-23
4.4882425e-23
4.488167e-23
4.4883288e-23
4.4888002e-23
4.4897739e-23
4.4932077e-23
4.4888098e-23
4.4863416e-23
4.4849478e-23
4.4842022e-23
4.4838584e-23
4.4837877e-23
4.4839606e-23
4.4844604e-23
4.4855158e-23
4.4907333e-23
4.4863416e-23
4.4838773e-23
4.4824862e-23
4.4817429e-23
4.4814024e-23
4.4813376e-23
4.4815215e-23
4.4820411e-23
4.4831247e-23
4.4893366e-23
4.4849478e-23
4.4824862e-23
4.4810973e-23
4.4803563e-23
4.4800188e-23
4.4799589e-23
4.4801506e-23
4.4806811e-23
4.4817754e-23
4.4885889e-23
4.4842022e-23
4.4817429e-23
4.4803563e-23
4.4796175e-23
4.4792825e-23
4.479226e-23
4.4794224e-23
4.4799586e-23
4.4810574e-23
4.4882425e-23
4.4838584e-23
4.4814024e-23
4.4800188e-23
4.4792825e-23
4.4789499e-23
4.4788957e-23
4.4790949e-23
4.479634e-23
4.4807348e-23
4.488167e-23
4.4837877e-23
4.4813376e-23
4.4799589e-23
4.479226e-23
4.4788957e-23
4.4788435e-23
4.4790444e-23
4.479585e-23
4.4806867e-23
4.4883288e-23
4.4839606e-23
4.4815215e-23
4.4801506e-23
4.4794224e-23
4.4790949e-23
4.4790444e-23
4.4792465e-23
4.4797881e-23
4.4808906e-23
4.4888002e-23
4.4844604e-23
4.4820411e-23
4.4806811e-23
4.4799586e-23
4.479634e-23
4.479585e-23
4.4797881e-23
4.4803306e-23
4.4814343e-23
4.4897739e-23
4.4855158e-23
4.4831247e-23
4.4817754e-23
4.4810574e-23
4.4807348e-23
4.4806867e-23
4.4808906e-23
4.4814343e-23
4.4825411e-23
9.0793491e-23
9.0707323e-23
9.0658295e-23
9.0630536e-23
9.0615654e-23
9.0608753e-23
9.0607237e-23
9.0610427e-23
9.0619754e-23
9.0639643e-23
9.0707323e-23
9.0621481e-23
9.0572573e-23
9.0544871e-23
9.0530031e-23
9.0523181e-23
9.0521763e-23
9.0525175e-23
9.0535075e-23
9.055661e-23
9.0658295e-23
9.0572573e-23
9.0523743e-23
9.0496093e-23
9.04813e-23
9.0474516e-23
9.0473216e-23
9.0476851e-23
9.0487148e-23
9.0509247e-23
9.0630536e-23
9.0544871e-23
9.0496093e-23
9.0468488e-23
9.045374e-23
9.0447017e-23
9.0445814e-23
9.0449605e-23
9.0460122e-23
9.0482438e-23
9.0615654e-23
9.0530031e-23
9.04813e-23
9.045374e-23
9.0439036e-23
9.0432364e-23
9.0431229e-23
9.0435115e-23
9.0445746e-23
9.0468152e-23
9.0608753e-23
9.0523181e-23
9.0474516e-23
9.0447017e-23
9.0432364e-23
9.0425737e-23
9.0424651e-23
9.0428592e-23
9.043928e-23
9.0461726e-23
9.0607237e-23
9.0521763e-23
9.0473216e-23
9.0445814e-23
9.0431229e-23
9.0424651e-23
9.0423603e-23
9.0427578e-23
9.0438297e-23
9.0460763e-23
9.0610427e-23
9.0525175e-23
9.0476851e-23
9.0449605e-23
9.0435115e-23
9.0428592e-23
9.0427578e-23
9.0431578e-23
9.0442317e-23
9.0464797e-23
9.0619754e-23
9.0535075e-23
9.0487148e-23
9.0460122e-23
9.0445746e-23
9.043928e-23
9.0438297e-23
9.0442317e-23
9.0453074e-23
9.0475578e-23
9.0639643e-23
9.055661e-23
9.0509247e-23
9.0482438e-23
9.0468152e-23
9.0461726e-23
9.0460763e-23
9.0464797e-23
9.0475578e-23
9.0498148e-23
1.6641731e-22
1.6626455e-22
1.6617681e-22
1.6612698e-22
1.6610021e-22
1.6608778e-22
1.6608503e-22
1.6609069e-22
1.6610729e-22
1.6614306e-22
1.6626455e-22
1.6611237e-22
1.6602484e-22
1.659751e-22
1.6594841e-22
1.6593608e-22
1.659335e-22
1.6593957e-22
1.6595721e-22
1.6599599e-22
1.6617681e-22
1.6602484e-22
1.6593745e-22
1.6588781e-22
1.658612e-22
1.6584899e-22
1.6584662e-22
1.658531e-22
1.6587146e-22
1.6591127e-22
1.6612698e-22
1.659751e-22
1.6588781e-22
1.6583824e-22
1.6581172e-22
1.6579962e-22
1.6579743e-22
1.6580419e-22
1.6582295e-22
1.6586316e-22
1.6610021e-22
1.6594841e-22
1.658612e-22
1.6581172e-22
1.6578528e-22
1.6577326e-22
1.657712e-22
1.6577813e-22
1.657971e-22
1.6583748e-22
1.6608778e-22
1.6593608e-22
1.6584899e-22
1.6579962e-22
1.6577326e-22
1.6576133e-22
1.6575936e-22
1.6576639e-22
1.6578547e-22
1.6582591e-22
1.6608503e-22
1.659335e-22
1.6584662e-22
1.6579743e-22
1.657712e-22
1.6575936e-22
1.6575745e-22
1.6576455e-22
1.6578368e-22
1.6582416e-22
1.6609069e-22
1.6593957e-22
1.658531e-22
1.6580419e-22
1.6577813e-22
1.6576639e-22
1.6576455e-22
1.6577169e-22
1.6579085e-22
1.6583136e-22
1.6610729e-22
1.6595721e-22
1.6587146e-22
1.6582295e-22
1.657971e-22
1.6578547e-22
1.6578368e-22
1.6579085e-22
1.6581005e-22
1.658506e-22
1.6614306e-22
1.6599599e-22
1.6591127e-22
1.6586316e-22
1.6583748e-22
1.6582591e-22
1.6582416e-22
1.6583136e-22
1.658506e-22
1.6589127e-22
2.9848995e-22
2.9822503e-22
2.9807185e-22
2.9798457e-22
2.9793761e-22
2.9791576e-22
2.9791087e-22
2.9792066e-22
2.9794936e-22
2.9801124e-22
2.9822503e-22
2.9796108e-22
2.9780827e-22
2.9772116e-22
2.9767433e-22
2.9765265e-22
2.9764807e-22
2.9765859e-22
2.9768915e-22
2.977564e-22
2.9807185e-22
2.9780827e-22
2.976557e-22
2.9756876e-22
2.9752207e-22
2.9750061e-22
2.9749641e-22
2.9750764e-22
2.9753949e-22
2.9760859e-22
2.9798457e-22
2.9772116e-22
2.9756876e-22
2.9748195e-22
2.9743541e-22
2.9741414e-22
2.9741026e-22
2.97422e-22
2.9745456e-22
2.9752436e-22
2.9793761e-22
2.9767433e-22
2.9752207e-22
2.9743541e-22
2.9738902e-22
2.9736791e-22
2.9736425e-22
2.973763e-22
2.9740923e-22
2.9747932e-22
2.9791576e-22
2.9765265e-22
2.9750061e-22
2.9741414e-22
2.9736791e-22
2.9734695e-22
2.9734345e-22
2.9735567e-22
2.9738879e-22
2.9745901e-22
2.9791087e-22
2.9764807e-22
2.9749641e-22
2.9741026e-22
2.9736425e-22
2.9734345e-22
2.9734006e-22
2.973524e-22
2.9738562e-22
2.974559e-22
2.9792066e-22
2.9765859e-22
2.9750764e-22
2.97422e-22
2.973763e-22
2.9735567e-22
2.973524e-22
2.9736481e-22
2.9739809e-22
2.9746842e-22
2.9794936e-22
2.9768915e-22
2.9753949e-22
2.9745456e-22
2.9740923e-22
2.9738879e-22
2.9738562e-22
2.9739809e-22
2.9743143e-22
2.9750183e-22
2.9801124e-22
2.977564e-22
2.9760859e-22
2.9752436e-22
2.9747932e-22
2.9745901e-22
2.974559e-22
2.9746842e-22
2.9750183e-22
2.9757244e-22
5.3533194e-22
5.3487272e-22
5.3460578e-22
5.3445321e-22
5.3437097e-22
5.3433264e-22
5.3432397e-22
5.3434084e-22
5.3439027e-22
5.3449638e-22
5.3487272e-22
5.3441517e-22
5.3414887e-22
5.339966e-22
5.3391458e-22
5.3387655e-22
5.3386843e-22
5.3388659e-22
5.3393934e-22
5.3405504e-22
5.3460578e-22
5.3414887e-22
5.3388298e-22
5.33731e-22
5.3364924e-22
5.3361158e-22
5.3360414e-22
5.3362358e-22
5.3367863e-22
5.337976e-22
5.3445321e-22
5.339966e-22
5.33731e-22
5.3357926e-22
5.3349775e-22
5.3346045e-22
5.3345356e-22
5.334739e-22
5.3353022e-22
5.3365044e-22
5.3437097e-22
5.3391458e-22
5.3364924e-22
5.3349775e-22
5.334165e-22
5.3337948e-22
5.33373e-22
5.3339388e-22
5.3345085e-22
5.335716e-22
5.3433264e-22
5.3387655e-22
5.3361158e-22
5.3346045e-22
5.3337948e-22
5.3334273e-22
5.3333652e-22
5.3335772e-22
5.3341502e-22
5.33536e-22
5.3432397e-22
5.3386843e-22
5.3360414e-22
5.3345356e-22
5.33373e-22
5.3333652e-22
5.3333052e-22
5.3335192e-22
5.334094e-22
5.3353048e-22
5.3434084e-22
5.3388659e-22
5.3362358e-22
5.334739e-22
5.3339388e-22
5.3335772e-22
5.3335192e-22
5.3337345e-22
5.3343104e-22
5.3355221e-22
5.3439027e-22
5.3393934e-22
5.3367863e-22
5.3353022e-22
5.3345085e-22
5.3341502e-22
5.334094e-22
5.3343104e-22
5.3348874e-22
5.3361003e-22
5.3449638e-22
5.3405504e-22
5.337976e-22
5.3365044e-22
5.335716e-22
5.33536e-22
5.3353048e-22
5.3355221e-22
5.3361003e-22
5.3373168e-22
9.6661876e-22
9.6581766e-22
9.6534979e-22
9.6508157e-22
9.649367e-22
9.6486908e-22
9.6485361e-22
9.6488284e-22
9.649684e-22
9.6515085e-22
9.6581766e-22
9.6501947e-22
9.6455269e-22
9.64285e-22
9.6414052e-22
9.6407342e-22
9.6405895e-22
9.6409047e-22
9.6418199e-22
9.6438165e-22
9.6534979e-22
9.6455269e-22
9.6408664e-22
9.6381944e-22
9.6367543e-22
9.63609e-22
9.6359574e-22
9.6362956e-22
9.6372519e-22
9.6393072e-22
9.6508157e-22
9.64285e-22
9.6381944e-22
9.6355268e-22
9.6340912e-22
9.6334331e-22
9.6333104e-22
9.6336647e-22
9.6346437e-22
9.6367215e-22
9.649367e-22
9.6414052e-22
9.6367543e-22
9.6340912e-22
9.6326601e-22
9.6320072e-22
9.6318916e-22
9.6322556e-22
9.6332463e-22
9.6353334e-22
9.6486908e-22
9.6407342e-22
9.63609e-22
9.6334331e-22
9.6320072e-22
9.6313589e-22
9.6312483e-22
9.6316179e-22
9.6326145e-22
9.6347058e-22
9.6485361e-22
9.6405895e-22
9.6359574e-22
9.6333104e-22
9.6318916e-22
9.6312483e-22
9.6311415e-22
9.6315146e-22
9.6325144e-22
9.6346076e-22
9.6488284e-22
9.6409047e-22
9.6362956e-22
9.6336647e-22
9.6322556e-22
9.6316179e-22
9.6315146e-22
9.6318903e-22
9.6328921e-22
9.6349867e-22
9.649684e-22
9.6418199e-22
9.6372519e-22
9.6346437e-22
9.6332463e-22
9.6326145e-22
9.6325144e-22
9.6328921e-22
9.6338956e-22
9.6359924e-22
9.6515085e-22
9.6438165e-22
9.6393072e-22
9.6367215e-22
9.6353334e-22
9.6347058e-22
9.6346076e-22
9.6349867e-22
9.6359924e-22
9.6380954e-22
1.7611393e-21
1.7597298e-21
1.7589029e-21
1.7584274e-21
1.7581701e-21
1.7580498e-21
1.758022e-21
1.7580731e-21
1.7582224e-21
1.7585383e-21
1.7597298e-21
1.7583254e-21
1.7575003e-21
1.7570258e-21
1.7567692e-21
1.7566499e-21
1.7566238e-21
1.7566791e-21
1.7568391e-21
1.7571862e-21
1.7589029e-21
1.7575003e-21
1.7566766e-21
1.756203e-21
1.7559472e-21
1.755829e-21
1.7558052e-21
1.7558646e-21
1.756032e-21
1.7563898e-21
1.7584274e-21
1.7570258e-21
1.756203e-21
1.7557301e-21
1.7554751e-21
1.7553581e-21
1.7553361e-21
1.7553983e-21
1.7555699e-21
1.7559317e-21
1.7581701e-21
1.7567692e-21
1.7559472e-21
1.7554751e-21
1.755221e-21
1.7551049e-21
1.7550841e-21
1.7551481e-21
1.7553218e-21
1.7556853e-21
1.7580498e-21
1.7566499e-21
1.755829e-21
1.7553581e-21
1.7551049e-21
1.7549896e-21
1.7549697e-21
1.7550348e-21
1.7552095e-21
1.7555737e-21
1.758022e-21
1.7566238e-21
1.7558052e-21
1.7553361e-21
1.7550841e-21
1.7549697e-21
1.7549506e-21
1.7550162e-21
1.7551915e-21
1.7555561e-21
1.7580731e-21
1.7566791e-21
1.7558646e-21
1.7553983e-21
1.7551481e-21
1.7550348e-21
1.7550162e-21
1.7550823e-21
1.755258e-21
1.7556228e-21
1.7582224e-21
1.7568391e-21
1.756032e-21
1.7555699e-21
1.7553218e-21
1.7552095e-21
1.7551915e-21
1.755258e-21
1.755434e-21
1.7557992e-21
1.7585383e-21
1.7571862e-21
1.7563898e-21
1.7559317e-21
1.7556853e-21
1.7555737e-21
1.7555561e-21
1.7556228e-21
1.7557992e-21
1.7561655e-21
3.2401195e-21
3.2376163e-21
3.2361414e-21
3.2352908e-21
3.2348297e-21
3.2346138e-21
3.2345634e-21
3.2346533e-21
3.2349162e-21
3.2354682e-21
3.2376163e-21
3.2351221e-21
3.2336505e-21
3.2328016e-21
3.2323417e-21
3.2321274e-21
3.2320803e-21
3.2321779e-21
3.2324603e-21
3.2330693e-21
3.2361414e-21
3.2336505e-21
3.2321811e-21
3.2313338e-21
3.2308754e-21
3.2306633e-21
3.2306201e-21
3.2307252e-21
3.2310213e-21
3.2316496e-21
3.2352908e-21
3.2328016e-21
3.2313338e-21
3.2304878e-21
3.2300309e-21
3.2298209e-21
3.229781e-21
3.2298913e-21
3.2301948e-21
3.2308306e-21
3.2348297e-21
3.2323417e-21
3.2308754e-21
3.2300309e-21
3.2295754e-21
3.2293671e-21
3.2293295e-21
3.2294431e-21
3.2297504e-21
3.2303892e-21
3.2346138e-21
3.2321274e-21
3.2306633e-21
3.2298209e-21
3.2293671e-21
3.2291602e-21
3.2291243e-21
3.2292397e-21
3.229549e-21
3.2301892e-21
3.2345634e-21
3.2320803e-21
3.2306201e-21
3.229781e-21
3.2293295e-21
3.2291243e-21
3.2290896e-21
3.2292062e-21
3.2295165e-21
3.2301573e-21
3.2346533e-21
3.2321779e-21
3.2307252e-21
3.2298913e-21
3.2294431e-21
3.2292397e-21
3.2292062e-21
3.2293236e-21
3.2296345e-21
3.2302758e-21
3.2349162e-21
3.2324603e-21
3.2310213e-21
3.2301948e-21
3.2297504e-21
3.229549e-21
3.2295165e-21
3.2296345e-21
3.229946e-21
3.230588e-21
3.2354682e-21
3.2330693e-21
3.2316496e-21
3.2308306e-21
3.2303892e-21
3.2301892e-21
3.2301573e-21
3.2302758e-21
3.230588e-21
3.2312318e-21
6.0210666e-21
6.0165784e-21
6.0139223e-21
6.0123863e-21
6.011552e-21
6.0111607e-21
6.0110685e-21
6.0112287e-21
6.011696e-21
6.0126695e-21
6.0165784e-21
6.0121061e-21
6.009456e-21
6.0079229e-21
6.0070909e-21
6.0067026e-21
6.0066164e-21
6.0067906e-21
6.007294e-21
6.0083726e-21
6.0139223e-21
6.009456e-21
6.0068099e-21
6.0052797e-21
6.0044503e-21
6.0040661e-21
6.0039872e-21
6.0041752e-21
6.0047036e-21
6.0058179e-21
6.0123863e-21
6.0079229e-21
6.0052797e-21
6.003752e-21
6.0029253e-21
6.0025448e-21
6.0024719e-21
6.0026696e-21
6.0032117e-21
6.0043397e-21
6.011552e-21
6.0070909e-21
6.0044503e-21
6.0029253e-21
6.0021013e-21
6.0017239e-21
6.0016552e-21
6.0018588e-21
6.002408e-21
6.0035416e-21
6.0111607e-21
6.0067026e-21
6.0040661e-21
6.0025448e-21
6.0017239e-21
6.0013492e-21
6.0012836e-21
6.0014906e-21
6.0020433e-21
6.0031794e-21
6.0110685e-21
6.0066164e-21
6.0039872e-21
6.0024719e-21
6.0016552e-21
6.0012836e-21
6.0012202e-21
6.0014293e-21
6.0019839e-21
6.0031213e-21
6.0112287e-21
6.0067906e-21
6.0041752e-21
6.0026696e-21
6.0018588e-21
6.0014906e-21
6.0014293e-21
6.0016399e-21
6.0021957e-21
6.0033339e-21
6.011696e-21
6.007294e-21
6.0047036e-21
6.0032117e-21
6.002408e-21
6.0020433e-21
6.0019839e-21
6.0021957e-21
6.0027525e-21
6.0038919e-21
6.0126695e-21
6.0083726e-21
6.0058179e-21
6.0043397e-21
6.0035416e-21
6.0031794e-21
6.0031213e-21
6.0033339e-21
6.0038919e-21
6.0050344e-21
1.1302678e-20
1.1294553e-20
1.1289723e-20
1.1286923e-20
1.1285399e-20
1.1284683e-20
1.1284513e-20
1.1284801e-20
1.128564e-20
1.1287374e-20
1.1294553e-20
1.1286456e-20
1.1281637e-20
1.1278842e-20
1.1277322e-20
1.1276612e-20
1.1276453e-20
1.1276767e-20
1.1277673e-20
1.1279602e-20
1.1289723e-20
1.1281637e-20
1.1276826e-20
1.1274036e-20
1.1272521e-20
1.1271818e-20
1.1271673e-20
1.1272012e-20
1.1272965e-20
1.1274961e-20
1.1286923e-20
1.1278842e-20
1.1274036e-20
1.127125e-20
1.126974e-20
1.1269044e-20
1.126891e-20
1.1269268e-20
1.1270246e-20
1.1272267e-20
1.1285399e-20
1.1277322e-20
1.1272521e-20
1.126974e-20
1.1268235e-20
1.1267545e-20
1.1267419e-20
1.1267787e-20
1.1268778e-20
1.127081e-20
1.1284683e-20
1.1276612e-20
1.1271818e-20
1.1269044e-20
1.1267545e-20
1.126686e-20
1.1266739e-20
1.1267114e-20
1.1268112e-20
1.1270148e-20
1.1284513e-20
1.1276453e-20
1.1271673e-20
1.126891e-20
1.1267419e-20
1.1266739e-20
1.1266623e-20
1.1267001e-20
1.1268003e-20
1.1270041e-20
1.1284801e-20
1.1276767e-20
1.1272012e-20
1.1269268e-20
1.1267787e-20
1.1267114e-20
1.1267001e-20
1.1267383e-20
1.1268386e-20
1.1270427e-20
1.128564e-20
1.1277673e-20
1.1272965e-20
1.1270246e-20
1.1268778e-20
1.1268112e-20
1.1268003e-20
1.1268386e-20
1.1269392e-20
1.1271434e-20
1.1287374e-20
1.1279602e-20
1.1274961e-20
1.1272267e-20
1.127081e-20
1.1270148e-20
1.1270041e-20
1.1270427e-20
1.1271434e-20
1.1273482e-20
2.1434499e-20
2.1419644e-20
2.1410779e-20
2.1405623e-20
2.1402812e-20
2.140149e-20
2.1401173e-20
2.1401696e-20
2.1403217e-20
2.1406336e-20
2.1419644e-20
2.1404841e-20
2.1395995e-20
2.1390849e-20
2.1388046e-20
2.1386734e-20
2.1386438e-20
2.138701e-20
2.1388657e-20
2.1392143e-20
2.1410779e-20
2.1395995e-20
2.1387162e-20
2.1382026e-20
2.1379232e-20
2.1377934e-20
2.1377663e-20
2.1378283e-20
2.1380018e-20
2.1383629e-20
2.1405623e-20
2.1390849e-20
2.1382026e-20
2.1376898e-20
2.1374113e-20
2.1372828e-20
2.1372578e-20
2.1373232e-20
2.1375014e-20
2.1378673e-20
2.1402812e-20
2.1388046e-20
2.1379232e-20
2.1374113e-20
2.1371338e-20
2.1370063e-20
2.1369828e-20
2.1370502e-20
2.1372309e-20
2.1375988e-20
2.140149e-20
2.1386734e-20
2.1377934e-20
2.1372828e-20
2.1370063e-20
2.1368799e-20
2.1368574e-20
2.136926e-20
2.1371079e-20
2.1374766e-20
2.1401173e-20
2.1386438e-20
2.1377663e-20
2.1372578e-20
2.1369828e-20
2.1368574e-20
2.1368358e-20
2.1369051e-20
2.1370877e-20
2.1374568e-20
2.1401696e-20
2.138701e-20
2.1378283e-20
2.1373232e-20
2.1370502e-20
2.136926e-20
2.1369051e-20
2.1369749e-20
2.1371579e-20
2.1375273e-20
2.1403217e-20
2.1388657e-20
2.1380018e-20
2.1375014e-20
2.1372309e-20
2.1371079e-20
2.1370877e-20
2.1371579e-20
2.1373412e-20
2.137711e-20
2.1406336e-20
2.1392143e-20
2.1383629e-20
2.1378673e-20
2.1375988e-20
2.1374766e-20
2.1374568e-20
2.1375273e-20
2.137711e-20
2.1380818e-20
4.1066635e-20
4.1039211e-20
4.1022777e-20
4.1013193e-20
4.1007959e-20
4.1005493e-20
4.1004898e-20
4.1005858e-20
4.1008643e-20
4.1014307e-20
4.1039211e-20
4.1011884e-20
4.0995484e-20
4.0985918e-20
4.0980698e-20
4.0978252e-20
4.0977697e-20
4.0978749e-20
4.0981774e-20
4.0988136e-20
4.1022777e-20
4.0995484e-20
4.097911e-20
4.0969561e-20
4.0964359e-20
4.0961939e-20
4.0961431e-20
4.0962574e-20
4.0965765e-20
4.0972363e-20
4.1013193e-20
4.0985918e-20
4.0969561e-20
4.0960029e-20
4.0954844e-20
4.0952448e-20
4.095198e-20
4.0953187e-20
4.0956468e-20
4.0963157e-20
4.1007959e-20
4.0980698e-20
4.0964359e-20
4.0954844e-20
4.0949676e-20
4.0947301e-20
4.094686e-20
4.0948106e-20
4.0951433e-20
4.095816e-20
4.1005493e-20
4.0978252e-20
4.0961939e-20
4.0952448e-20
4.0947301e-20
4.0944944e-20
4.0944523e-20
4.0945791e-20
4.0949142e-20
4.0955885e-20
4.1004898e-20
4.0977697e-20
4.0961431e-20
4.095198e-20
4.094686e-20
4.0944523e-20
4.0944117e-20
4.0945399e-20
4.0948762e-20
4.0955513e-20
4.1005858e-20
4.0978749e-20
4.0962574e-20
4.0953187e-20
4.0948106e-20
4.0945791e-20
4.0945399e-20
4.0946691e-20
4.0950062e-20
4.0956818e-20
4.1008643e-20
4.0981774e-20
4.0965765e-20
4.0956468e-20
4.0951433e-20
4.0949142e-20
4.0948762e-20
4.0950062e-20
4.0953439e-20
4.0960202e-20
4.1014307e-20
4.0988136e-20
4.0972363e-20
4.0963157e-20
4.095816e-20
4.0955885e-20
4.0955513e-20
4.0956818e-20
4.0960202e-20
4.0966983e-20
7.9492006e-20
7.9440883e-20
7.941012e-20
7.9392132e-20
7.938229e-20
7.9377648e-20
7.937652e-20
7.9378298e-20
7.9383451e-20
7.9393841e-20
7.9440883e-20
7.9389937e-20
7.9359239e-20
7.9341284e-20
7.9331469e-20
7.9326864e-20
7.9325811e-20
7.9327766e-20
7.9333378e-20
7.9345106e-20
7.941012e-20
7.9359239e-20
7.9328587e-20
7.9310665e-20
7.9300883e-20
7.9296327e-20
7.9295366e-20
7.9297496e-20
7.9303423e-20
7.9315605e-20
7.9392132e-20
7.9341284e-20
7.9310665e-20
7.9292773e-20
7.9283024e-20
7.9278515e-20
7.9277629e-20
7.927988e-20
7.9285981e-20
7.9298336e-20
7.938229e-20
7.9331469e-20
7.9300883e-20
7.9283024e-20
7.9273308e-20
7.9268838e-20
7.9268005e-20
7.927033e-20
7.927652e-20
7.9288947e-20
7.9377648e-20
7.9326864e-20
7.9296327e-20
7.9278515e-20
7.9268838e-20
7.9264402e-20
7.9263607e-20
7.9265975e-20
7.927221e-20
7.9284668e-20
7.937652e-20
7.9325811e-20
7.9295366e-20
7.9277629e-20
7.9268005e-20
7.9263607e-20
7.9262841e-20
7.9265236e-20
7.9271494e-20
7.9283967e-20
7.9378298e-20
7.9327766e-20
7.9297496e-20
7.927988e-20
7.927033e-20
7.9265975e-20
7.9265236e-20
7.9267649e-20
7.9273922e-20
7.9286405e-20
7.9383451e-20
7.9333378e-20
7.9303423e-20
7.9285981e-20
7.927652e-20
7.927221e-20
7.9271494e-20
7.9273922e-20
7.9280206e-20
7.9292702e-20
7.9393841e-20
7.9345106e-20
7.9315605e-20
7.9298336e-20
7.9288947e-20
7.9284668e-20
7.9283967e-20
7.9286405e-20
7.9292702e-20
7.9305232e-20
1.5546301e-19
1.5536677e-19
1.5530862e-19
1.5527453e-19
1.5525584e-19
1.5524702e-19
1.5524486e-19
1.5524819e-19
1.5525782e-19
1.5527707e-19
1.5536677e-19
1.5527085e-19
1.5521283e-19
1.551788e-19
1.5516016e-19
1.5515141e-19
1.551494e-19
1.5515307e-19
1.5516359e-19
1.5518543e-19
1.5530862e-19
1.5521283e-19
1.5515489e-19
1.5512092e-19
1.5510235e-19
1.5509369e-19
1.5509186e-19
1.5509586e-19
1.5510699e-19
1.5512971e-19
1.5527453e-19
1.551788e-19
1.5512092e-19
1.5508701e-19
1.550685e-19
1.5505994e-19
1.5505824e-19
1.5506249e-19
1.5507395e-19
1.55097e-19
1.5525584e-19
1.5516016e-19
1.5510235e-19
1.550685e-19
1.5505006e-19
1.5504157e-19
1.5503998e-19
1.5504436e-19
1.55056e-19
1.5507919e-19
1.5524702e-19
1.5515141e-19
1.5509369e-19
1.5505994e-19
1.5504157e-19
1.5503314e-19
1.5503162e-19
1.5503609e-19
1.5504781e-19
1.5507107e-19
1.5524486e-19
1.551494e-19
1.5509186e-19
1.5505824e-19
1.5503998e-19
1.5503162e-19
1.5503016e-19
1.5503468e-19
1.5504645e-19
1.5506973e-19
1.5524819e-19
1.5515307e-19
1.5509586e-19
1.5506249e-19
1.5504436e-19
1.5503609e-19
1.5503468e-19
1.5503924e-19
1.5505103e-19
1.5507433e-19
1.5525782e-19
1.5516359e-19
1.5510699e-19
1.5507395e-19
1.55056e-19
1.5504781e-19
1.5504645e-19
1.5505103e-19
1.5506285e-19
1.5508617e-19
1.5527707e-19
1.5518543e-19
1.5512971e-19
1.55097e-19
1.5507919e-19
1.5507107e-19
1.5506973e-19
1.5507433e-19
1.5508617e-19
1.5510956e-19
3.071897e-19
3.0700673e-19
3.0689575e-19
3.0683051e-19
3.0679469e-19
3.0677775e-19
3.0677358e-19
3.0677988e-19
3.0679806e-19
3.0683409e-19
3.0700673e-19
3.0682439e-19
3.0671364e-19
3.0664851e-19
3.0661279e-19
3.06596e-19
3.0659211e-19
3.0659908e-19
3.0661899e-19
3.0666007e-19
3.0689575e-19
3.0671364e-19
3.0660305e-19
3.0653804e-19
3.0650244e-19
3.0648583e-19
3.0648229e-19
3.0648991e-19
3.0651101e-19
3.0655382e-19
3.0683051e-19
3.0664851e-19
3.0653804e-19
3.0647315e-19
3.0643767e-19
3.0642123e-19
3.0641798e-19
3.0642606e-19
3.0644781e-19
3.0649127e-19
3.0679469e-19
3.0661279e-19
3.0650244e-19
3.0643767e-19
3.0640232e-19
3.0638603e-19
3.0638297e-19
3.0639133e-19
3.0641342e-19
3.0645715e-19
3.0677775e-19
3.06596e-19
3.0648583e-19
3.0642123e-19
3.0638603e-19
3.0636987e-19
3.0636695e-19
3.0637547e-19
3.0639773e-19
3.0644157e-19
3.0677358e-19
3.0659211e-19
3.0648229e-19
3.0641798e-19
3.0638297e-19
3.0636695e-19
3.0636414e-19
3.0637276e-19
3.0639511e-19
3.0643901e-19
3.0677988e-19
3.0659908e-19
3.0648991e-19
3.0642606e-19
3.0639133e-19
3.0637547e-19
3.0637276e-19
3.0638145e-19
3.0640385e-19
3.0644779e-19
3.0679806e-19
3.0661899e-19
3.0651101e-19
3.0644781e-19
3.0641342e-19
3.0639773e-19
3.0639511e-19
3.0640385e-19
3.0642629e-19
3.0647028e-19
3.0683409e-19
3.0666007e-19
3.0655382e-19
3.0649127e-19
3.0645715e-19
3.0644157e-19
3.0643901e-19
3.0644779e-19
3.0647028e-19
3.0651438e-19
6.1328838e-19
6.1293714e-19
6.1272323e-19
6.1259716e-19
6.1252784e-19
6.1249502e-19
6.124869e-19
6.1249894e-19
6.1253359e-19
6.1260169e-19
6.1293714e-19
6.1258708e-19
6.1237361e-19
6.1224777e-19
6.1217864e-19
6.1214609e-19
6.1213853e-19
6.1215188e-19
6.1218995e-19
6.1226804e-19
6.1272323e-19
6.1237361e-19
6.1216046e-19
6.1203485e-19
6.1196595e-19
6.1193377e-19
6.1192688e-19
6.1194153e-19
6.1198195e-19
6.1206342e-19
6.1259716e-19
6.1224777e-19
6.1203485e-19
6.1190946e-19
6.118408e-19
6.1180896e-19
6.1180263e-19
6.1181818e-19
6.1185988e-19
6.1194265e-19
6.1252784e-19
6.1217864e-19
6.1196595e-19
6.118408e-19
6.1177238e-19
6.1174083e-19
6.1173489e-19
6.1175099e-19
6.1179336e-19
6.1187665e-19
6.1249502e-19
6.1214609e-19
6.1193377e-19
6.1180896e-19
6.1174083e-19
6.1170953e-19
6.1170387e-19
6.1172028e-19
6.1176298e-19
6.1184651e-19
6.124869e-19
6.1213853e-19
6.1192688e-19
6.1180263e-19
6.1173489e-19
6.1170387e-19
6.1169842e-19
6.1171504e-19
6.1175791e-19
6.1184155e-19
6.1249894e-19
6.1215188e-19
6.1194153e-19
6.1181818e-19
6.1175099e-19
6.1172028e-19
6.1171504e-19
6.1173178e-19
6.1177476e-19
6.1185847e-19
6.1253359e-19
6.1218995e-19
6.1198195e-19
6.1185988e-19
6.1179336e-19
6.1176298e-19
6.1175791e-19
6.1177476e-19
6.1181782e-19
6.1190162e-19
6.1260169e-19
6.1226804e-19
6.1206342e-19
6.1194265e-19
6.1187665e-19
6.1184651e-19
6.1184155e-19
6.1185847e-19
6.1190162e-19
6.1198563e-19
1.2370848e-18
1.2364039e-18
1.2359876e-18
1.2357417e-18
1.2356062e-18
1.235542e-18
1.235526e-18
1.2355493e-18
1.235616e-18
1.235746e-18
1.2364039e-18
1.2357253e-18
1.2353098e-18
1.2350643e-18
1.2349292e-18
1.2348655e-18
1.2348507e-18
1.2348765e-18
1.2349501e-18
1.2351e-18
1.2359876e-18
1.2353098e-18
1.234895e-18
1.2346499e-18
1.2345153e-18
1.2344524e-18
1.2344388e-18
1.2344673e-18
1.2345455e-18
1.2347022e-18
1.2357417e-18
1.2350643e-18
1.2346499e-18
1.2344053e-18
1.2342711e-18
1.2342089e-18
1.2341965e-18
1.2342267e-18
1.2343075e-18
1.2344667e-18
1.2356062e-18
1.2349292e-18
1.2345153e-18
1.2342711e-18
1.2341374e-18
1.2340757e-18
1.2340641e-18
1.2340954e-18
1.2341775e-18
1.2343378e-18
1.235542e-18
1.2348655e-18
1.2344524e-18
1.2342089e-18
1.2340757e-18
1.2340145e-18
1.2340035e-18
1.2340354e-18
1.2341182e-18
1.234279e-18
1.235526e-18
1.2348507e-18
1.2344388e-18
1.2341965e-18
1.2340641e-18
1.2340035e-18
1.2339928e-18
1.2340252e-18
1.2341083e-18
1.2342693e-18
1.2355493e-18
1.2348765e-18
1.2344673e-18
1.2342267e-18
1.2340954e-18
1.2340354e-18
1.2340252e-18
1.2340578e-18
1.2341411e-18
1.2343022e-18
1.235616e-18
1.2349501e-18
1.2345455e-18
1.2343075e-18
1.2341775e-18
1.2341182e-18
1.2341083e-18
1.2341411e-18
1.2342246e-18
1.2343859e-18
1.235746e-18
1.2351e-18
1.2347022e-18
1.2344667e-18
1.2343378e-18
1.234279e-18
1.2342693e-18
1.2343022e-18
1.2343859e-18
1.2345476e-18
2.5211826e-18
2.5198498e-18
2.5190318e-18
2.5185473e-18
2.51828e-18
2.5181532e-18
2.5181215e-18
2.5181669e-18
2.5182968e-18
2.5185475e-18
2.5198498e-18
2.5185214e-18
2.517705e-18
2.5172214e-18
2.5169548e-18
2.5168291e-18
2.5167996e-18
2.5168503e-18
2.5169938e-18
2.5172846e-18
2.5190318e-18
2.517705e-18
2.5168899e-18
2.5164071e-18
2.5161415e-18
2.5160172e-18
2.5159905e-18
2.5160463e-18
2.5161992e-18
2.5165036e-18
2.5185473e-18
2.5172214e-18
2.5164071e-18
2.5159252e-18
2.5156605e-18
2.5155376e-18
2.5155131e-18
2.5155725e-18
2.5157305e-18
2.5160401e-18
2.51828e-18
2.5169548e-18
2.5161415e-18
2.5156605e-18
2.5153968e-18
2.515275e-18
2.515252e-18
2.5153136e-18
2.5154743e-18
2.515786e-18
2.5181532e-18
2.5168291e-18
2.5160172e-18
2.5155376e-18
2.515275e-18
2.5151542e-18
2.5151324e-18
2.5151952e-18
2.5153572e-18
2.5156698e-18
2.5181215e-18
2.5167996e-18
2.5159905e-18
2.5155131e-18
2.515252e-18
2.5151324e-18
2.5151114e-18
2.515175e-18
2.5153377e-18
2.5156508e-18
2.5181669e-18
2.5168503e-18
2.5160463e-18
2.5155725e-18
2.5153136e-18
2.5151952e-18
2.515175e-18
2.5152392e-18
2.5154023e-18
2.5157156e-18
2.5182968e-18
2.5169938e-18
2.5161992e-18
2.5157305e-18
2.5154743e-18
2.5153572e-18
2.5153377e-18
2.5154023e-18
2.5155658e-18
2.5158794e-18
2.5185475e-18
2.5172846e-18
2.5165036e-18
2.5160401e-18
2.515786e-18
2.5156698e-18
2.5156508e-18
2.5157156e-18
2.5158794e-18
2.5161938e-18
5.1911997e-18
5.1885653e-18
5.1869425e-18
5.1859789e-18
5.1854465e-18
5.1851936e-18
5.1851302e-18
5.1852197e-18
5.1854749e-18
5.1859634e-18
5.1885653e-18
5.1859396e-18
5.1843201e-18
5.1833581e-18
5.1828272e-18
5.1825765e-18
5.1825176e-18
5.1826177e-18
5.1829007e-18
5.1834705e-18
5.1869425e-18
5.1843201e-18
5.1827029e-18
5.1817427e-18
5.1812136e-18
5.1809658e-18
5.1809124e-18
5.1810231e-18
5.1813251e-18
5.1819224e-18
5.1859789e-18
5.1833581e-18
5.1817427e-18
5.1807842e-18
5.180257e-18
5.180012e-18
5.1799631e-18
5.180081e-18
5.1803935e-18
5.1810013e-18
5.1854465e-18
5.1828272e-18
5.1812136e-18
5.180257e-18
5.1797318e-18
5.179489e-18
5.1794433e-18
5.1795657e-18
5.1798835e-18
5.1804956e-18
5.1851936e-18
5.1825765e-18
5.1809658e-18
5.180012e-18
5.179489e-18
5.1792484e-18
5.1792049e-18
5.1793298e-18
5.1796503e-18
5.1802644e-18
5.1851302e-18
5.1825176e-18
5.1809124e-18
5.1799631e-18
5.1794433e-18
5.1792049e-18
5.1791632e-18
5.1792897e-18
5.1796116e-18
5.1802265e-18
5.1852197e-18
5.1826177e-18
5.1810231e-18
5.180081e-18
5.1795657e-18
5.1793298e-18
5.1792897e-18
5.1794172e-18
5.17974e-18
5.1803555e-18
5.1854749e-18
5.1829007e-18
5.1813251e-18
5.1803935e-18
5.1798835e-18
5.1796503e-18
5.1796116e-18
5.17974e-18
5.1800634e-18
5.1806795e-18
5.1859634e-18
5.1834705e-18
5.1819224e-18
5.1810013e-18
5.1804956e-18
5.1802644e-18
5.1802265e-18
5.1803555e-18
5.1806795e-18
5.1812971e-18
1.0798736e-17
1.0793479e-17
1.0790229e-17
1.0788294e-17
1.0787223e-17
1.0786715e-17
1.0786587e-17
1.0786765e-17
1.0787271e-17
1.0788232e-17
1.0793479e-17
1.0788239e-17
1.0784995e-17
1.0783064e-17
1.0781996e-17
1.0781492e-17
1.0781373e-17
1.0781573e-17
1.0782137e-17
1.0783265e-17
1.0790229e-17
1.0784995e-17
1.0781756e-17
1.0779828e-17
1.0778764e-17
1.0778266e-17
1.0778158e-17
1.077838e-17
1.0778983e-17
1.0780167e-17
1.0788294e-17
1.0783064e-17
1.0779828e-17
1.0777904e-17
1.0776844e-17
1.0776351e-17
1.0776253e-17
1.0776489e-17
1.0777113e-17
1.0778319e-17
1.0787223e-17
1.0781996e-17
1.0778764e-17
1.0776844e-17
1.0775788e-17
1.07753e-17
1.0775208e-17
1.0775453e-17
1.0776088e-17
1.0777303e-17
1.0786715e-17
1.0781492e-17
1.0778266e-17
1.0776351e-17
1.07753e-17
1.0774816e-17
1.0774728e-17
1.0774979e-17
1.077562e-17
1.0776838e-17
1.0786587e-17
1.0781373e-17
1.0778158e-17
1.0776253e-17
1.0775208e-17
1.0774728e-17
1.0774645e-17
1.0774899e-17
1.0775542e-17
1.0776762e-17
1.0786765e-17
1.0781573e-17
1.077838e-17
1.0776489e-17
1.0775453e-17
1.0774979e-17
1.0774899e-17
1.0775155e-17
1.07758e-17
1.0777021e-17
1.0787271e-17
1.0782137e-17
1.0778983e-17
1.0777113e-17
1.0776088e-17
1.077562e-17
1.0775542e-17
1.07758e-17
1.0776446e-17
1.0777669e-17
1.0788232e-17
1.0783265e-17
1.0780167e-17
1.0778319e-17
1.0777303e-17
1.0776838e-17
1.0776762e-17
1.0777021e-17