/*--------------------------------*- C++ -*----------------------------------*\
| =========                 |                                                 |
| \\      /  F ield         | OpenFOAM: The Open Source CFD Toolbox           |
|  \\    /   O peration     | Version:  dev                                   |
|   \\  /    A nd           | Web:      www.OpenFOAM.org                      |
|    \\/     M anipulation  |                                                 |
\*---------------------------------------------------------------------------*/
FoamFile
{
    version     2.0;
    format      ascii;
    class       volScalarField;
    location    "55.995";
    object      A;
}
// * * * * * * * * * * * * * * * * * * * * * * * * * * * * * * * * * * * * * //

dimensions      [0 0 0 0 1 0 0];

internalField   nonuniform List<scalar> 
10000
(
1.0051961e-30
1.0033325e-30
1.0024991e-30
1.0021483e-30
1.0020172e-30
1.0019772e-30
1.0019783e-30
1.0020172e-30
1.0021303e-30
1.0023978e-30
1.0033325e-30
1.0014782e-30
1.0006478e-30
1.0002982e-30
1.0001675e-30
1.0001279e-30
1.0001302e-30
1.0001724e-30
1.0002956e-30
1.0005941e-30
1.0024991e-30
1.0006478e-30
9.9981898e-31
9.9947002e-31
9.9933976e-31
9.9930059e-31
9.9930386e-31
9.993489e-31
9.9947824e-31
9.9978676e-31
1.0021483e-30
1.0002982e-30
9.9947002e-31
9.9912141e-31
9.9899135e-31
9.9895245e-31
9.9895638e-31
9.9900291e-31
9.99135e-31
9.9944675e-31
1.0020172e-30
1.0001675e-30
9.9933976e-31
9.9899135e-31
9.9886142e-31
9.9882267e-31
9.988269e-31
9.9887406e-31
9.9900718e-31
9.9931996e-31
1.0019772e-30
1.0001279e-30
9.9930059e-31
9.9895245e-31
9.9882267e-31
9.9878402e-31
9.9878838e-31
9.9883577e-31
9.9896924e-31
9.9928233e-31
1.0019783e-30
1.0001302e-30
9.9930386e-31
9.9895638e-31
9.988269e-31
9.9878838e-31
9.9879282e-31
9.988403e-31
9.9897389e-31
9.9928708e-31
1.0020172e-30
1.0001724e-30
9.993489e-31
9.9900291e-31
9.9887406e-31
9.9883577e-31
9.988403e-31
9.9888784e-31
9.9902151e-31
9.9933478e-31
1.0021303e-30
1.0002956e-30
9.9947824e-31
9.99135e-31
9.9900718e-31
9.9896924e-31
9.9897389e-31
9.9902151e-31
9.9915531e-31
9.9946885e-31
1.0023978e-30
1.0005941e-30
9.9978676e-31
9.9944675e-31
9.9931996e-31
9.9928233e-31
9.9928708e-31
9.9933478e-31
9.9946885e-31
9.9978331e-31
3.556982e-30
3.5506309e-30
3.5477195e-30
3.5464917e-30
3.5460325e-30
3.5458922e-30
3.5458958e-30
3.5460315e-30
3.5464262e-30
3.5473975e-30
3.5506309e-30
3.5443106e-30
3.5414098e-30
3.5401858e-30
3.5397283e-30
3.5395894e-30
3.539597e-30
3.5397444e-30
3.5401748e-30
3.5412564e-30
3.5477195e-30
3.5414098e-30
3.5385143e-30
3.5372927e-30
3.5368364e-30
3.5366991e-30
3.5367104e-30
3.5368676e-30
3.5373199e-30
3.5384366e-30
3.5464917e-30
3.5401858e-30
3.5372927e-30
3.5360723e-30
3.5356167e-30
3.5354804e-30
3.535494e-30
3.5356565e-30
3.5361184e-30
3.5372466e-30
3.5460325e-30
3.5397283e-30
3.5368364e-30
3.5356167e-30
3.5351615e-30
3.5350257e-30
3.5350404e-30
3.5352051e-30
3.5356707e-30
3.5368025e-30
3.5458922e-30
3.5395894e-30
3.5366991e-30
3.5354804e-30
3.5350257e-30
3.5348903e-30
3.5349054e-30
3.5350709e-30
3.5355378e-30
3.5366706e-30
3.5458958e-30
3.539597e-30
3.5367104e-30
3.535494e-30
3.5350404e-30
3.5349054e-30
3.5349208e-30
3.5350867e-30
3.5355539e-30
3.5366871e-30
3.5460315e-30
3.5397444e-30
3.5368676e-30
3.5356565e-30
3.5352051e-30
3.5350709e-30
3.5350867e-30
3.5352527e-30
3.5357202e-30
3.5368537e-30
3.5464262e-30
3.5401748e-30
3.5373199e-30
3.5361184e-30
3.5356707e-30
3.5355378e-30
3.5355539e-30
3.5357202e-30
3.5361882e-30
3.5373227e-30
3.5473975e-30
3.5412564e-30
3.5384366e-30
3.5372466e-30
3.5368025e-30
3.5366706e-30
3.5366871e-30
3.5368537e-30
3.5373227e-30
3.5384605e-30
8.0857547e-30
8.0717781e-30
8.0653006e-30
8.0625624e-30
8.0615373e-30
8.0612235e-30
8.061231e-30
8.061531e-30
8.0624047e-30
8.0646197e-30
8.0717781e-30
8.0578684e-30
8.0514139e-30
8.0486842e-30
8.0476626e-30
8.0473523e-30
8.0473685e-30
8.0476952e-30
8.0486498e-30
8.0511149e-30
8.0653006e-30
8.0514139e-30
8.0449714e-30
8.0422469e-30
8.041228e-30
8.0409211e-30
8.0409458e-30
8.0412947e-30
8.0422987e-30
8.0448432e-30
8.0625624e-30
8.0486842e-30
8.0422469e-30
8.039525e-30
8.0385078e-30
8.0382031e-30
8.0382329e-30
8.0385937e-30
8.0396196e-30
8.0421899e-30
8.0615373e-30
8.0476626e-30
8.041228e-30
8.0385078e-30
8.0374915e-30
8.037188e-30
8.0372203e-30
8.0375861e-30
8.0386202e-30
8.0411987e-30
8.0612235e-30
8.0473523e-30
8.0409211e-30
8.0382031e-30
8.037188e-30
8.0368852e-30
8.0369186e-30
8.0372862e-30
8.0383232e-30
8.0409041e-30
8.061231e-30
8.0473685e-30
8.0409458e-30
8.0382329e-30
8.0372203e-30
8.0369186e-30
8.0369525e-30
8.0373209e-30
8.0383588e-30
8.0409405e-30
8.061531e-30
8.0476952e-30
8.0412947e-30
8.0385937e-30
8.0375861e-30
8.0372862e-30
8.0373209e-30
8.0376897e-30
8.0387282e-30
8.0413106e-30
8.0624047e-30
8.0486498e-30
8.0422987e-30
8.0396196e-30
8.0386202e-30
8.0383232e-30
8.0383588e-30
8.0387282e-30
8.0397677e-30
8.0423522e-30
8.0646197e-30
8.0511149e-30
8.0448432e-30
8.0421899e-30
8.0411987e-30
8.0409041e-30
8.0409405e-30
8.0413106e-30
8.0423522e-30
8.0449448e-30
1.7249535e-29
1.7220661e-29
1.7207198e-29
1.7201494e-29
1.7199356e-29
1.71987e-29
1.7198714e-29
1.7199332e-29
1.720113e-29
1.7205713e-29
1.7220661e-29
1.7191925e-29
1.7178509e-29
1.7172822e-29
1.7170691e-29
1.7170043e-29
1.7170075e-29
1.717075e-29
1.7172719e-29
1.7177833e-29
1.7207198e-29
1.7178509e-29
1.7165117e-29
1.7159441e-29
1.7157316e-29
1.7156675e-29
1.7156725e-29
1.7157447e-29
1.7159521e-29
1.7164804e-29
1.7201494e-29
1.7172822e-29
1.7159441e-29
1.715377e-29
1.7151648e-29
1.7151012e-29
1.7151073e-29
1.715182e-29
1.7153941e-29
1.7159278e-29
1.7199356e-29
1.7170691e-29
1.7157316e-29
1.7151648e-29
1.7149528e-29
1.7148894e-29
1.7148961e-29
1.7149719e-29
1.7151857e-29
1.7157211e-29
1.71987e-29
1.7170043e-29
1.7156675e-29
1.7151012e-29
1.7148894e-29
1.7148262e-29
1.7148331e-29
1.7149092e-29
1.7151236e-29
1.7156596e-29
1.7198714e-29
1.7170075e-29
1.7156725e-29
1.7151073e-29
1.7148961e-29
1.7148331e-29
1.71484e-29
1.7149164e-29
1.715131e-29
1.7156671e-29
1.7199332e-29
1.717075e-29
1.7157447e-29
1.715182e-29
1.7149719e-29
1.7149092e-29
1.7149164e-29
1.7149928e-29
1.7152075e-29
1.7157438e-29
1.720113e-29
1.7172719e-29
1.7159521e-29
1.7153941e-29
1.7151857e-29
1.7151236e-29
1.715131e-29
1.7152075e-29
1.7154225e-29
1.7159592e-29
1.7205713e-29
1.7177833e-29
1.7164804e-29
1.7159278e-29
1.7157211e-29
1.7156596e-29
1.7156671e-29
1.7157438e-29
1.7159592e-29
1.7164976e-29
3.6646756e-29
3.6587373e-29
3.6559564e-29
3.6547755e-29
3.6543322e-29
3.6541962e-29
3.6541985e-29
3.6543252e-29
3.6546918e-29
3.6556225e-29
3.6587373e-29
3.6528268e-29
3.6500554e-29
3.6488781e-29
3.6484363e-29
3.6483018e-29
3.648308e-29
3.6484466e-29
3.6488495e-29
3.6498925e-29
3.6559564e-29
3.6500554e-29
3.6472891e-29
3.646114e-29
3.6456734e-29
3.6455403e-29
3.6455504e-29
3.6456989e-29
3.6461239e-29
3.6472025e-29
3.6547755e-29
3.6488781e-29
3.646114e-29
3.64494e-29
3.6445001e-29
3.644368e-29
3.6443804e-29
3.6445342e-29
3.6449689e-29
3.6460591e-29
3.6543322e-29
3.6484363e-29
3.6456734e-29
3.6445001e-29
3.6440606e-29
3.6439291e-29
3.6439425e-29
3.6440985e-29
3.644537e-29
3.6456308e-29
3.6541962e-29
3.6483018e-29
3.6455403e-29
3.644368e-29
3.6439291e-29
3.6437978e-29
3.6438118e-29
3.6439686e-29
3.6444083e-29
3.6455032e-29
3.6541985e-29
3.648308e-29
3.6455504e-29
3.6443804e-29
3.6439425e-29
3.6438118e-29
3.643826e-29
3.6439831e-29
3.6444232e-29
3.6455185e-29
3.6543252e-29
3.6484466e-29
3.6456989e-29
3.6445342e-29
3.6440985e-29
3.6439686e-29
3.6439831e-29
3.6441405e-29
3.6445809e-29
3.6456764e-29
3.6546918e-29
3.6488495e-29
3.6461239e-29
3.6449689e-29
3.644537e-29
3.6444083e-29
3.6444232e-29
3.6445809e-29
3.6450216e-29
3.6461181e-29
3.6556225e-29
3.6498925e-29
3.6472025e-29
3.6460591e-29
3.6456308e-29
3.6455032e-29
3.6455185e-29
3.6456764e-29
3.6461181e-29
3.6472179e-29
7.8548717e-29
7.8425547e-29
7.8367653e-29
7.8343016e-29
7.8333756e-29
7.8330909e-29
7.833095e-29
7.8333563e-29
7.834109e-29
7.8360058e-29
7.8425547e-29
7.8302948e-29
7.824525e-29
7.8220685e-29
7.8211456e-29
7.8208642e-29
7.8208765e-29
7.821163e-29
7.821993e-29
7.8241294e-29
7.8367653e-29
7.824525e-29
7.8187655e-29
7.8163136e-29
7.8153931e-29
7.8151148e-29
7.8151352e-29
7.8154429e-29
7.8163198e-29
7.8185321e-29
7.8343016e-29
7.8220685e-29
7.8163136e-29
7.8138641e-29
7.8129451e-29
7.8126688e-29
7.8126941e-29
7.813013e-29
7.8139108e-29
7.8161476e-29
7.8333756e-29
7.8211456e-29
7.8153931e-29
7.8129451e-29
7.8120269e-29
7.8117518e-29
7.8117794e-29
7.8121031e-29
7.8130086e-29
7.8152533e-29
7.8330909e-29
7.8208642e-29
7.8151148e-29
7.8126688e-29
7.8117518e-29
7.8114774e-29
7.811506e-29
7.8118314e-29
7.8127396e-29
7.8149865e-29
7.833095e-29
7.8208765e-29
7.8151352e-29
7.8126941e-29
7.8117794e-29
7.811506e-29
7.8115351e-29
7.8118612e-29
7.8127703e-29
7.815018e-29
7.8333563e-29
7.821163e-29
7.8154429e-29
7.813013e-29
7.8121031e-29
7.8118314e-29
7.8118612e-29
7.8121878e-29
7.8130974e-29
7.8153457e-29
7.834109e-29
7.821993e-29
7.8163198e-29
7.8139108e-29
7.8130086e-29
7.8127396e-29
7.8127703e-29
7.8130974e-29
7.8140078e-29
7.8162579e-29
7.8360058e-29
7.8241294e-29
7.8185321e-29
7.8161476e-29
7.8152533e-29
7.8149865e-29
7.815018e-29
7.8153457e-29
7.8162579e-29
7.8185149e-29
1.703692e-28
1.7011079e-28
1.699889e-28
1.6993692e-28
1.6991736e-28
1.6991134e-28
1.699114e-28
1.6991685e-28
1.6993248e-28
1.6997153e-28
1.7011079e-28
1.6985356e-28
1.6973208e-28
1.6968025e-28
1.6966075e-28
1.696548e-28
1.6965504e-28
1.6966104e-28
1.6967832e-28
1.6972254e-28
1.699889e-28
1.6973208e-28
1.6961081e-28
1.6955908e-28
1.6953963e-28
1.6953374e-28
1.6953416e-28
1.6954061e-28
1.6955891e-28
1.6960476e-28
1.6993692e-28
1.6968025e-28
1.6955908e-28
1.6950739e-28
1.6948798e-28
1.6948214e-28
1.6948266e-28
1.6948935e-28
1.695081e-28
1.6955448e-28
1.6991736e-28
1.6966075e-28
1.6953963e-28
1.6948798e-28
1.6946858e-28
1.6946276e-28
1.6946334e-28
1.6947013e-28
1.6948904e-28
1.6953559e-28
1.6991134e-28
1.696548e-28
1.6953374e-28
1.6948214e-28
1.6946276e-28
1.6945696e-28
1.6945755e-28
1.6946438e-28
1.6948335e-28
1.6952995e-28
1.699114e-28
1.6965504e-28
1.6953416e-28
1.6948266e-28
1.6946334e-28
1.6945755e-28
1.6945816e-28
1.69465e-28
1.6948399e-28
1.6953061e-28
1.6991685e-28
1.6966104e-28
1.6954061e-28
1.6948935e-28
1.6947013e-28
1.6946438e-28
1.69465e-28
1.6947186e-28
1.6949086e-28
1.6953748e-28
1.6993248e-28
1.6967832e-28
1.6955891e-28
1.695081e-28
1.6948904e-28
1.6948335e-28
1.6948399e-28
1.6949086e-28
1.6950988e-28
1.6955654e-28
1.6997153e-28
1.6972254e-28
1.6960476e-28
1.6955448e-28
1.6953559e-28
1.6952995e-28
1.6953061e-28
1.6953748e-28
1.6955654e-28
1.6960334e-28
3.742032e-28
3.7365442e-28
3.7339468e-28
3.732837e-28
3.7324187e-28
3.7322898e-28
3.7322908e-28
3.7324059e-28
3.7327342e-28
3.7335477e-28
3.7365442e-28
3.7310813e-28
3.7284925e-28
3.7273857e-28
3.7269688e-28
3.7268414e-28
3.7268463e-28
3.7269732e-28
3.7273378e-28
3.728264e-28
3.7339468e-28
3.7284925e-28
3.7259081e-28
3.7248034e-28
3.7243876e-28
3.7242616e-28
3.7242703e-28
3.7244071e-28
3.7247937e-28
3.7257556e-28
3.732837e-28
3.7273857e-28
3.7248034e-28
3.7236998e-28
3.7232846e-28
3.7231596e-28
3.7231706e-28
3.7233126e-28
3.723709e-28
3.7246824e-28
3.7324187e-28
3.7269688e-28
3.7243876e-28
3.7232846e-28
3.7228699e-28
3.7227454e-28
3.7227574e-28
3.7229017e-28
3.7233017e-28
3.7242788e-28
3.7322898e-28
3.7268414e-28
3.7242616e-28
3.7231596e-28
3.7227454e-28
3.7226212e-28
3.7226337e-28
3.7227788e-28
3.72318e-28
3.7241582e-28
3.7322908e-28
3.7268463e-28
3.7242703e-28
3.7231706e-28
3.7227574e-28
3.7226337e-28
3.7226465e-28
3.7227919e-28
3.7231935e-28
3.724172e-28
3.7324059e-28
3.7269732e-28
3.7244071e-28
3.7233126e-28
3.7229017e-28
3.7227788e-28
3.7227919e-28
3.7229375e-28
3.7233394e-28
3.7243181e-28
3.7327342e-28
3.7273378e-28
3.7247937e-28
3.723709e-28
3.7233017e-28
3.72318e-28
3.7231935e-28
3.7233394e-28
3.7237416e-28
3.7247211e-28
3.7335477e-28
3.728264e-28
3.7257556e-28
3.7246824e-28
3.7242788e-28
3.7241582e-28
3.724172e-28
3.7243181e-28
3.7247211e-28
3.7257036e-28
8.3249467e-28
8.3131475e-28
8.3075441e-28
8.305145e-28
8.3042397e-28
8.3039602e-28
8.3039618e-28
8.3042078e-28
8.3049064e-28
8.3066221e-28
8.3131475e-28
8.3014013e-28
8.2958161e-28
8.2934236e-28
8.2925212e-28
8.292245e-28
8.292255e-28
8.2925272e-28
8.2933058e-28
8.2952706e-28
8.3075441e-28
8.2958161e-28
8.2902405e-28
8.2878524e-28
8.2869523e-28
8.2866793e-28
8.2866976e-28
8.2869915e-28
8.2878186e-28
8.2898621e-28
8.305145e-28
8.2934236e-28
8.2878524e-28
8.2854665e-28
8.2845679e-28
8.2842969e-28
8.2843203e-28
8.2846258e-28
8.2854744e-28
8.2875434e-28
8.3042397e-28
8.2925212e-28
8.2869523e-28
8.2845679e-28
8.2836702e-28
8.2834004e-28
8.2834261e-28
8.2837365e-28
8.2845932e-28
8.2866702e-28
8.3039602e-28
8.292245e-28
8.2866793e-28
8.2842969e-28
8.2834004e-28
8.2831313e-28
8.283158e-28
8.2834703e-28
8.2843296e-28
8.2864091e-28
8.3039618e-28
8.292255e-28
8.2866976e-28
8.2843203e-28
8.2834261e-28
8.283158e-28
8.2831853e-28
8.2834983e-28
8.2843585e-28
8.2864387e-28
8.3042078e-28
8.2925272e-28
8.2869915e-28
8.2846258e-28
8.2837365e-28
8.2834703e-28
8.2834983e-28
8.2838116e-28
8.2846724e-28
8.2867532e-28
8.3049064e-28
8.2933058e-28
8.2878186e-28
8.2854744e-28
8.2845932e-28
8.2843296e-28
8.2843585e-28
8.2846724e-28
8.285534e-28
8.2876163e-28
8.3066221e-28
8.2952706e-28
8.2898621e-28
8.2875434e-28
8.2866702e-28
8.2864091e-28
8.2864387e-28
8.2867532e-28
8.2876163e-28
8.2897048e-28
1.8760965e-27
1.8735278e-27
1.8723039e-27
1.8717789e-27
1.8715805e-27
1.8715192e-27
1.8715193e-27
1.8715726e-27
1.8717231e-27
1.8720896e-27
1.8735278e-27
1.8709705e-27
1.8697506e-27
1.8692269e-27
1.8690292e-27
1.8689686e-27
1.8689706e-27
1.8690298e-27
1.8691982e-27
1.8696203e-27
1.8723039e-27
1.8697506e-27
1.8685327e-27
1.86801e-27
1.8678127e-27
1.8677528e-27
1.8677568e-27
1.8678207e-27
1.868e-27
1.8684397e-27
1.8717789e-27
1.8692269e-27
1.86801e-27
1.8674878e-27
1.8672909e-27
1.8672314e-27
1.8672365e-27
1.867303e-27
1.8674871e-27
1.8679325e-27
1.8715805e-27
1.8690292e-27
1.8678127e-27
1.8672909e-27
1.8670942e-27
1.867035e-27
1.8670405e-27
1.8671082e-27
1.867294e-27
1.8677412e-27
1.8715192e-27
1.8689686e-27
1.8677528e-27
1.8672314e-27
1.867035e-27
1.866976e-27
1.8669817e-27
1.8670498e-27
1.8672362e-27
1.867684e-27
1.8715193e-27
1.8689706e-27
1.8677568e-27
1.8672365e-27
1.8670405e-27
1.8669817e-27
1.8669877e-27
1.8670559e-27
1.8672425e-27
1.8676904e-27
1.8715726e-27
1.8690298e-27
1.8678207e-27
1.867303e-27
1.8671082e-27
1.8670498e-27
1.8670559e-27
1.8671242e-27
1.8673109e-27
1.867759e-27
1.8717231e-27
1.8691982e-27
1.868e-27
1.8674871e-27
1.867294e-27
1.8672362e-27
1.8672425e-27
1.8673109e-27
1.8674978e-27
1.8679462e-27
1.8720896e-27
1.8696203e-27
1.8684397e-27
1.8679325e-27
1.8677412e-27
1.867684e-27
1.8676904e-27
1.867759e-27
1.8679462e-27
1.8683959e-27
4.2830919e-27
4.2774296e-27
4.2747228e-27
4.2735594e-27
4.2731193e-27
4.2729831e-27
4.2729831e-27
4.2731e-27
4.2734285e-27
4.274221e-27
4.2774296e-27
4.2717922e-27
4.269094e-27
4.2679337e-27
4.2674949e-27
4.2673603e-27
4.2673646e-27
4.2674947e-27
4.2678636e-27
4.2687823e-27
4.2747228e-27
4.269094e-27
4.2664003e-27
4.2652421e-27
4.2648045e-27
4.2646714e-27
4.2646799e-27
4.264821e-27
4.2652144e-27
4.2661729e-27
4.2735594e-27
4.2679337e-27
4.2652421e-27
4.2640849e-27
4.263648e-27
4.263516e-27
4.263527e-27
4.2636739e-27
4.2640782e-27
4.2650496e-27
4.2731193e-27
4.2674949e-27
4.2648045e-27
4.263648e-27
4.2632115e-27
4.2630801e-27
4.2630923e-27
4.2632417e-27
4.26365e-27
4.2646255e-27
4.2729831e-27
4.2673603e-27
4.2646714e-27
4.263516e-27
4.2630801e-27
4.2629491e-27
4.2629618e-27
4.263112e-27
4.2635217e-27
4.2644984e-27
4.2729831e-27
4.2673646e-27
4.2646799e-27
4.263527e-27
4.2630923e-27
4.2629618e-27
4.2629748e-27
4.2631254e-27
4.2635356e-27
4.2645126e-27
4.2731e-27
4.2674947e-27
4.264821e-27
4.2636739e-27
4.2632417e-27
4.263112e-27
4.2631254e-27
4.2632762e-27
4.2636866e-27
4.264664e-27
4.2734285e-27
4.2678636e-27
4.2652144e-27
4.2640782e-27
4.26365e-27
4.2635217e-27
4.2635356e-27
4.2636866e-27
4.2640974e-27
4.2650755e-27
4.274221e-27
4.2687823e-27
4.2661729e-27
4.2650496e-27
4.2646255e-27
4.2644984e-27
4.2645126e-27
4.264664e-27
4.2650755e-27
4.2660563e-27
9.906293e-27
9.8936538e-27
9.8875926e-27
9.8849822e-27
9.8839935e-27
9.8836871e-27
9.8836865e-27
9.8839461e-27
9.8846723e-27
9.8864084e-27
9.8936538e-27
9.8810697e-27
9.8750272e-27
9.8724237e-27
9.8714381e-27
9.8711353e-27
9.8711445e-27
9.8714344e-27
9.8722532e-27
9.8742786e-27
9.8875926e-27
9.8750272e-27
9.8689948e-27
9.8663959e-27
9.8654129e-27
9.8651137e-27
9.8651324e-27
9.8654474e-27
9.8663223e-27
9.868439e-27
9.8849822e-27
9.8724237e-27
9.8663959e-27
9.8637995e-27
9.862818e-27
9.8625212e-27
9.8625457e-27
9.862874e-27
9.8637737e-27
9.8659199e-27
9.8839935e-27
9.8714381e-27
9.8654129e-27
9.862818e-27
9.8618375e-27
9.861542e-27
9.8615692e-27
9.8619032e-27
9.8628122e-27
9.8649677e-27
9.8836871e-27
9.8711353e-27
9.8651137e-27
9.8625212e-27
9.861542e-27
9.8612474e-27
9.8612758e-27
9.8616118e-27
9.8625239e-27
9.8646823e-27
9.8836865e-27
9.8711445e-27
9.8651324e-27
9.8625457e-27
9.8615692e-27
9.8612758e-27
9.8613048e-27
9.8616416e-27
9.8625548e-27
9.864714e-27
9.8839461e-27
9.8714344e-27
9.8654474e-27
9.862874e-27
9.8619032e-27
9.8616118e-27
9.8616416e-27
9.861979e-27
9.8628927e-27
9.8650525e-27
9.8846723e-27
9.8722532e-27
9.8663223e-27
9.8637737e-27
9.8628122e-27
9.8625239e-27
9.8625548e-27
9.8628927e-27
9.8638072e-27
9.8659685e-27
9.8864084e-27
9.8742786e-27
9.868439e-27
9.8659199e-27
9.8649677e-27
9.8646823e-27
9.864714e-27
9.8650525e-27
9.8659685e-27
9.8681359e-27
2.3213212e-26
2.3184643e-26
2.3170899e-26
2.3164969e-26
2.316272e-26
2.3162022e-26
2.3162019e-26
2.3162603e-26
2.3164229e-26
2.3168081e-26
2.3184643e-26
2.3156197e-26
2.3142495e-26
2.313658e-26
2.3134338e-26
2.3133648e-26
2.3133668e-26
2.3134322e-26
2.3136163e-26
2.3140687e-26
2.3170899e-26
2.3142495e-26
2.3128815e-26
2.312291e-26
2.3120674e-26
2.3119993e-26
2.3120035e-26
2.3120748e-26
2.3122719e-26
2.3127454e-26
2.3164969e-26
2.313658e-26
2.312291e-26
2.3117011e-26
2.3114779e-26
2.3114103e-26
2.3114158e-26
2.3114902e-26
2.311693e-26
2.3121734e-26
2.316272e-26
2.3134338e-26
2.3120674e-26
2.3114779e-26
2.3112549e-26
2.3111876e-26
2.3111937e-26
2.3112694e-26
2.3114744e-26
2.311957e-26
2.3162022e-26
2.3133648e-26
2.3119993e-26
2.3114103e-26
2.3111876e-26
2.3111206e-26
2.311127e-26
2.3112031e-26
2.3114088e-26
2.311892e-26
2.3162019e-26
2.3133668e-26
2.3120035e-26
2.3114158e-26
2.3111937e-26
2.311127e-26
2.3111335e-26
2.3112099e-26
2.3114158e-26
2.3118992e-26
2.3162603e-26
2.3134322e-26
2.3120748e-26
2.3114902e-26
2.3112694e-26
2.3112031e-26
2.3112099e-26
2.3112863e-26
2.3114924e-26
2.3119759e-26
2.3164229e-26
2.3136163e-26
2.3122719e-26
2.311693e-26
2.3114744e-26
2.3114088e-26
2.3114158e-26
2.3114924e-26
2.3116986e-26
2.3121825e-26
2.3168081e-26
2.3140687e-26
2.3127454e-26
2.3121734e-26
2.311957e-26
2.311892e-26
2.3118992e-26
2.3119759e-26
2.3121825e-26
2.3126677e-26
5.5111739e-26
5.5046344e-26
5.5014785e-26
5.5001144e-26
5.4995964e-26
5.4994355e-26
5.4994345e-26
5.4995678e-26
5.4999366e-26
5.5008022e-26
5.5046344e-26
5.4981227e-26
5.4949764e-26
5.4936157e-26
5.4930993e-26
5.4929404e-26
5.4929447e-26
5.4930944e-26
5.4935137e-26
5.4945373e-26
5.5014785e-26
5.4949764e-26
5.4918352e-26
5.4904768e-26
5.4899618e-26
5.4898049e-26
5.4898143e-26
5.4899777e-26
5.4904275e-26
5.4915008e-26
5.5001144e-26
5.4936157e-26
5.4904768e-26
5.4891197e-26
5.4886056e-26
5.4884499e-26
5.4884625e-26
5.4886331e-26
5.4890964e-26
5.4901858e-26
5.4995964e-26
5.4930993e-26
5.4899618e-26
5.4886056e-26
5.4880919e-26
5.4879369e-26
5.487951e-26
5.4881246e-26
5.488593e-26
5.4896876e-26
5.4994355e-26
5.4929404e-26
5.4898049e-26
5.4884499e-26
5.4879369e-26
5.4877824e-26
5.4877971e-26
5.4879719e-26
5.4884419e-26
5.489538e-26
5.4994345e-26
5.4929447e-26
5.4898143e-26
5.4884625e-26
5.487951e-26
5.4877971e-26
5.4878122e-26
5.4879874e-26
5.488458e-26
5.4895545e-26
5.4995678e-26
5.4930944e-26
5.4899777e-26
5.4886331e-26
5.4881246e-26
5.4879719e-26
5.4879874e-26
5.4881628e-26
5.4886337e-26
5.4897306e-26
5.4999366e-26
5.4935137e-26
5.4904275e-26
5.4890964e-26
5.488593e-26
5.4884419e-26
5.488458e-26
5.4886337e-26
5.4891051e-26
5.4902027e-26
5.5008022e-26
5.4945373e-26
5.4915008e-26
5.4901858e-26
5.4896876e-26
5.489538e-26
5.4895545e-26
5.4897306e-26
5.4902027e-26
5.4913032e-26
1.325708e-25
1.3241921e-25
1.3234583e-25
1.3231406e-25
1.3230198e-25
1.3229822e-25
1.3229819e-25
1.3230127e-25
1.3230974e-25
1.3232945e-25
1.3241921e-25
1.3226826e-25
1.3219511e-25
1.3216341e-25
1.3215137e-25
1.3214766e-25
1.3214775e-25
1.3215122e-25
1.321609e-25
1.3218436e-25
1.3234583e-25
1.3219511e-25
1.3212207e-25
1.3209042e-25
1.3207841e-25
1.3207475e-25
1.3207497e-25
1.3207876e-25
1.3208916e-25
1.3211381e-25
1.3231406e-25
1.3216341e-25
1.3209042e-25
1.3205881e-25
1.3204682e-25
1.3204319e-25
1.3204348e-25
1.3204744e-25
1.3205816e-25
1.320832e-25
1.3230198e-25
1.3215137e-25
1.3207841e-25
1.3204682e-25
1.3203484e-25
1.3203122e-25
1.3203155e-25
1.3203559e-25
1.3204643e-25
1.3207159e-25
1.3229822e-25
1.3214766e-25
1.3207475e-25
1.3204319e-25
1.3203122e-25
1.3202762e-25
1.3202796e-25
1.3203203e-25
1.3204291e-25
1.320681e-25
1.3229819e-25
1.3214775e-25
1.3207497e-25
1.3204348e-25
1.3203155e-25
1.3202796e-25
1.3202831e-25
1.3203239e-25
1.3204328e-25
1.3206848e-25
1.3230127e-25
1.3215122e-25
1.3207876e-25
1.3204744e-25
1.3203559e-25
1.3203203e-25
1.3203239e-25
1.3203647e-25
1.3204737e-25
1.3207258e-25
1.3230974e-25
1.321609e-25
1.3208916e-25
1.3205816e-25
1.3204643e-25
1.3204291e-25
1.3204328e-25
1.3204737e-25
1.3205828e-25
1.3208351e-25
1.3232945e-25
1.3218436e-25
1.3211381e-25
1.320832e-25
1.3207159e-25
1.320681e-25
1.3206848e-25
1.3207258e-25
1.3208351e-25
1.321088e-25
3.2311112e-25
3.2275529e-25
3.2258254e-25
3.2250759e-25
3.2247907e-25
3.2247019e-25
3.224701e-25
3.224773e-25
3.2249703e-25
3.2254246e-25
3.2275529e-25
3.2240096e-25
3.2222871e-25
3.2215394e-25
3.2212551e-25
3.2211674e-25
3.2211695e-25
3.221251e-25
3.2214772e-25
3.2220222e-25
3.2258254e-25
3.2222871e-25
3.2205673e-25
3.219821e-25
3.2195373e-25
3.2194508e-25
3.2194559e-25
3.2195451e-25
3.2197888e-25
3.2203624e-25
3.2250759e-25
3.2215394e-25
3.219821e-25
3.2190753e-25
3.2187921e-25
3.2187063e-25
3.2187132e-25
3.2188065e-25
3.2190579e-25
3.2196408e-25
3.2247907e-25
3.2212551e-25
3.2195373e-25
3.2187921e-25
3.2185093e-25
3.2184238e-25
3.2184315e-25
3.2185267e-25
3.218781e-25
3.2193667e-25
3.2247019e-25
3.2211674e-25
3.2194508e-25
3.2187063e-25
3.2184238e-25
3.2183386e-25
3.2183467e-25
3.2184425e-25
3.2186977e-25
3.2192844e-25
3.224701e-25
3.2211695e-25
3.2194559e-25
3.2187132e-25
3.2184315e-25
3.2183467e-25
3.218355e-25
3.218451e-25
3.2187066e-25
3.2192935e-25
3.224773e-25
3.221251e-25
3.2195451e-25
3.2188065e-25
3.2185267e-25
3.2184425e-25
3.218451e-25
3.2185472e-25
3.2188029e-25
3.21939e-25
3.2249703e-25
3.2214772e-25
3.2197888e-25
3.2190579e-25
3.218781e-25
3.2186977e-25
3.2187066e-25
3.2188029e-25
3.2190589e-25
3.2196463e-25
3.2254246e-25
3.2220222e-25
3.2203624e-25
3.2196408e-25
3.2193667e-25
3.2192844e-25
3.2192935e-25
3.21939e-25
3.2196463e-25
3.2202353e-25
7.9791516e-25
7.9706936e-25
7.966575e-25
7.9647851e-25
7.9641032e-25
7.9638907e-25
7.9638882e-25
7.964059e-25
7.9645241e-25
7.9655854e-25
7.9706936e-25
7.9622706e-25
7.9581639e-25
7.9563783e-25
7.9556985e-25
7.9554886e-25
7.9554936e-25
7.9556873e-25
7.956223e-25
7.9575057e-25
7.966575e-25
7.9581639e-25
7.9540637e-25
7.9522811e-25
7.951603e-25
7.9513959e-25
7.951408e-25
7.9516207e-25
7.952199e-25
7.9535514e-25
7.9647851e-25
7.9563783e-25
7.9522811e-25
7.9505001e-25
7.9498231e-25
7.9496178e-25
7.9496343e-25
7.9498571e-25
7.9504542e-25
7.9518291e-25
7.9641032e-25
7.9556985e-25
7.951603e-25
7.9498231e-25
7.9491469e-25
7.9489425e-25
7.948961e-25
7.9491881e-25
7.9497923e-25
7.9511743e-25
7.9638907e-25
7.9554886e-25
7.9513959e-25
7.9496178e-25
7.9489425e-25
7.9487388e-25
7.9487582e-25
7.9489868e-25
7.9495934e-25
7.9509775e-25
7.9638882e-25
7.9554936e-25
7.951408e-25
7.9496343e-25
7.948961e-25
7.9487582e-25
7.9487781e-25
7.9490073e-25
7.9496146e-25
7.9509994e-25
7.964059e-25
7.9556873e-25
7.9516207e-25
7.9498571e-25
7.9491881e-25
7.9489868e-25
7.9490073e-25
7.9492369e-25
7.9498446e-25
7.9512298e-25
7.9645241e-25
7.956223e-25
7.952199e-25
7.9504542e-25
7.9497923e-25
7.9495934e-25
7.9496146e-25
7.9498446e-25
7.9504528e-25
7.9518389e-25
7.9655854e-25
7.9575057e-25
7.9535514e-25
7.9518291e-25
7.9511743e-25
7.9509775e-25
7.9509994e-25
7.9512298e-25
7.9518389e-25
7.9532285e-25
1.996446e-24
1.9944101e-24
1.9934159e-24
1.9929831e-24
1.992818e-24
1.9927665e-24
1.9927658e-24
1.9928068e-24
1.992918e-24
1.9931691e-24
1.9944101e-24
1.9923826e-24
1.9913913e-24
1.9909595e-24
1.9907949e-24
1.990744e-24
1.9907452e-24
1.9907919e-24
1.9909204e-24
1.9912263e-24
1.9934159e-24
1.9913913e-24
1.9904014e-24
1.9899703e-24
1.9898062e-24
1.989756e-24
1.9897589e-24
1.9898103e-24
1.9899494e-24
1.9902724e-24
1.9929831e-24
1.9909595e-24
1.9899703e-24
1.9895396e-24
1.9893758e-24
1.989326e-24
1.98933e-24
1.9893839e-24
1.9895276e-24
1.9898562e-24
1.992818e-24
1.9907949e-24
1.9898062e-24
1.9893758e-24
1.989212e-24
1.9891626e-24
1.9891671e-24
1.989222e-24
1.9893674e-24
1.9896978e-24
1.9927665e-24
1.990744e-24
1.989756e-24
1.989326e-24
1.9891626e-24
1.9891132e-24
1.9891179e-24
1.9891732e-24
1.9893193e-24
1.9896502e-24
1.9927658e-24
1.9907452e-24
1.9897589e-24
1.98933e-24
1.9891671e-24
1.9891179e-24
1.9891228e-24
1.9891782e-24
1.9893245e-24
1.9896555e-24
1.9928068e-24
1.9907919e-24
1.9898103e-24
1.9893839e-24
1.989222e-24
1.9891732e-24
1.9891782e-24
1.9892338e-24
1.9893801e-24
1.9897113e-24
1.992918e-24
1.9909204e-24
1.9899494e-24
1.9895276e-24
1.9893674e-24
1.9893193e-24
1.9893245e-24
1.9893801e-24
1.9895265e-24
1.9898579e-24
1.9931691e-24
1.9912263e-24
1.9902724e-24
1.9898562e-24
1.9896978e-24
1.9896502e-24
1.9896555e-24
1.9897113e-24
1.9898579e-24
1.9901901e-24
5.0610912e-24
5.0561294e-24
5.0536993e-24
5.0526396e-24
5.052235e-24
5.0521088e-24
5.052107e-24
5.0522067e-24
5.0524756e-24
5.0530774e-24
5.0561294e-24
5.0511877e-24
5.0487645e-24
5.0477073e-24
5.0473039e-24
5.0471792e-24
5.047182e-24
5.0472959e-24
5.0476085e-24
5.0483473e-24
5.0536993e-24
5.0487645e-24
5.0463451e-24
5.0452896e-24
5.0448872e-24
5.0447642e-24
5.0447714e-24
5.0448971e-24
5.0452359e-24
5.0460179e-24
5.0526396e-24
5.0477073e-24
5.0452896e-24
5.0442351e-24
5.0438334e-24
5.0437115e-24
5.0437213e-24
5.0438532e-24
5.0442037e-24
5.0449995e-24
5.052235e-24
5.0473039e-24
5.0448872e-24
5.0438334e-24
5.0434321e-24
5.0433108e-24
5.0433219e-24
5.0434565e-24
5.0438112e-24
5.0446115e-24
5.0521088e-24
5.0471792e-24
5.0447642e-24
5.0437115e-24
5.0433108e-24
5.0431899e-24
5.0432015e-24
5.043337e-24
5.0436933e-24
5.0444949e-24
5.052107e-24
5.047182e-24
5.0447714e-24
5.0437213e-24
5.0433219e-24
5.0432015e-24
5.0432135e-24
5.0433494e-24
5.0437061e-24
5.0445081e-24
5.0522067e-24
5.0472959e-24
5.0448971e-24
5.0438532e-24
5.0434565e-24
5.043337e-24
5.0433494e-24
5.0434854e-24
5.0438424e-24
5.0446446e-24
5.0524756e-24
5.0476085e-24
5.0452359e-24
5.0442037e-24
5.0438112e-24
5.0436933e-24
5.0437061e-24
5.0438424e-24
5.0441996e-24
5.0450024e-24
5.0530774e-24
5.0483473e-24
5.0460179e-24
5.0449995e-24
5.0446115e-24
5.0444949e-24
5.0445081e-24
5.0446446e-24
5.0450024e-24
5.045807e-24
1.2998715e-23
1.298647e-23
1.2980457e-23
1.297783e-23
1.2976826e-23
1.2976513e-23
1.2976508e-23
1.2976754e-23
1.2977413e-23
1.2978874e-23
1.298647e-23
1.2974275e-23
1.2968279e-23
1.2965658e-23
1.2964657e-23
1.2964348e-23
1.2964354e-23
1.2964636e-23
1.2965406e-23
1.2967214e-23
1.2980457e-23
1.2968279e-23
1.2962291e-23
1.2959675e-23
1.2958677e-23
1.2958371e-23
1.2958389e-23
1.2958701e-23
1.2959537e-23
1.2961454e-23
1.297783e-23
1.2965658e-23
1.2959675e-23
1.2957061e-23
1.2956064e-23
1.2955762e-23
1.2955786e-23
1.2956114e-23
1.2956979e-23
1.2958932e-23
1.2976826e-23
1.2964657e-23
1.2958677e-23
1.2956064e-23
1.2955069e-23
1.2954767e-23
1.2954795e-23
1.2955129e-23
1.2956006e-23
1.295797e-23
1.2976513e-23
1.2964348e-23
1.2958371e-23
1.2955762e-23
1.2954767e-23
1.2954467e-23
1.2954497e-23
1.2954833e-23
1.2955713e-23
1.2957681e-23
1.2976508e-23
1.2964354e-23
1.2958389e-23
1.2955786e-23
1.2954795e-23
1.2954497e-23
1.2954527e-23
1.2954864e-23
1.2955745e-23
1.2957714e-23
1.2976754e-23
1.2964636e-23
1.2958701e-23
1.2956114e-23
1.2955129e-23
1.2954833e-23
1.2954864e-23
1.2955202e-23
1.2956084e-23
1.2958053e-23
1.2977413e-23
1.2965406e-23
1.2959537e-23
1.2956979e-23
1.2956006e-23
1.2955713e-23
1.2955745e-23
1.2956084e-23
1.2956967e-23
1.2958937e-23
1.2978874e-23
1.2967214e-23
1.2961454e-23
1.2958932e-23
1.295797e-23
1.2957681e-23
1.2957714e-23
1.2958053e-23
1.2958937e-23
1.2960912e-23
3.3822367e-23
3.3791777e-23
3.3776712e-23
3.3770121e-23
3.3767599e-23
3.3766811e-23
3.3766799e-23
3.3767412e-23
3.3769049e-23
3.3772642e-23
3.3791777e-23
3.3761308e-23
3.3746285e-23
3.3739709e-23
3.3737194e-23
3.3736417e-23
3.3736433e-23
3.3737139e-23
3.3739059e-23
3.3743544e-23
3.3776712e-23
3.3746285e-23
3.3731285e-23
3.3724719e-23
3.3722211e-23
3.3721444e-23
3.3721489e-23
3.3722271e-23
3.3724362e-23
3.3729127e-23
3.3770121e-23
3.3739709e-23
3.3724719e-23
3.3718159e-23
3.3715656e-23
3.3714895e-23
3.3714958e-23
3.3715781e-23
3.3717947e-23
3.3722802e-23
3.3767599e-23
3.3737194e-23
3.3722211e-23
3.3715656e-23
3.3713155e-23
3.3712398e-23
3.3712469e-23
3.3713309e-23
3.3715503e-23
3.3720387e-23
3.3766811e-23
3.3736417e-23
3.3721444e-23
3.3714895e-23
3.3712398e-23
3.3711645e-23
3.3711719e-23
3.3712565e-23
3.3714769e-23
3.3719661e-23
3.3766799e-23
3.3736433e-23
3.3721489e-23
3.3714958e-23
3.3712469e-23
3.3711719e-23
3.3711796e-23
3.3712644e-23
3.3714851e-23
3.3719745e-23
3.3767412e-23
3.3737139e-23
3.3722271e-23
3.3715781e-23
3.3713309e-23
3.3712565e-23
3.3712644e-23
3.3713493e-23
3.3715701e-23
3.3720597e-23
3.3769049e-23
3.3739059e-23
3.3724362e-23
3.3717947e-23
3.3715503e-23
3.3714769e-23
3.3714851e-23
3.3715701e-23
3.3717911e-23
3.372281e-23
3.3772642e-23
3.3743544e-23
3.3729127e-23
3.3722802e-23
3.3720387e-23
3.3719661e-23
3.3719745e-23
3.3720597e-23
3.372281e-23
3.3727721e-23