/*--------------------------------*- C++ -*----------------------------------*\
| =========                 |                                                 |
| \\      /  F ield         | OpenFOAM: The Open Source CFD Toolbox           |
|  \\    /   O peration     | Version:  dev                                   |
|   \\  /    A nd           | Web:      www.OpenFOAM.org                      |
|    \\/     M anipulation  |                                                 |
\*---------------------------------------------------------------------------*/
FoamFile
{
    version     2.0;
    format      ascii;
    class       volScalarField;
    location    "55.995";
    object      A_0;
}
// * * * * * * * * * * * * * * * * * * * * * * * * * * * * * * * * * * * * * //

dimensions      [0 0 0 0 1 0 0];

internalField   nonuniform List<scalar> 
10000
(
9.6652484e-31
9.6473089e-31
9.6392925e-31
9.6359224e-31
9.6346647e-31
9.634281e-31
9.634292e-31
9.6346658e-31
9.6357523e-31
9.6383252e-31
9.6473089e-31
9.6294588e-31
9.6214719e-31
9.6181126e-31
9.6168594e-31
9.61648e-31
9.6165014e-31
9.6169073e-31
9.6180911e-31
9.620963e-31
9.6392925e-31
9.6214719e-31
9.6134999e-31
9.6101472e-31
9.6088973e-31
9.608522e-31
9.6085537e-31
9.6089863e-31
9.6102296e-31
9.6131972e-31
9.6359224e-31
9.6181126e-31
9.6101472e-31
9.6067978e-31
9.6055499e-31
9.6051772e-31
9.6052152e-31
9.6056621e-31
9.6069318e-31
9.6099305e-31
9.6346647e-31
9.6168594e-31
9.6088973e-31
9.6055499e-31
9.6043031e-31
9.6039319e-31
9.6039728e-31
9.6044257e-31
9.6057054e-31
9.6087138e-31
9.634281e-31
9.61648e-31
9.608522e-31
9.6051772e-31
9.6039319e-31
9.6035616e-31
9.6036037e-31
9.6040589e-31
9.6053419e-31
9.6083533e-31
9.634292e-31
9.6165014e-31
9.6085537e-31
9.6052152e-31
9.6039728e-31
9.6036037e-31
9.6036466e-31
9.6041027e-31
9.6053867e-31
9.6083991e-31
9.6346658e-31
9.6169073e-31
9.6089863e-31
9.6056621e-31
9.6044257e-31
9.6040589e-31
9.6041027e-31
9.6045593e-31
9.6058441e-31
9.6088574e-31
9.6357523e-31
9.6180911e-31
9.6102296e-31
9.6069318e-31
9.6057054e-31
9.6053419e-31
9.6053867e-31
9.6058441e-31
9.6071302e-31
9.610146e-31
9.6383252e-31
9.620963e-31
9.6131972e-31
9.6099305e-31
9.6087138e-31
9.6083533e-31
9.6083991e-31
9.6088574e-31
9.610146e-31
9.6131707e-31
3.4207466e-30
3.4146318e-30
3.411831e-30
3.4106511e-30
3.4102105e-30
3.410076e-30
3.4100796e-30
3.4102099e-30
3.4105893e-30
3.4115237e-30
3.4146318e-30
3.4085467e-30
3.405756e-30
3.4045799e-30
3.4041408e-30
3.4040078e-30
3.4040151e-30
3.4041567e-30
3.4045706e-30
3.4056111e-30
3.411831e-30
3.405756e-30
3.4029706e-30
3.4017967e-30
3.4013588e-30
3.4012272e-30
3.4012382e-30
3.4013892e-30
3.401824e-30
3.4028984e-30
3.4106511e-30
3.4045799e-30
3.4017967e-30
3.400624e-30
3.4001867e-30
3.4000561e-30
3.4000693e-30
3.4002254e-30
3.4006695e-30
3.4017548e-30
3.4102105e-30
3.4041408e-30
3.4013588e-30
3.4001867e-30
3.3997499e-30
3.3996198e-30
3.399634e-30
3.3997922e-30
3.4002398e-30
3.4013286e-30
3.410076e-30
3.4040078e-30
3.4012272e-30
3.4000561e-30
3.3996198e-30
3.39949e-30
3.3995046e-30
3.3996636e-30
3.4001124e-30
3.4012022e-30
3.4100796e-30
3.4040151e-30
3.4012382e-30
3.4000693e-30
3.399634e-30
3.3995046e-30
3.3995195e-30
3.3996788e-30
3.400128e-30
3.4012182e-30
3.4102099e-30
3.4041567e-30
3.4013892e-30
3.4002254e-30
3.3997922e-30
3.3996636e-30
3.3996788e-30
3.3998384e-30
3.4002878e-30
3.4013783e-30
3.4105893e-30
3.4045706e-30
3.401824e-30
3.4006695e-30
3.4002398e-30
3.4001124e-30
3.400128e-30
3.4002878e-30
3.4007377e-30
3.4018291e-30
3.4115237e-30
3.4056111e-30
3.4028984e-30
3.4017548e-30
3.4013286e-30
3.4012022e-30
3.4012182e-30
3.4013783e-30
3.4018291e-30
3.4029238e-30
7.7784803e-30
7.7650196e-30
7.7587862e-30
7.7561542e-30
7.7551701e-30
7.7548694e-30
7.7548767e-30
7.7551651e-30
7.7560052e-30
7.7581366e-30
7.7650196e-30
7.7516234e-30
7.7454122e-30
7.7427883e-30
7.7418076e-30
7.7415102e-30
7.741526e-30
7.7418399e-30
7.7427579e-30
7.7451301e-30
7.7587862e-30
7.7454122e-30
7.7392125e-30
7.7365936e-30
7.7356156e-30
7.7353214e-30
7.7353454e-30
7.7356807e-30
7.7366462e-30
7.7390949e-30
7.7561542e-30
7.7427883e-30
7.7365936e-30
7.7339773e-30
7.7330008e-30
7.7327087e-30
7.7327376e-30
7.7330843e-30
7.7340709e-30
7.7365444e-30
7.7551701e-30
7.7418076e-30
7.7356156e-30
7.7330008e-30
7.7320252e-30
7.7317343e-30
7.7317655e-30
7.732117e-30
7.7331116e-30
7.7355929e-30
7.7548694e-30
7.7415102e-30
7.7353214e-30
7.7327087e-30
7.7317343e-30
7.7314441e-30
7.7314763e-30
7.7318296e-30
7.7328268e-30
7.7353104e-30
7.7548767e-30
7.741526e-30
7.7353454e-30
7.7327376e-30
7.7317655e-30
7.7314763e-30
7.7315091e-30
7.7318631e-30
7.7328612e-30
7.7353456e-30
7.7551651e-30
7.7418399e-30
7.7356807e-30
7.7330843e-30
7.732117e-30
7.7318296e-30
7.7318631e-30
7.7322176e-30
7.7332162e-30
7.7357013e-30
7.7560052e-30
7.7427579e-30
7.7366462e-30
7.7340709e-30
7.7331116e-30
7.7328268e-30
7.7328612e-30
7.7332162e-30
7.7342158e-30
7.7367029e-30
7.7581366e-30
7.7451301e-30
7.7390949e-30
7.7365444e-30
7.7355929e-30
7.7353104e-30
7.7353456e-30
7.7357013e-30
7.7367029e-30
7.7391978e-30
1.660039e-29
1.6572572e-29
1.6559611e-29
1.6554126e-29
1.6552072e-29
1.6551444e-29
1.6551457e-29
1.6552052e-29
1.6553782e-29
1.6558193e-29
1.6572572e-29
1.6544885e-29
1.653197e-29
1.6526502e-29
1.6524455e-29
1.6523834e-29
1.6523865e-29
1.6524514e-29
1.6526409e-29
1.6531332e-29
1.6559611e-29
1.653197e-29
1.6519079e-29
1.651362e-29
1.6511579e-29
1.6510965e-29
1.6511013e-29
1.6511708e-29
1.6513703e-29
1.6518788e-29
1.6554126e-29
1.6526502e-29
1.651362e-29
1.6508167e-29
1.6506129e-29
1.6505519e-29
1.6505578e-29
1.6506297e-29
1.6508337e-29
1.6513475e-29
1.6552072e-29
1.6524455e-29
1.6511579e-29
1.6506129e-29
1.6504094e-29
1.6503486e-29
1.650355e-29
1.6504279e-29
1.6506335e-29
1.651149e-29
1.6551444e-29
1.6523834e-29
1.6510965e-29
1.6505519e-29
1.6503486e-29
1.650288e-29
1.6502946e-29
1.6503678e-29
1.6505741e-29
1.65109e-29
1.6551457e-29
1.6523865e-29
1.6511013e-29
1.6505578e-29
1.650355e-29
1.6502946e-29
1.6503013e-29
1.6503747e-29
1.6505811e-29
1.6510973e-29
1.6552052e-29
1.6524514e-29
1.6511708e-29
1.6506297e-29
1.6504279e-29
1.6503678e-29
1.6503747e-29
1.6504482e-29
1.6506547e-29
1.651171e-29
1.6553782e-29
1.6526409e-29
1.6513703e-29
1.6508337e-29
1.6506335e-29
1.6505741e-29
1.6505811e-29
1.6506547e-29
1.6508615e-29
1.6513782e-29
1.6558193e-29
1.6531332e-29
1.6518788e-29
1.6513475e-29
1.651149e-29
1.65109e-29
1.6510973e-29
1.651171e-29
1.6513782e-29
1.6518965e-29
3.5282368e-29
3.5225131e-29
3.5198349e-29
3.5186989e-29
3.5182731e-29
3.5181426e-29
3.5181449e-29
3.5182668e-29
3.5186196e-29
3.5195157e-29
3.5225131e-29
3.5168162e-29
3.5141473e-29
3.5130147e-29
3.5125903e-29
3.5124612e-29
3.5124673e-29
3.5126006e-29
3.5129883e-29
3.5139928e-29
3.5198349e-29
3.5141473e-29
3.5114831e-29
3.5103526e-29
3.5099294e-29
3.5098017e-29
3.5098115e-29
3.5099543e-29
3.5103633e-29
3.5114021e-29
3.5186989e-29
3.5130147e-29
3.5103526e-29
3.5092233e-29
3.5088007e-29
3.508674e-29
3.5086859e-29
3.5088338e-29
3.5092523e-29
3.5103022e-29
3.5182731e-29
3.5125903e-29
3.5099294e-29
3.5088007e-29
3.5083784e-29
3.5082522e-29
3.5082653e-29
3.5084153e-29
3.5088373e-29
3.5098907e-29
3.5181426e-29
3.5124612e-29
3.5098017e-29
3.508674e-29
3.5082522e-29
3.5081264e-29
3.5081399e-29
3.5082907e-29
3.5087138e-29
3.5097683e-29
3.5181449e-29
3.5124673e-29
3.5098115e-29
3.5086859e-29
3.5082653e-29
3.5081399e-29
3.5081536e-29
3.5083047e-29
3.5087283e-29
3.5097831e-29
3.5182668e-29
3.5126006e-29
3.5099543e-29
3.5088338e-29
3.5084153e-29
3.5082907e-29
3.5083047e-29
3.5084561e-29
3.5088799e-29
3.509935e-29
3.5186196e-29
3.5129883e-29
3.5103633e-29
3.5092523e-29
3.5088373e-29
3.5087138e-29
3.5087283e-29
3.5088799e-29
3.5093041e-29
3.51036e-29
3.5195157e-29
3.5139928e-29
3.5114021e-29
3.5103022e-29
3.5098907e-29
3.5097683e-29
3.5097831e-29
3.509935e-29
3.51036e-29
3.5114192e-29
7.5657042e-29
7.5538272e-29
7.5482492e-29
7.5458782e-29
7.5449882e-29
7.544715e-29
7.5447191e-29
7.5449704e-29
7.5456951e-29
7.5475224e-29
7.5538272e-29
7.5420053e-29
7.5364462e-29
7.5340821e-29
7.5331951e-29
7.5329249e-29
7.532937e-29
7.5332127e-29
7.5340118e-29
7.5360702e-29
7.5482492e-29
7.5364462e-29
7.530897e-29
7.5285373e-29
7.5276526e-29
7.5273855e-29
7.5274054e-29
7.5277014e-29
7.5285457e-29
7.5306772e-29
7.5458782e-29
7.5340821e-29
7.5285373e-29
7.5261799e-29
7.5252966e-29
7.5250315e-29
7.525056e-29
7.5253629e-29
7.5262272e-29
7.5283824e-29
7.5449882e-29
7.5331951e-29
7.5276526e-29
7.5252966e-29
7.5244142e-29
7.5241501e-29
7.5241768e-29
7.5244883e-29
7.5253602e-29
7.5275228e-29
7.544715e-29
7.5329249e-29
7.5273855e-29
7.5250315e-29
7.5241501e-29
7.5238868e-29
7.5239144e-29
7.5242275e-29
7.525102e-29
7.5272668e-29
7.5447191e-29
7.532937e-29
7.5274054e-29
7.525056e-29
7.5241768e-29
7.5239144e-29
7.5239427e-29
7.5242564e-29
7.5251317e-29
7.5272973e-29
7.5449704e-29
7.5332127e-29
7.5277014e-29
7.5253629e-29
7.5244883e-29
7.5242275e-29
7.5242564e-29
7.5245706e-29
7.5254463e-29
7.5276125e-29
7.5456951e-29
7.5340118e-29
7.5285457e-29
7.5262272e-29
7.5253602e-29
7.525102e-29
7.5251317e-29
7.5254463e-29
7.5263229e-29
7.5284908e-29
7.5475224e-29
7.5360702e-29
7.5306772e-29
7.5283824e-29
7.5275228e-29
7.5272668e-29
7.5272973e-29
7.5276125e-29
7.5284908e-29
7.5306653e-29
1.6416984e-28
1.6392055e-28
1.6380306e-28
1.6375302e-28
1.6373421e-28
1.6372842e-28
1.6372849e-28
1.6373374e-28
1.6374879e-28
1.6378642e-28
1.6392055e-28
1.636724e-28
1.635553e-28
1.635054e-28
1.6348666e-28
1.6348094e-28
1.6348118e-28
1.6348695e-28
1.635036e-28
1.6354622e-28
1.6380306e-28
1.635553e-28
1.6343841e-28
1.6338861e-28
1.6336991e-28
1.6336425e-28
1.6336466e-28
1.6337087e-28
1.6338849e-28
1.6343269e-28
1.6375302e-28
1.635054e-28
1.6338861e-28
1.6333884e-28
1.6332018e-28
1.6331457e-28
1.6331507e-28
1.6332151e-28
1.6333957e-28
1.6338428e-28
1.6373421e-28
1.6348666e-28
1.6336991e-28
1.6332018e-28
1.6330152e-28
1.6329594e-28
1.6329649e-28
1.6330303e-28
1.6332125e-28
1.6336612e-28
1.6372842e-28
1.6348094e-28
1.6336425e-28
1.6331457e-28
1.6329594e-28
1.6329037e-28
1.6329094e-28
1.6329751e-28
1.6331579e-28
1.633607e-28
1.6372849e-28
1.6348118e-28
1.6336466e-28
1.6331507e-28
1.6329649e-28
1.6329094e-28
1.6329153e-28
1.6329812e-28
1.6331641e-28
1.6336134e-28
1.6373374e-28
1.6348695e-28
1.6337087e-28
1.6332151e-28
1.6330303e-28
1.6329751e-28
1.6329812e-28
1.6330471e-28
1.6332301e-28
1.6336796e-28
1.6374879e-28
1.635036e-28
1.6338849e-28
1.6333957e-28
1.6332125e-28
1.6331579e-28
1.6331641e-28
1.6332301e-28
1.6334133e-28
1.6338631e-28
1.6378642e-28
1.6354622e-28
1.6343269e-28
1.6338428e-28
1.6336612e-28
1.633607e-28
1.6336134e-28
1.6336796e-28
1.6338631e-28
1.6343142e-28
3.6074884e-28
3.6021919e-28
3.5996871e-28
3.598618e-28
3.5982157e-28
3.5980918e-28
3.5980929e-28
3.5982037e-28
3.5985201e-28
3.5993045e-28
3.6021919e-28
3.5969194e-28
3.5944229e-28
3.5933568e-28
3.5929558e-28
3.5928333e-28
3.5928382e-28
3.5929604e-28
3.5933118e-28
3.5942049e-28
3.5996871e-28
3.5944229e-28
3.5919307e-28
3.5908666e-28
3.5904666e-28
3.5903456e-28
3.5903541e-28
3.5904858e-28
3.5908583e-28
3.5917859e-28
3.598618e-28
3.5933568e-28
3.5908666e-28
3.5898035e-28
3.5894042e-28
3.589284e-28
3.5892947e-28
3.5894315e-28
3.5898134e-28
3.5907522e-28
3.5982157e-28
3.5929558e-28
3.5904666e-28
3.5894042e-28
3.5890052e-28
3.5888856e-28
3.5888973e-28
3.5890362e-28
3.5894217e-28
3.5903639e-28
3.5980918e-28
3.5928333e-28
3.5903456e-28
3.589284e-28
3.5888856e-28
3.5887663e-28
3.5887784e-28
3.5889181e-28
3.5893048e-28
3.590248e-28
3.5980929e-28
3.5928382e-28
3.5903541e-28
3.5892947e-28
3.5888973e-28
3.5887784e-28
3.5887908e-28
3.5889308e-28
3.5893178e-28
3.5902614e-28
3.5982037e-28
3.5929604e-28
3.5904858e-28
3.5894315e-28
3.5890362e-28
3.5889181e-28
3.5889308e-28
3.589071e-28
3.5894583e-28
3.5904022e-28
3.5985201e-28
3.5933118e-28
3.5908583e-28
3.5898134e-28
3.5894217e-28
3.5893048e-28
3.5893178e-28
3.5894583e-28
3.5898459e-28
3.5907905e-28
3.5993045e-28
3.5942049e-28
3.5917859e-28
3.5907522e-28
3.5903639e-28
3.590248e-28
3.5902614e-28
3.5904022e-28
3.5907905e-28
3.5917379e-28
8.0292856e-28
8.0178924e-28
8.0124864e-28
8.0101744e-28
8.0093032e-28
8.0090346e-28
8.0090363e-28
8.0092733e-28
8.0099467e-28
8.0116018e-28
8.0178924e-28
8.0065505e-28
8.001162e-28
7.9988565e-28
7.997988e-28
7.9977225e-28
7.9977324e-28
7.9979947e-28
7.9987453e-28
8.0006408e-28
8.0124864e-28
8.001162e-28
7.9957829e-28
7.9934815e-28
7.9926153e-28
7.9923529e-28
7.9923708e-28
7.9926539e-28
7.9934514e-28
7.9954229e-28
8.0101744e-28
7.9988565e-28
7.9934815e-28
7.9911823e-28
7.9903175e-28
7.9900571e-28
7.9900797e-28
7.9903741e-28
7.9911922e-28
7.9931884e-28
8.0093032e-28
7.997988e-28
7.9926153e-28
7.9903175e-28
7.9894535e-28
7.9891942e-28
7.9892191e-28
7.9895182e-28
7.9903441e-28
7.992348e-28
8.0090346e-28
7.9977225e-28
7.9923529e-28
7.9900571e-28
7.9891942e-28
7.9889356e-28
7.9889615e-28
7.9892623e-28
7.9900908e-28
7.992097e-28
8.0090363e-28
7.9977324e-28
7.9923708e-28
7.9900797e-28
7.9892191e-28
7.9889615e-28
7.988988e-28
7.9892895e-28
7.9901188e-28
7.9921258e-28
8.0092733e-28
7.9979947e-28
7.9926539e-28
7.9903741e-28
7.9895182e-28
7.9892623e-28
7.9892895e-28
7.9895914e-28
7.9904212e-28
7.9924287e-28
8.0099467e-28
7.9987453e-28
7.9934514e-28
7.9911922e-28
7.9903441e-28
7.9900908e-28
7.9901188e-28
7.9904212e-28
7.9912519e-28
7.9932608e-28
8.0116018e-28
8.0006408e-28
7.9954229e-28
7.9931884e-28
7.992348e-28
7.992097e-28
7.9921258e-28
7.9924287e-28
7.9932608e-28
7.9952757e-28
1.8103036e-27
1.8078222e-27
1.8066409e-27
1.8061346e-27
1.8059436e-27
1.8058847e-27
1.8058849e-27
1.8059362e-27
1.8060814e-27
1.806435e-27
1.8078222e-27
1.8053518e-27
1.8041742e-27
1.8036694e-27
1.803479e-27
1.8034207e-27
1.8034228e-27
1.8034798e-27
1.8036422e-27
1.8040497e-27
1.8066409e-27
1.8041742e-27
1.8029987e-27
1.8024948e-27
1.8023049e-27
1.8022473e-27
1.8022511e-27
1.8023128e-27
1.8024857e-27
1.8029101e-27
1.8061346e-27
1.8036694e-27
1.8024948e-27
1.8019913e-27
1.8018017e-27
1.8017446e-27
1.8017495e-27
1.8018136e-27
1.8019911e-27
1.8024211e-27
1.8059436e-27
1.803479e-27
1.8023049e-27
1.8018017e-27
1.8016123e-27
1.8015554e-27
1.8015608e-27
1.801626e-27
1.8018053e-27
1.8022369e-27
1.8058847e-27
1.8034207e-27
1.8022473e-27
1.8017446e-27
1.8015554e-27
1.8014987e-27
1.8015043e-27
1.8015699e-27
1.8017497e-27
1.8021819e-27
1.8058849e-27
1.8034228e-27
1.8022511e-27
1.8017495e-27
1.8015608e-27
1.8015043e-27
1.80151e-27
1.8015758e-27
1.8017558e-27
1.8021881e-27
1.8059362e-27
1.8034798e-27
1.8023128e-27
1.8018136e-27
1.801626e-27
1.8015699e-27
1.8015758e-27
1.8016416e-27
1.8018217e-27
1.8022542e-27
1.8060814e-27
1.8036422e-27
1.8024857e-27
1.8019911e-27
1.8018053e-27
1.8017497e-27
1.8017558e-27
1.8018217e-27
1.802002e-27
1.8024348e-27
1.806435e-27
1.8040497e-27
1.8029101e-27
1.8024211e-27
1.8022369e-27
1.8021819e-27
1.8021881e-27
1.8022542e-27
1.8024348e-27
1.8028688e-27
4.134826e-27
4.1293534e-27
4.1267396e-27
4.1256174e-27
4.1251934e-27
4.1250624e-27
4.1250625e-27
4.1251752e-27
4.1254922e-27
4.1262574e-27
4.1293534e-27
4.123905e-27
4.1212994e-27
4.1201802e-27
4.1197576e-27
4.1196281e-27
4.1196323e-27
4.1197578e-27
4.1201138e-27
4.121001e-27
4.1267396e-27
4.1212994e-27
4.1186982e-27
4.117581e-27
4.1171595e-27
4.1170315e-27
4.1170398e-27
4.1171758e-27
4.1175555e-27
4.1184811e-27
4.1256174e-27
4.1201802e-27
4.117581e-27
4.1164648e-27
4.116044e-27
4.115917e-27
4.1159277e-27
4.1160694e-27
4.1164595e-27
4.1173976e-27
4.1251934e-27
4.1197576e-27
4.1171595e-27
4.116044e-27
4.1156235e-27
4.1154971e-27
4.115509e-27
4.115653e-27
4.116047e-27
4.116989e-27
4.1250624e-27
4.1196281e-27
4.1170315e-27
4.115917e-27
4.1154971e-27
4.1153711e-27
4.1153834e-27
4.1155283e-27
4.1159237e-27
4.1168668e-27
4.1250625e-27
4.1196323e-27
4.1170398e-27
4.1159277e-27
4.115509e-27
4.1153834e-27
4.115396e-27
4.1155413e-27
4.1159371e-27
4.1168806e-27
4.1251752e-27
4.1197578e-27
4.1171758e-27
4.1160694e-27
4.115653e-27
4.1155283e-27
4.1155413e-27
4.1156867e-27
4.1160827e-27
4.1170265e-27
4.1254922e-27
4.1201138e-27
4.1175555e-27
4.1164595e-27
4.116047e-27
4.1159237e-27
4.1159371e-27
4.1160827e-27
4.1164791e-27
4.1174236e-27
4.1262574e-27
4.121001e-27
4.1184811e-27
4.1173976e-27
4.116989e-27
4.1168668e-27
4.1168806e-27
4.1170265e-27
4.1174236e-27
4.1183707e-27
9.5679169e-27
9.5556955e-27
9.5498395e-27
9.5473205e-27
9.5463676e-27
9.5460728e-27
9.5460723e-27
9.5463229e-27
9.5470239e-27
9.5487009e-27
9.5556955e-27
9.5435273e-27
9.5376895e-27
9.5351771e-27
9.5342273e-27
9.5339359e-27
9.5339449e-27
9.5342246e-27
9.5350152e-27
9.5369719e-27
9.5498395e-27
9.5376895e-27
9.5318615e-27
9.5293535e-27
9.5284061e-27
9.5281182e-27
9.5281365e-27
9.5284404e-27
9.529285e-27
9.53133e-27
9.5473205e-27
9.5351771e-27
9.5293535e-27
9.5268478e-27
9.5259019e-27
9.5256164e-27
9.5256402e-27
9.5259569e-27
9.5268256e-27
9.5288991e-27
9.5463676e-27
9.5342273e-27
9.5284061e-27
9.5259019e-27
9.524957e-27
9.5246727e-27
9.5246991e-27
9.5250213e-27
9.5258989e-27
9.5279814e-27
9.5460728e-27
9.5339359e-27
9.5281182e-27
9.5256164e-27
9.5246727e-27
9.5243892e-27
9.5244167e-27
9.5247409e-27
9.5256215e-27
9.5277067e-27
9.5460723e-27
9.5339449e-27
9.5281365e-27
9.5256402e-27
9.5246991e-27
9.5244167e-27
9.5244449e-27
9.5247698e-27
9.5256514e-27
9.5277374e-27
9.5463229e-27
9.5342246e-27
9.5284404e-27
9.5259569e-27
9.5250213e-27
9.5247409e-27
9.5247698e-27
9.5250953e-27
9.5259774e-27
9.528064e-27
9.5470239e-27
9.5350152e-27
9.529285e-27
9.5268256e-27
9.5258989e-27
9.5256215e-27
9.5256514e-27
9.5259774e-27
9.5268603e-27
9.5289484e-27
9.5487009e-27
9.5369719e-27
9.53133e-27
9.5288991e-27
9.5279814e-27
9.5277067e-27
9.5277374e-27
9.528064e-27
9.5289484e-27
9.5310423e-27
2.2431103e-26
2.2403465e-26
2.239018e-26
2.2384454e-26
2.2382286e-26
2.2381614e-26
2.2381612e-26
2.2382176e-26
2.2383746e-26
2.2387469e-26
2.2403465e-26
2.2375946e-26
2.2362701e-26
2.235699e-26
2.2354829e-26
2.2354165e-26
2.2354184e-26
2.2354816e-26
2.2356595e-26
2.2360967e-26
2.239018e-26
2.2362701e-26
2.2349479e-26
2.2343778e-26
2.2341622e-26
2.2340966e-26
2.2341007e-26
2.2341695e-26
2.2343599e-26
2.2348176e-26
2.2384454e-26
2.235699e-26
2.2343778e-26
2.2338082e-26
2.233593e-26
2.2335279e-26
2.2335333e-26
2.2336051e-26
2.233801e-26
2.2342654e-26
2.2382286e-26
2.2354829e-26
2.2341622e-26
2.233593e-26
2.2333779e-26
2.2333132e-26
2.2333192e-26
2.2333922e-26
2.2335902e-26
2.2340566e-26
2.2381614e-26
2.2354165e-26
2.2340966e-26
2.2335279e-26
2.2333132e-26
2.2332486e-26
2.2332549e-26
2.2333284e-26
2.2335271e-26
2.2339941e-26
2.2381612e-26
2.2354184e-26
2.2341007e-26
2.2335333e-26
2.2333192e-26
2.2332549e-26
2.2332612e-26
2.2333349e-26
2.2335338e-26
2.2340011e-26
2.2382176e-26
2.2354816e-26
2.2341695e-26
2.2336051e-26
2.2333922e-26
2.2333284e-26
2.2333349e-26
2.2334087e-26
2.2336077e-26
2.2340751e-26
2.2383746e-26
2.2356595e-26
2.2343599e-26
2.233801e-26
2.2335902e-26
2.2335271e-26
2.2335338e-26
2.2336077e-26
2.233807e-26
2.2342747e-26
2.2387469e-26
2.2360967e-26
2.2348176e-26
2.2342654e-26
2.2340566e-26
2.2339941e-26
2.2340011e-26
2.2340751e-26
2.2342747e-26
2.2347437e-26
5.3280887e-26
5.3217592e-26
5.3187073e-26
5.3173895e-26
5.3168899e-26
5.3167349e-26
5.316734e-26
5.3168627e-26
5.3172191e-26
5.318056e-26
5.3217592e-26
5.3154566e-26
5.3124139e-26
5.3110996e-26
5.3106015e-26
5.3104484e-26
5.3104526e-26
5.3105972e-26
5.3110024e-26
5.3119923e-26
5.3187073e-26
5.3124139e-26
5.3093762e-26
5.3080641e-26
5.3075673e-26
5.3074161e-26
5.3074254e-26
5.3075831e-26
5.3080178e-26
5.3090558e-26
5.3173895e-26
5.3110996e-26
5.3080641e-26
5.3067532e-26
5.3062572e-26
5.3061072e-26
5.3061195e-26
5.3062842e-26
5.306732e-26
5.3077856e-26
5.3168899e-26
5.3106015e-26
5.3075673e-26
5.3062572e-26
5.3057617e-26
5.3056124e-26
5.3056261e-26
5.3057938e-26
5.3062464e-26
5.3073049e-26
5.3167349e-26
5.3104484e-26
5.3074161e-26
5.3061072e-26
5.3056124e-26
5.3054635e-26
5.3054778e-26
5.3056466e-26
5.3061009e-26
5.3071608e-26
5.316734e-26
5.3104526e-26
5.3074254e-26
5.3061195e-26
5.3056261e-26
5.3054778e-26
5.3054925e-26
5.3056617e-26
5.3061165e-26
5.3071769e-26
5.3168627e-26
5.3105972e-26
5.3075831e-26
5.3062842e-26
5.3057938e-26
5.3056466e-26
5.3056617e-26
5.3058311e-26
5.3062862e-26
5.3073469e-26
5.3172191e-26
5.3110024e-26
5.3080178e-26
5.306732e-26
5.3062464e-26
5.3061009e-26
5.3061165e-26
5.3062862e-26
5.3067416e-26
5.3078031e-26
5.318056e-26
5.3119923e-26
5.3090558e-26
5.3077856e-26
5.3073049e-26
5.3071608e-26
5.3071769e-26
5.3073469e-26
5.3078031e-26
5.3088674e-26
1.2823008e-25
1.2808329e-25
1.2801229e-25
1.2798158e-25
1.2796993e-25
1.2796631e-25
1.2796628e-25
1.2796925e-25
1.2797744e-25
1.2799651e-25
1.2808329e-25
1.2793712e-25
1.2786633e-25
1.278357e-25
1.2782408e-25
1.278205e-25
1.278206e-25
1.2782395e-25
1.278333e-25
1.2785601e-25
1.2801229e-25
1.2786633e-25
1.2779566e-25
1.2776508e-25
1.2775349e-25
1.2774996e-25
1.2775017e-25
1.2775384e-25
1.277639e-25
1.2778775e-25
1.2798158e-25
1.278357e-25
1.2776508e-25
1.2773453e-25
1.2772296e-25
1.2771946e-25
1.2771974e-25
1.2772357e-25
1.2773394e-25
1.2775816e-25
1.2796993e-25
1.2782408e-25
1.2775349e-25
1.2772296e-25
1.277114e-25
1.2770791e-25
1.2770823e-25
1.2771213e-25
1.2772261e-25
1.2774695e-25
1.2796631e-25
1.278205e-25
1.2774996e-25
1.2771946e-25
1.2770791e-25
1.2770444e-25
1.2770477e-25
1.277087e-25
1.2771922e-25
1.2774359e-25
1.2796628e-25
1.278206e-25
1.2775017e-25
1.2771974e-25
1.2770823e-25
1.2770477e-25
1.2770511e-25
1.2770905e-25
1.2771958e-25
1.2774397e-25
1.2796925e-25
1.2782395e-25
1.2775384e-25
1.2772357e-25
1.2771213e-25
1.277087e-25
1.2770905e-25
1.2771299e-25
1.2772353e-25
1.2774792e-25
1.2797744e-25
1.278333e-25
1.277639e-25
1.2773394e-25
1.2772261e-25
1.2771922e-25
1.2771958e-25
1.2772353e-25
1.2773408e-25
1.2775849e-25
1.2799651e-25
1.2785601e-25
1.2778775e-25
1.2775816e-25
1.2774695e-25
1.2774359e-25
1.2774397e-25
1.2774792e-25
1.2775849e-25
1.2778296e-25
3.1268815e-25
3.1234341e-25
3.1217617e-25
3.1210371e-25
3.1207617e-25
3.1206761e-25
3.1206753e-25
3.1207449e-25
3.1209356e-25
3.1213754e-25
3.1234341e-25
3.1200011e-25
3.1183337e-25
3.1176108e-25
3.1173362e-25
3.1172516e-25
3.1172538e-25
3.1173325e-25
3.1175513e-25
3.1180789e-25
3.1217617e-25
3.1183337e-25
3.1166689e-25
3.1159472e-25
3.1156734e-25
3.1155899e-25
3.1155949e-25
3.1156812e-25
3.1159169e-25
3.1164721e-25
3.1210371e-25
3.1176108e-25
3.1159472e-25
3.1152262e-25
3.1149528e-25
3.11487e-25
3.1148768e-25
3.114967e-25
3.1152102e-25
3.1157744e-25
3.1207617e-25
3.1173362e-25
3.1156734e-25
3.1149528e-25
3.1146797e-25
3.1145973e-25
3.1146048e-25
3.1146968e-25
3.1149427e-25
3.1155098e-25
3.1206761e-25
3.1172516e-25
3.1155899e-25
3.11487e-25
3.1145973e-25
3.1145152e-25
3.114523e-25
3.1146156e-25
3.1148625e-25
3.1154304e-25
3.1206753e-25
3.1172538e-25
3.1155949e-25
3.1148768e-25
3.1146048e-25
3.114523e-25
3.1145311e-25
3.1146239e-25
3.1148711e-25
3.1154392e-25
3.1207449e-25
3.1173325e-25
3.1156812e-25
3.114967e-25
3.1146968e-25
3.1146156e-25
3.1146239e-25
3.1147169e-25
3.1149642e-25
3.1155325e-25
3.1209356e-25
3.1175513e-25
3.1159169e-25
3.1152102e-25
3.1149427e-25
3.1148625e-25
3.1148711e-25
3.1149642e-25
3.1152118e-25
3.1157805e-25
3.1213754e-25
3.1180789e-25
3.1164721e-25
3.1157744e-25
3.1155098e-25
3.1154304e-25
3.1154392e-25
3.1155325e-25
3.1157805e-25
3.1163506e-25
7.7256755e-25
7.7174767e-25
7.7134879e-25
7.7117563e-25
7.7110975e-25
7.7108925e-25
7.7108903e-25
7.7110554e-25
7.7115055e-25
7.7125331e-25
7.7174767e-25
7.709312e-25
7.7053346e-25
7.7036073e-25
7.7029504e-25
7.702748e-25
7.7027529e-25
7.7029403e-25
7.7034588e-25
7.7047011e-25
7.7134879e-25
7.7053346e-25
7.7013636e-25
7.6996391e-25
7.698984e-25
7.6987842e-25
7.6987961e-25
7.6990018e-25
7.6995615e-25
7.7008713e-25
7.7117563e-25
7.7036073e-25
7.6996391e-25
7.6979162e-25
7.6972621e-25
7.697064e-25
7.6970801e-25
7.6972956e-25
7.6978735e-25
7.6992052e-25
7.7110975e-25
7.7029504e-25
7.698984e-25
7.6972621e-25
7.6966088e-25
7.6964116e-25
7.6964297e-25
7.6966493e-25
7.697234e-25
7.6985725e-25
7.7108925e-25
7.702748e-25
7.6987842e-25
7.697064e-25
7.6964116e-25
7.6962151e-25
7.696234e-25
7.6964551e-25
7.6970421e-25
7.6983826e-25
7.7108903e-25
7.7027529e-25
7.6987961e-25
7.6970801e-25
7.6964297e-25
7.696234e-25
7.6962534e-25
7.696475e-25
7.6970628e-25
7.698404e-25
7.7110554e-25
7.7029403e-25
7.6990018e-25
7.6972956e-25
7.6966493e-25
7.6964551e-25
7.696475e-25
7.6966971e-25
7.6972852e-25
7.6986267e-25
7.7115055e-25
7.7034588e-25
7.6995615e-25
7.6978735e-25
7.697234e-25
7.6970421e-25
7.6970628e-25
7.6972852e-25
7.6978738e-25
7.6992163e-25
7.7125331e-25
7.7047011e-25
7.7008713e-25
7.6992052e-25
7.6985725e-25
7.6983826e-25
7.698404e-25
7.6986267e-25
7.6992163e-25
7.7005621e-25
1.9340169e-24
1.9320425e-24
1.9310791e-24
1.9306602e-24
1.9305006e-24
1.9304509e-24
1.9304503e-24
1.93049e-24
1.9305975e-24
1.9308408e-24
1.9320425e-24
1.9300762e-24
1.9291155e-24
1.9286976e-24
1.9285385e-24
1.9284894e-24
1.9284906e-24
1.9285357e-24
1.9286602e-24
1.9289566e-24
1.9310791e-24
1.9291155e-24
1.9281564e-24
1.9277391e-24
1.9275804e-24
1.927532e-24
1.9275349e-24
1.9275846e-24
1.9277193e-24
1.9280323e-24
1.9306602e-24
1.9286976e-24
1.9277391e-24
1.9273223e-24
1.9271638e-24
1.9271158e-24
1.9271198e-24
1.9271719e-24
1.927311e-24
1.9276295e-24
1.9305006e-24
1.9285385e-24
1.9275804e-24
1.9271638e-24
1.9270056e-24
1.9269578e-24
1.9269622e-24
1.9270154e-24
1.9271562e-24
1.9274764e-24
1.9304509e-24
1.9284894e-24
1.927532e-24
1.9271158e-24
1.9269578e-24
1.9269102e-24
1.9269148e-24
1.9269683e-24
1.9271097e-24
1.9274304e-24
1.9304503e-24
1.9284906e-24
1.9275349e-24
1.9271198e-24
1.9269622e-24
1.9269148e-24
1.9269195e-24
1.9269732e-24
1.9271148e-24
1.9274356e-24
1.93049e-24
1.9285357e-24
1.9275846e-24
1.9271719e-24
1.9270154e-24
1.9269683e-24
1.9269732e-24
1.9270269e-24
1.9271686e-24
1.9274895e-24
1.9305975e-24
1.9286602e-24
1.9277193e-24
1.927311e-24
1.9271562e-24
1.9271097e-24
1.9271148e-24
1.9271686e-24
1.9273104e-24
1.9276315e-24
1.9308408e-24
1.9289566e-24
1.9280323e-24
1.9276295e-24
1.9274764e-24
1.9274304e-24
1.9274356e-24
1.9274895e-24
1.9276315e-24
1.9279534e-24
4.9053791e-24
4.9005644e-24
4.8982085e-24
4.8971823e-24
4.896791e-24
4.8966691e-24
4.8966674e-24
4.896764e-24
4.8970244e-24
4.8976078e-24
4.9005644e-24
4.8957693e-24
4.89342e-24
4.8923962e-24
4.8920061e-24
4.8918857e-24
4.8918885e-24
4.8919988e-24
4.8923015e-24
4.8930179e-24
4.8982085e-24
4.89342e-24
4.8910743e-24
4.8900522e-24
4.8896631e-24
4.8895443e-24
4.8895514e-24
4.889673e-24
4.8900013e-24
4.8907594e-24
4.8971823e-24
4.8923962e-24
4.8900522e-24
4.889031e-24
4.8886426e-24
4.8885248e-24
4.8885345e-24
4.8886622e-24
4.8890017e-24
4.8897733e-24
4.896791e-24
4.8920061e-24
4.8896631e-24
4.8886426e-24
4.8882545e-24
4.8881374e-24
4.8881482e-24
4.8882784e-24
4.8886222e-24
4.889398e-24
4.8966691e-24
4.8918857e-24
4.8895443e-24
4.8885248e-24
4.8881374e-24
4.8880206e-24
4.8880319e-24
4.8881631e-24
4.8885082e-24
4.8892854e-24
4.8966674e-24
4.8918885e-24
4.8895514e-24
4.8885345e-24
4.8881482e-24
4.8880319e-24
4.8880436e-24
4.8881751e-24
4.8885207e-24
4.8892982e-24
4.896764e-24
4.8919988e-24
4.889673e-24
4.8886622e-24
4.8882784e-24
4.8881631e-24
4.8881751e-24
4.8883069e-24
4.8886527e-24
4.8894304e-24
4.8970244e-24
4.8923015e-24
4.8900013e-24
4.8890017e-24
4.8886222e-24
4.8885082e-24
4.8885207e-24
4.8886527e-24
4.8889987e-24
4.889777e-24
4.8976078e-24
4.8930179e-24
4.8907594e-24
4.8897733e-24
4.889398e-24
4.8892854e-24
4.8892982e-24
4.8894304e-24
4.889777e-24
4.8905571e-24
1.2605418e-23
1.259353e-23
1.2587697e-23
1.2585152e-23
1.2584181e-23
1.2583878e-23
1.2583873e-23
1.2584111e-23
1.258475e-23
1.2586167e-23
1.259353e-23
1.2581691e-23
1.2575874e-23
1.2573335e-23
1.2572366e-23
1.2572067e-23
1.2572074e-23
1.2572347e-23
1.2573093e-23
1.2574847e-23
1.2587697e-23
1.2575874e-23
1.2570066e-23
1.2567531e-23
1.2566565e-23
1.256627e-23
1.2566287e-23
1.2566589e-23
1.25674e-23
1.256926e-23
1.2585152e-23
1.2573335e-23
1.2567531e-23
1.2564998e-23
1.2564034e-23
1.2563741e-23
1.2563766e-23
1.2564082e-23
1.2564922e-23
1.2566816e-23
1.2584181e-23
1.2572366e-23
1.2566565e-23
1.2564034e-23
1.256307e-23
1.2562779e-23
1.2562807e-23
1.256313e-23
1.256398e-23
1.2565885e-23
1.2583878e-23
1.2572067e-23
1.256627e-23
1.2563741e-23
1.2562779e-23
1.256249e-23
1.2562518e-23
1.2562844e-23
1.2563697e-23
1.2565605e-23
1.2583873e-23
1.2572074e-23
1.2566287e-23
1.2563766e-23
1.2562807e-23
1.2562518e-23
1.2562547e-23
1.2562874e-23
1.2563728e-23
1.2565638e-23
1.2584111e-23
1.2572347e-23
1.2566589e-23
1.2564082e-23
1.256313e-23
1.2562844e-23
1.2562874e-23
1.2563201e-23
1.2564056e-23
1.2565966e-23
1.258475e-23
1.2573093e-23
1.25674e-23
1.2564922e-23
1.256398e-23
1.2563697e-23
1.2563728e-23
1.2564056e-23
1.2564912e-23
1.2566823e-23
1.2586167e-23
1.2574847e-23
1.256926e-23
1.2566816e-23
1.2565885e-23
1.2565605e-23
1.2565638e-23
1.2565966e-23
1.2566823e-23
1.2568739e-23
3.2816476e-23
3.2786761e-23
3.277214e-23
3.2765751e-23
3.276331e-23
3.2762548e-23
3.2762536e-23
3.2763131e-23
3.2764718e-23
3.2768204e-23
3.2786761e-23
3.2757165e-23
3.2742584e-23
3.2736209e-23
3.2733775e-23
3.2733023e-23
3.273304e-23
3.2733724e-23
3.2735586e-23
3.2739938e-23
3.277214e-23
3.2742584e-23
3.2728026e-23
3.2721661e-23
3.2719233e-23
3.2718492e-23
3.2718536e-23
3.2719294e-23
3.2721322e-23
3.2725946e-23
3.2765751e-23
3.2736209e-23
3.2721661e-23
3.2715302e-23
3.2712878e-23
3.2712143e-23
3.2712205e-23
3.2713002e-23
3.2715103e-23
3.2719815e-23
3.276331e-23
3.2733775e-23
3.2719233e-23
3.2712878e-23
3.2710457e-23
3.2709726e-23
3.2709795e-23
3.2710609e-23
3.2712737e-23
3.2717477e-23
3.2762548e-23
3.2733023e-23
3.2718492e-23
3.2712143e-23
3.2709726e-23
3.2708997e-23
3.270907e-23
3.2709889e-23
3.2712027e-23
3.2716775e-23
3.2762536e-23
3.273304e-23
3.2718536e-23
3.2712205e-23
3.2709795e-23
3.270907e-23
3.2709145e-23
3.2709966e-23
3.2712107e-23
3.2716857e-23
3.2763131e-23
3.2733724e-23
3.2719294e-23
3.2713002e-23
3.2710609e-23
3.2709889e-23
3.2709966e-23
3.2710789e-23
3.2712931e-23
3.2717683e-23
3.2764718e-23
3.2735586e-23
3.2721322e-23
3.2715103e-23
3.2712737e-23
3.2712027e-23
3.2712107e-23
3.2712931e-23
3.2715075e-23
3.2719829e-23
3.2768204e-23
3.2739938e-23
3.2725946e-23
3.2719815e-23
3.2717477e-23
3.2716775e-23
3.2716857e-23