/*--------------------------------*- C++ -*----------------------------------*\
| =========                 |                                                 |
| \\      /  F ield         | OpenFOAM: The Open Source CFD Toolbox           |
|  \\    /   O peration     | Version:  dev                                   |
|   \\  /    A nd           | Web:      www.OpenFOAM.org                      |
|    \\/     M anipulation  |                                                 |
\*---------------------------------------------------------------------------*/
FoamFile
{
    version     2.0;
    format      ascii;
    class       volScalarField;
    location    "71.995";
    object      A_0;
}
// * * * * * * * * * * * * * * * * * * * * * * * * * * * * * * * * * * * * * //

dimensions      [0 0 0 0 1 0 0];

internalField   nonuniform List<scalar> 
10000
(
3.6160599e-26
3.611362e-26
3.608926e-26
3.6076523e-26
3.6070315e-26
3.6067744e-26
3.606736e-26
3.6068833e-26
3.6072937e-26
3.6081463e-26
3.611362e-26
3.6066841e-26
3.604255e-26
3.6029844e-26
3.6023655e-26
3.6021105e-26
3.6020764e-26
3.6022342e-26
3.6026725e-26
3.6036062e-26
3.608926e-26
3.604255e-26
3.60183e-26
3.6005617e-26
3.5999446e-26
3.5996922e-26
3.599663e-26
3.5998309e-26
3.6002882e-26
3.6012494e-26
3.6076523e-26
3.6029844e-26
3.6005617e-26
3.5992952e-26
3.5986796e-26
3.5984292e-26
3.5984038e-26
3.5985783e-26
3.5990456e-26
3.600017e-26
3.6070315e-26
3.6023655e-26
3.5999446e-26
3.5986796e-26
3.5980653e-26
3.5978165e-26
3.5977935e-26
3.5979717e-26
3.5984436e-26
3.5994191e-26
3.6067744e-26
3.6021105e-26
3.5996922e-26
3.5984292e-26
3.5978165e-26
3.5975691e-26
3.5975475e-26
3.5977275e-26
3.5982016e-26
3.5991786e-26
3.606736e-26
3.6020764e-26
3.599663e-26
3.5984038e-26
3.5977935e-26
3.5975475e-26
3.5975269e-26
3.597708e-26
3.5981831e-26
3.5991607e-26
3.6068833e-26
3.6022342e-26
3.5998309e-26
3.5985783e-26
3.5979717e-26
3.5977275e-26
3.597708e-26
3.5978897e-26
3.5983654e-26
3.5993436e-26
3.6072937e-26
3.6026725e-26
3.6002882e-26
3.5990456e-26
3.5984436e-26
3.5982016e-26
3.5981831e-26
3.5983654e-26
3.5988417e-26
3.5998209e-26
3.6081463e-26
3.6036062e-26
3.6012494e-26
3.600017e-26
3.5994191e-26
3.5991786e-26
3.5991607e-26
3.5993436e-26
3.5998209e-26
3.6008028e-26
1.224614e-25
1.2230831e-25
1.2222674e-25
1.22184e-25
1.2216315e-25
1.2215451e-25
1.2215321e-25
1.2215814e-25
1.2217189e-25
1.2220151e-25
1.2230831e-25
1.2215585e-25
1.2207451e-25
1.2203187e-25
1.2201108e-25
1.2200251e-25
1.2200136e-25
1.2200664e-25
1.2202134e-25
1.2205371e-25
1.2222674e-25
1.2207451e-25
1.2199331e-25
1.2195075e-25
1.2193002e-25
1.2192154e-25
1.2192055e-25
1.2192617e-25
1.2194151e-25
1.2197482e-25
1.22184e-25
1.2203187e-25
1.2195075e-25
1.2190824e-25
1.2188757e-25
1.2187916e-25
1.218783e-25
1.2188414e-25
1.2189981e-25
1.2193347e-25
1.2216315e-25
1.2201108e-25
1.2193002e-25
1.2188757e-25
1.2186694e-25
1.2185858e-25
1.218578e-25
1.2186377e-25
1.218796e-25
1.2191339e-25
1.2215451e-25
1.2200251e-25
1.2192154e-25
1.2187916e-25
1.2185858e-25
1.2185026e-25
1.2184953e-25
1.2185556e-25
1.2187147e-25
1.2190531e-25
1.2215321e-25
1.2200136e-25
1.2192055e-25
1.218783e-25
1.218578e-25
1.2184953e-25
1.2184884e-25
1.218549e-25
1.2187084e-25
1.219047e-25
1.2215814e-25
1.2200664e-25
1.2192617e-25
1.2188414e-25
1.2186377e-25
1.2185556e-25
1.218549e-25
1.2186099e-25
1.2187694e-25
1.2191083e-25
1.2217189e-25
1.2202134e-25
1.2194151e-25
1.2189981e-25
1.218796e-25
1.2187147e-25
1.2187084e-25
1.2187694e-25
1.2189292e-25
1.2192684e-25
1.2220151e-25
1.2205371e-25
1.2197482e-25
1.2193347e-25
1.2191339e-25
1.2190531e-25
1.219047e-25
1.2191083e-25
1.2192684e-25
1.2196085e-25
2.5734628e-25
2.5703503e-25
2.5686694e-25
2.5677862e-25
2.5673548e-25
2.5671758e-25
2.5671487e-25
2.5672497e-25
2.5675323e-25
2.5681601e-25
2.5703503e-25
2.5672505e-25
2.5655743e-25
2.5646931e-25
2.564263e-25
2.5640855e-25
2.5640614e-25
2.5641698e-25
2.5644722e-25
2.5651578e-25
2.5686694e-25
2.5655743e-25
2.5639009e-25
2.5630213e-25
2.5625925e-25
2.5624167e-25
2.5623961e-25
2.5625116e-25
2.5628274e-25
2.5635325e-25
2.5677862e-25
2.5646931e-25
2.5630213e-25
2.5621429e-25
2.5617151e-25
2.5615409e-25
2.5615229e-25
2.5616431e-25
2.5619659e-25
2.5626782e-25
2.5673548e-25
2.564263e-25
2.5625925e-25
2.5617151e-25
2.5612883e-25
2.5611151e-25
2.5610988e-25
2.5612216e-25
2.5615477e-25
2.5622628e-25
2.5671758e-25
2.5640855e-25
2.5624167e-25
2.5615409e-25
2.5611151e-25
2.5609429e-25
2.5609276e-25
2.5610517e-25
2.5613794e-25
2.5620956e-25
2.5671487e-25
2.5640614e-25
2.5623961e-25
2.5615229e-25
2.5610988e-25
2.5609276e-25
2.560913e-25
2.5610378e-25
2.5613662e-25
2.5620829e-25
2.5672497e-25
2.5641698e-25
2.5625116e-25
2.5616431e-25
2.5612216e-25
2.5610517e-25
2.5610378e-25
2.5611631e-25
2.5614919e-25
2.562209e-25
2.5675323e-25
2.5644722e-25
2.5628274e-25
2.5619659e-25
2.5615477e-25
2.5613794e-25
2.5613662e-25
2.5614919e-25
2.5618212e-25
2.5625389e-25
2.5681601e-25
2.5651578e-25
2.5635325e-25
2.5626782e-25
2.5622628e-25
2.5620956e-25
2.5620829e-25
2.562209e-25
2.5625389e-25
2.5632587e-25
4.9716116e-25
4.9657925e-25
4.9626244e-25
4.9609548e-25
4.9601381e-25
4.9597988e-25
4.9597466e-25
4.9599356e-25
4.9604644e-25
4.9616493e-25
4.9657925e-25
4.9599969e-25
4.9568375e-25
4.9551716e-25
4.9543573e-25
4.9540208e-25
4.9539744e-25
4.9541777e-25
4.9547446e-25
4.9560407e-25
4.9626244e-25
4.9568375e-25
4.9536832e-25
4.9520204e-25
4.9512084e-25
4.9508754e-25
4.9508356e-25
4.9510526e-25
4.9516452e-25
4.9529788e-25
4.9609548e-25
4.9551716e-25
4.9520204e-25
4.9503598e-25
4.9495499e-25
4.9492197e-25
4.949185e-25
4.9494109e-25
4.950017e-25
4.9513644e-25
4.9601381e-25
4.9543573e-25
4.9512084e-25
4.9495499e-25
4.9487418e-25
4.9484136e-25
4.9483822e-25
4.948613e-25
4.9492255e-25
4.9505783e-25
4.9597988e-25
4.9540208e-25
4.9508754e-25
4.9492197e-25
4.9484136e-25
4.9480872e-25
4.9480577e-25
4.9482911e-25
4.9489065e-25
4.9502614e-25
4.9597466e-25
4.9539744e-25
4.9508356e-25
4.949185e-25
4.9483822e-25
4.9480577e-25
4.9480296e-25
4.9482643e-25
4.9488811e-25
4.950237e-25
4.9599356e-25
4.9541777e-25
4.9510526e-25
4.9494109e-25
4.948613e-25
4.9482911e-25
4.9482643e-25
4.9485e-25
4.9491175e-25
4.9504741e-25
4.9604644e-25
4.9547446e-25
4.9516452e-25
4.950017e-25
4.9492255e-25
4.9489065e-25
4.9488811e-25
4.9491175e-25
4.9497359e-25
4.9510937e-25
4.9616493e-25
4.9560407e-25
4.9529788e-25
4.9513644e-25
4.9505783e-25
4.9502614e-25
4.950237e-25
4.9504741e-25
4.9510937e-25
4.9524556e-25
9.4661248e-25
9.4554055e-25
9.4495362e-25
9.4464341e-25
9.4449142e-25
9.4442818e-25
9.4441831e-25
9.4445303e-25
9.4454998e-25
9.4476679e-25
9.4554055e-25
9.4447291e-25
9.4388755e-25
9.4357805e-25
9.4342649e-25
9.4336378e-25
9.43355e-25
9.4339242e-25
9.4349658e-25
9.4373448e-25
9.4495362e-25
9.4388755e-25
9.4330314e-25
9.429942e-25
9.4284309e-25
9.4278102e-25
9.427735e-25
9.428135e-25
9.4292252e-25
9.4316751e-25
9.4464341e-25
9.4357805e-25
9.429942e-25
9.4268566e-25
9.4253494e-25
9.424734e-25
9.4246683e-25
9.4250852e-25
9.4262009e-25
9.4286771e-25
9.4449142e-25
9.4342649e-25
9.4284309e-25
9.4253494e-25
9.4238454e-25
9.423234e-25
9.4231744e-25
9.4236006e-25
9.4247284e-25
9.4272147e-25
9.4442818e-25
9.4336378e-25
9.4278102e-25
9.424734e-25
9.423234e-25
9.4226259e-25
9.42257e-25
9.4230009e-25
9.4241342e-25
9.4266245e-25
9.4441831e-25
9.43355e-25
9.427735e-25
9.4246683e-25
9.4231744e-25
9.42257e-25
9.4225168e-25
9.4229503e-25
9.424086e-25
9.4265781e-25
9.4445303e-25
9.4339242e-25
9.428135e-25
9.4250852e-25
9.4236006e-25
9.4230009e-25
9.4229503e-25
9.4233855e-25
9.4245228e-25
9.4270161e-25
9.4454998e-25
9.4349658e-25
9.4292252e-25
9.4262009e-25
9.4247284e-25
9.4241342e-25
9.424086e-25
9.4245228e-25
9.4256616e-25
9.4281572e-25
9.4476679e-25
9.4373448e-25
9.4316751e-25
9.4286771e-25
9.4272147e-25
9.4266245e-25
9.4265781e-25
9.4270161e-25
9.4281572e-25
9.4306603e-25
1.8091987e-24
1.8072174e-24
1.8061274e-24
1.8055498e-24
1.8052663e-24
1.8051481e-24
1.8051294e-24
1.8051933e-24
1.8053712e-24
1.8057665e-24
1.8072174e-24
1.805244e-24
1.8041569e-24
1.8035805e-24
1.8032978e-24
1.8031807e-24
1.803164e-24
1.803233e-24
1.8034246e-24
1.80386e-24
1.8061274e-24
1.8041569e-24
1.8030716e-24
1.8024962e-24
1.8022144e-24
1.8020984e-24
1.8020842e-24
1.802158e-24
1.8023588e-24
1.8028077e-24
1.8055498e-24
1.8035805e-24
1.8024962e-24
1.8019217e-24
1.8016405e-24
1.8015256e-24
1.8015131e-24
1.8015902e-24
1.8017958e-24
1.8022497e-24
1.8052663e-24
1.8032978e-24
1.8022144e-24
1.8016405e-24
1.80136e-24
1.8012458e-24
1.8012345e-24
1.8013133e-24
1.8015212e-24
1.801977e-24
1.8051481e-24
1.8031807e-24
1.8020984e-24
1.8015256e-24
1.8012458e-24
1.8011322e-24
1.8011216e-24
1.8012014e-24
1.8014103e-24
1.8018669e-24
1.8051294e-24
1.803164e-24
1.8020842e-24
1.8015131e-24
1.8012345e-24
1.8011216e-24
1.8011115e-24
1.8011918e-24
1.8014012e-24
1.8018581e-24
1.8051933e-24
1.803233e-24
1.802158e-24
1.8015902e-24
1.8013133e-24
1.8012014e-24
1.8011918e-24
1.8012723e-24
1.801482e-24
1.8019391e-24
1.8053712e-24
1.8034246e-24
1.8023588e-24
1.8017958e-24
1.8015212e-24
1.8014103e-24
1.8014012e-24
1.801482e-24
1.801692e-24
1.8021495e-24
1.8057665e-24
1.80386e-24
1.8028077e-24
1.8022497e-24
1.801977e-24
1.8018669e-24
1.8018581e-24
1.8019391e-24
1.8021495e-24
1.8026084e-24
3.4889323e-24
3.485239e-24
3.4831983e-24
3.4821138e-24
3.4815807e-24
3.4813582e-24
3.4813225e-24
3.4814409e-24
3.4817697e-24
3.4824948e-24
3.485239e-24
3.4815601e-24
3.4795247e-24
3.4784426e-24
3.477911e-24
3.4776904e-24
3.4776586e-24
3.4777868e-24
3.4781419e-24
3.4789438e-24
3.4831983e-24
3.4795247e-24
3.4774926e-24
3.4764124e-24
3.4758824e-24
3.4756641e-24
3.4756368e-24
3.4757744e-24
3.476147e-24
3.4769748e-24
3.4821138e-24
3.4784426e-24
3.4764124e-24
3.4753338e-24
3.474805e-24
3.4745887e-24
3.4745649e-24
3.4747085e-24
3.4750904e-24
3.4759278e-24
3.4815807e-24
3.477911e-24
3.4758824e-24
3.474805e-24
3.4742775e-24
3.4740626e-24
3.4740409e-24
3.474188e-24
3.4745743e-24
3.4754153e-24
3.4813582e-24
3.4776904e-24
3.4756641e-24
3.4745887e-24
3.4740626e-24
3.4738488e-24
3.4738285e-24
3.4739773e-24
3.4743655e-24
3.475208e-24
3.4813225e-24
3.4776586e-24
3.4756368e-24
3.4745649e-24
3.4740409e-24
3.4738285e-24
3.4738092e-24
3.4739589e-24
3.474348e-24
3.4751911e-24
3.4814409e-24
3.4777868e-24
3.4757744e-24
3.4747085e-24
3.474188e-24
3.4739773e-24
3.4739589e-24
3.4741092e-24
3.4744989e-24
3.4753424e-24
3.4817697e-24
3.4781419e-24
3.476147e-24
3.4750904e-24
3.4745743e-24
3.4743655e-24
3.474348e-24
3.4744989e-24
3.4748891e-24
3.4757334e-24
3.4824948e-24
3.4789438e-24
3.4769748e-24
3.4759278e-24
3.4754153e-24
3.475208e-24
3.4751911e-24
3.4753424e-24
3.4757334e-24
3.4765802e-24
6.7990007e-24
6.7920461e-24
6.7881875e-24
6.7861316e-24
6.7851191e-24
6.784696e-24
6.7846271e-24
6.784849e-24
6.7854627e-24
6.7868049e-24
6.7920461e-24
6.7851186e-24
6.7812698e-24
6.7792184e-24
6.7782087e-24
6.7777892e-24
6.7777279e-24
6.7779687e-24
6.7786332e-24
6.7801242e-24
6.7881875e-24
6.7812698e-24
6.7774272e-24
6.7753794e-24
6.7743727e-24
6.7739576e-24
6.7739051e-24
6.7741639e-24
6.7748624e-24
6.7764035e-24
6.7861316e-24
6.7792184e-24
6.7753794e-24
6.7733343e-24
6.7723302e-24
6.7719188e-24
6.7718729e-24
6.7721435e-24
6.7728599e-24
6.7744194e-24
6.7851191e-24
6.7782087e-24
6.7743727e-24
6.7723302e-24
6.7713285e-24
6.7709198e-24
6.7708781e-24
6.7711552e-24
6.7718801e-24
6.7734466e-24
6.784696e-24
6.7777892e-24
6.7739576e-24
6.7719188e-24
6.7709198e-24
6.7705134e-24
6.7704743e-24
6.7707547e-24
6.7714834e-24
6.7730528e-24
6.7846271e-24
6.7777279e-24
6.7739051e-24
6.7718729e-24
6.7708781e-24
6.7704743e-24
6.7704371e-24
6.7707193e-24
6.7714496e-24
6.7730203e-24
6.784849e-24
6.7779687e-24
6.7741639e-24
6.7721435e-24
6.7711552e-24
6.7707547e-24
6.7707193e-24
6.7710027e-24
6.7717341e-24
6.7733055e-24
6.7854627e-24
6.7786332e-24
6.7748624e-24
6.7728599e-24
6.7718801e-24
6.7714834e-24
6.7714496e-24
6.7717341e-24
6.7724665e-24
6.7740393e-24
6.7868049e-24
6.7801242e-24
6.7764035e-24
6.7744194e-24
6.7734466e-24
6.7730528e-24
6.7730203e-24
6.7733055e-24
6.7740393e-24
6.7756167e-24
1.3395059e-23
1.3381825e-23
1.3374453e-23
1.3370514e-23
1.3368572e-23
1.3367759e-23
1.3367625e-23
1.3368045e-23
1.3369202e-23
1.3371713e-23
1.3381825e-23
1.3368643e-23
1.3361289e-23
1.3357359e-23
1.3355421e-23
1.3354615e-23
1.3354496e-23
1.3354953e-23
1.335621e-23
1.3359011e-23
1.3374453e-23
1.3361289e-23
1.3353946e-23
1.3350023e-23
1.3348092e-23
1.3347294e-23
1.3347192e-23
1.3347684e-23
1.3349008e-23
1.3351907e-23
1.3370514e-23
1.3357359e-23
1.3350023e-23
1.3346106e-23
1.3344179e-23
1.3343389e-23
1.33433e-23
1.3343815e-23
1.3345173e-23
1.3348108e-23
1.3368572e-23
1.3355421e-23
1.3348092e-23
1.3344179e-23
1.3342257e-23
1.3341472e-23
1.3341391e-23
1.3341919e-23
1.3343293e-23
1.3346243e-23
1.3367759e-23
1.3354615e-23
1.3347294e-23
1.3343389e-23
1.3341472e-23
1.3340691e-23
1.3340615e-23
1.334115e-23
1.3342532e-23
1.3345486e-23
1.3367625e-23
1.3354496e-23
1.3347192e-23
1.33433e-23
1.3341391e-23
1.3340615e-23
1.3340543e-23
1.3341081e-23
1.3342466e-23
1.3345423e-23
1.3368045e-23
1.3354953e-23
1.3347684e-23
1.3343815e-23
1.3341919e-23
1.334115e-23
1.3341081e-23
1.3341621e-23
1.3343008e-23
1.3345967e-23
1.3369202e-23
1.335621e-23
1.3349008e-23
1.3345173e-23
1.3343293e-23
1.3342532e-23
1.3342466e-23
1.3343008e-23
1.3344398e-23
1.3347359e-23
1.3371713e-23
1.3359011e-23
1.3351907e-23
1.3348108e-23
1.3346243e-23
1.3345486e-23
1.3345423e-23
1.3345967e-23
1.3347359e-23
1.3350328e-23
2.6684835e-23
2.6659384e-23
2.6645147e-23
2.6637523e-23
2.6633755e-23
2.6632177e-23
2.6631913e-23
2.6632717e-23
2.6634925e-23
2.663967e-23
2.6659384e-23
2.6634029e-23
2.6619828e-23
2.661222e-23
2.6608463e-23
2.6606898e-23
2.6606664e-23
2.660754e-23
2.6609944e-23
2.6615265e-23
2.6645147e-23
2.6619828e-23
2.6605649e-23
2.6598054e-23
2.6594309e-23
2.659276e-23
2.659256e-23
2.6593506e-23
2.6596041e-23
2.6601554e-23
2.6637523e-23
2.661222e-23
2.6598054e-23
2.6590469e-23
2.6586733e-23
2.6585199e-23
2.6585024e-23
2.6586016e-23
2.6588619e-23
2.6594204e-23
2.6633755e-23
2.6608463e-23
2.6594309e-23
2.6586733e-23
2.6583006e-23
2.6581483e-23
2.6581324e-23
2.658234e-23
2.6584976e-23
2.6590588e-23
2.6632177e-23
2.6606898e-23
2.659276e-23
2.6585199e-23
2.6581483e-23
2.6579968e-23
2.6579818e-23
2.6580848e-23
2.6583498e-23
2.6589121e-23
2.6631913e-23
2.6606664e-23
2.659256e-23
2.6585024e-23
2.6581324e-23
2.6579818e-23
2.6579677e-23
2.6580713e-23
2.658337e-23
2.6588998e-23
2.6632717e-23
2.660754e-23
2.6593506e-23
2.6586016e-23
2.658234e-23
2.6580848e-23
2.6580713e-23
2.6581753e-23
2.6584414e-23
2.6590045e-23
2.6634925e-23
2.6609944e-23
2.6596041e-23
2.6588619e-23
2.6584976e-23
2.6583498e-23
2.658337e-23
2.6584414e-23
2.6587079e-23
2.6592715e-23
2.663967e-23
2.6615265e-23
2.6601554e-23
2.6594204e-23
2.6590588e-23
2.6589121e-23
2.6588998e-23
2.6590045e-23
2.6592715e-23
2.6598367e-23
5.3757815e-23
5.3708337e-23
5.3680551e-23
5.3665632e-23
5.3658249e-23
5.3655151e-23
5.3654628e-23
5.3656184e-23
5.366044e-23
5.3669507e-23
5.3708337e-23
5.3659046e-23
5.3631329e-23
5.3616441e-23
5.3609078e-23
5.3606006e-23
5.3605542e-23
5.3607243e-23
5.361189e-23
5.3622108e-23
5.3680551e-23
5.3631329e-23
5.3603654e-23
5.3588792e-23
5.3581451e-23
5.3578413e-23
5.3578016e-23
5.3579855e-23
5.3584764e-23
5.3595367e-23
5.3665632e-23
5.3616441e-23
5.3588792e-23
5.357395e-23
5.3566628e-23
5.3563618e-23
5.3563272e-23
5.3565201e-23
5.3570247e-23
5.3580992e-23
5.3658249e-23
5.3609078e-23
5.3581451e-23
5.3566628e-23
5.3559324e-23
5.3556335e-23
5.355602e-23
5.3557999e-23
5.356311e-23
5.357391e-23
5.3655151e-23
5.3606006e-23
5.3578413e-23
5.3563618e-23
5.3556335e-23
5.3553363e-23
5.3553068e-23
5.3555073e-23
5.3560212e-23
5.3571034e-23
5.3654628e-23
5.3605542e-23
5.3578016e-23
5.3563272e-23
5.355602e-23
5.3553068e-23
5.3552787e-23
5.3554806e-23
5.3559959e-23
5.3570789e-23
5.3656184e-23
5.3607243e-23
5.3579855e-23
5.3565201e-23
5.3557999e-23
5.3555073e-23
5.3554806e-23
5.3556833e-23
5.3561993e-23
5.357283e-23
5.366044e-23
5.361189e-23
5.3584764e-23
5.3570247e-23
5.356311e-23
5.3560212e-23
5.3559959e-23
5.3561993e-23
5.3567161e-23
5.3578007e-23
5.3669507e-23
5.3622108e-23
5.3595367e-23
5.3580992e-23
5.357391e-23
5.3571034e-23
5.3570789e-23
5.357283e-23
5.3578007e-23
5.3588883e-23
1.0952184e-22
1.0942461e-22
1.093698e-22
1.0934029e-22
1.0932567e-22
1.0931952e-22
1.0931847e-22
1.0932152e-22
1.0932981e-22
1.0934733e-22
1.0942461e-22
1.0932775e-22
1.0927307e-22
1.0924362e-22
1.0922904e-22
1.0922294e-22
1.0922201e-22
1.0922535e-22
1.0923444e-22
1.0925428e-22
1.093698e-22
1.0927307e-22
1.0921847e-22
1.0918907e-22
1.0917453e-22
1.0916851e-22
1.0916771e-22
1.0917133e-22
1.0918094e-22
1.0920156e-22
1.0934029e-22
1.0924362e-22
1.0918907e-22
1.0915972e-22
1.0914522e-22
1.0913925e-22
1.0913856e-22
1.0914235e-22
1.0915224e-22
1.0917314e-22
1.0932567e-22
1.0922904e-22
1.0917453e-22
1.0914522e-22
1.0913075e-22
1.0912482e-22
1.0912419e-22
1.0912809e-22
1.0913811e-22
1.0915912e-22
1.0931952e-22
1.0922294e-22
1.0916851e-22
1.0913925e-22
1.0912482e-22
1.0911893e-22
1.0911834e-22
1.0912229e-22
1.0913237e-22
1.0915343e-22
1.0931847e-22
1.0922201e-22
1.0916771e-22
1.0913856e-22
1.0912419e-22
1.0911834e-22
1.0911778e-22
1.0912176e-22
1.0913186e-22
1.0915294e-22
1.0932152e-22
1.0922535e-22
1.0917133e-22
1.0914235e-22
1.0912809e-22
1.0912229e-22
1.0912176e-22
1.0912575e-22
1.0913587e-22
1.0915696e-22
1.0932981e-22
1.0923444e-22
1.0918094e-22
1.0915224e-22
1.0913811e-22
1.0913237e-22
1.0913186e-22
1.0913587e-22
1.09146e-22
1.0916711e-22
1.0934733e-22
1.0925428e-22
1.0920156e-22
1.0917314e-22
1.0915912e-22
1.0915343e-22
1.0915294e-22
1.0915696e-22
1.0916711e-22
1.0918828e-22
2.2566337e-22
2.2547024e-22
2.2536093e-22
2.2530195e-22
2.2527266e-22
2.2526034e-22
2.2525822e-22
2.2526425e-22
2.252806e-22
2.2531481e-22
2.2547024e-22
2.2527782e-22
2.2516877e-22
2.2510991e-22
2.2508071e-22
2.250685e-22
2.2506662e-22
2.2507324e-22
2.250912e-22
2.2513015e-22
2.2536093e-22
2.2516877e-22
2.2505989e-22
2.2500113e-22
2.2497201e-22
2.2495994e-22
2.2495833e-22
2.2496552e-22
2.2498456e-22
2.250251e-22
2.2530195e-22
2.2510991e-22
2.2500113e-22
2.2494245e-22
2.2491341e-22
2.2490145e-22
2.2490005e-22
2.2490761e-22
2.2492721e-22
2.2496833e-22
2.2527266e-22
2.2508071e-22
2.2497201e-22
2.2491341e-22
2.2488444e-22
2.2487257e-22
2.248713e-22
2.2487906e-22
2.2489893e-22
2.2494028e-22
2.2526034e-22
2.250685e-22
2.2495994e-22
2.2490145e-22
2.2487257e-22
2.2486077e-22
2.2485958e-22
2.2486745e-22
2.2488743e-22
2.2492887e-22
2.2525822e-22
2.2506662e-22
2.2495833e-22
2.2490005e-22
2.248713e-22
2.2485958e-22
2.2485845e-22
2.2486637e-22
2.2488641e-22
2.2492789e-22
2.2526425e-22
2.2507324e-22
2.2496552e-22
2.2490761e-22
2.2487906e-22
2.2486745e-22
2.2486637e-22
2.2487433e-22
2.248944e-22
2.249359e-22
2.252806e-22
2.250912e-22
2.2498456e-22
2.2492721e-22
2.2489893e-22
2.2488743e-22
2.2488641e-22
2.248944e-22
2.2491449e-22
2.2495603e-22
2.2531481e-22
2.2513015e-22
2.250251e-22
2.2496833e-22
2.2494028e-22
2.2492887e-22
2.2492789e-22
2.249359e-22
2.2495603e-22
2.2499768e-22
4.702595e-22
4.6987168e-22
4.6965134e-22
4.6953217e-22
4.6947291e-22
4.6944795e-22
4.6944362e-22
4.6945567e-22
4.6948826e-22
4.6955581e-22
4.6987168e-22
4.6948529e-22
4.6926547e-22
4.6914653e-22
4.6908743e-22
4.690627e-22
4.6905886e-22
4.6907214e-22
4.6910805e-22
4.6918539e-22
4.6965134e-22
4.6926547e-22
4.6904599e-22
4.6892725e-22
4.6886833e-22
4.6884388e-22
4.688406e-22
4.6885505e-22
4.6889317e-22
4.6897379e-22
4.6953217e-22
4.6914653e-22
4.6892725e-22
4.6880867e-22
4.6874991e-22
4.6872569e-22
4.6872284e-22
4.6873806e-22
4.6877734e-22
4.6885916e-22
4.6947291e-22
4.6908743e-22
4.6886833e-22
4.6874991e-22
4.686913e-22
4.6866725e-22
4.6866467e-22
4.6868031e-22
4.6872013e-22
4.6880242e-22
4.6944795e-22
4.690627e-22
4.6884388e-22
4.6872569e-22
4.6866725e-22
4.6864335e-22
4.6864094e-22
4.6865679e-22
4.6869686e-22
4.6877933e-22
4.6944362e-22
4.6905886e-22
4.688406e-22
4.6872284e-22
4.6866467e-22
4.6864094e-22
4.6863864e-22
4.6865461e-22
4.6869479e-22
4.6877734e-22
4.6945567e-22
4.6907214e-22
4.6885505e-22
4.6873806e-22
4.6868031e-22
4.6865679e-22
4.6865461e-22
4.6867064e-22
4.6871089e-22
4.6879349e-22
4.6948826e-22
4.6910805e-22
4.6889317e-22
4.6877734e-22
4.6872013e-22
4.6869686e-22
4.6869479e-22
4.6871089e-22
4.6875119e-22
4.6883386e-22
4.6955581e-22
4.6918539e-22
4.6897379e-22
4.6885916e-22
4.6880242e-22
4.6877933e-22
4.6877734e-22
4.6879349e-22
4.6883386e-22
4.6891675e-22
9.9115403e-22
9.9036678e-22
9.8991784e-22
9.8967443e-22
9.8955321e-22
9.895021e-22
9.8949317e-22
9.8951757e-22
9.8958324e-22
9.8971812e-22
9.9036678e-22
9.8958242e-22
9.8913452e-22
9.8889158e-22
9.887707e-22
9.8872005e-22
9.8871214e-22
9.887391e-22
9.8881168e-22
9.8896699e-22
9.8991784e-22
9.8913452e-22
9.8868729e-22
9.8844477e-22
9.8832425e-22
9.8827419e-22
9.8826744e-22
9.8829683e-22
9.8837403e-22
9.8853617e-22
9.8967443e-22
9.8889158e-22
9.8844477e-22
9.8820258e-22
9.8808239e-22
9.8803281e-22
9.8802695e-22
9.8805792e-22
9.8813754e-22
9.8830218e-22
9.8955321e-22
9.887707e-22
9.8832425e-22
9.8808239e-22
9.8796249e-22
9.8791328e-22
9.8790798e-22
9.8793983e-22
9.8802058e-22
9.881862e-22
9.895021e-22
9.8872005e-22
9.8827419e-22
9.8803281e-22
9.8791328e-22
9.8786436e-22
9.8785941e-22
9.878917e-22
9.8797296e-22
9.8813897e-22
9.8949317e-22
9.8871214e-22
9.8826744e-22
9.8802695e-22
9.8790798e-22
9.8785941e-22
9.8785471e-22
9.8788724e-22
9.8796873e-22
9.8813489e-22
9.8951757e-22
9.887391e-22
9.8829683e-22
9.8805792e-22
9.8793983e-22
9.878917e-22
9.8788724e-22
9.8791992e-22
9.8800154e-22
9.881678e-22
9.8958324e-22
9.8881168e-22
9.8837403e-22
9.8813754e-22
9.8802058e-22
9.8797296e-22
9.8796873e-22
9.8800154e-22
9.8808328e-22
9.8824968e-22
9.8971812e-22
9.8896699e-22
9.8853617e-22
9.8830218e-22
9.881862e-22
9.8813897e-22
9.8813489e-22
9.881678e-22
9.8824968e-22
9.8841652e-22
2.1128977e-21
2.1112823e-21
2.1103576e-21
2.1098551e-21
2.1096045e-21
2.1094987e-21
2.1094801e-21
2.10953e-21
2.1096638e-21
2.1099362e-21
2.1112823e-21
2.1096727e-21
2.1087502e-21
2.1082486e-21
2.1079987e-21
2.1078939e-21
2.1078774e-21
2.1079327e-21
2.1080811e-21
2.1083965e-21
2.1103576e-21
2.1087502e-21
2.107829e-21
2.1073283e-21
2.1070791e-21
2.1069755e-21
2.1069615e-21
2.107022e-21
2.1071801e-21
2.1075099e-21
2.1098551e-21
2.1082486e-21
2.1073283e-21
2.1068283e-21
2.1065798e-21
2.1064772e-21
2.1064651e-21
2.1065288e-21
2.106692e-21
2.1070271e-21
2.1096045e-21
2.1079987e-21
2.1070791e-21
2.1065798e-21
2.1063319e-21
2.1062301e-21
2.1062191e-21
2.1062847e-21
2.1064503e-21
2.1067875e-21
2.1094987e-21
2.1078939e-21
2.1069755e-21
2.1064772e-21
2.1062301e-21
2.1061289e-21
2.1061187e-21
2.1061852e-21
2.1063519e-21
2.1066898e-21
2.1094801e-21
2.1078774e-21
2.1069615e-21
2.1064651e-21
2.1062191e-21
2.1061187e-21
2.106109e-21
2.106176e-21
2.1063432e-21
2.1066814e-21
2.10953e-21
2.1079327e-21
2.107022e-21
2.1065288e-21
2.1062847e-21
2.1061852e-21
2.106176e-21
2.1062434e-21
2.1064108e-21
2.1067493e-21
2.1096638e-21
2.1080811e-21
2.1071801e-21
2.106692e-21
2.1064503e-21
2.1063519e-21
2.1063432e-21
2.1064108e-21
2.1065785e-21
2.1069172e-21
2.1099362e-21
2.1083965e-21
2.1075099e-21
2.1070271e-21
2.1067875e-21
2.1066898e-21
2.1066814e-21
2.1067493e-21
2.1069172e-21
2.1072568e-21
4.5556651e-21
4.5523141e-21
4.550389e-21
4.5493404e-21
4.5488167e-21
4.5485954e-21
4.5485562e-21
4.5486596e-21
4.5489354e-21
4.5494913e-21
4.5523141e-21
4.5489752e-21
4.5470545e-21
4.5460079e-21
4.5454856e-21
4.5452663e-21
4.5452317e-21
4.5453465e-21
4.5456534e-21
4.5463011e-21
4.550389e-21
4.5470545e-21
4.5451367e-21
4.5440918e-21
4.5435711e-21
4.5433544e-21
4.543325e-21
4.5434508e-21
4.5437783e-21
4.5444567e-21
4.5493404e-21
4.5460079e-21
4.5440918e-21
4.5430484e-21
4.5425291e-21
4.5423146e-21
4.5422892e-21
4.542422e-21
4.5427603e-21
4.54345e-21
4.5488167e-21
4.5454856e-21
4.5435711e-21
4.5425291e-21
4.5420112e-21
4.5417983e-21
4.5417753e-21
4.5419121e-21
4.5422555e-21
4.5429495e-21
4.5485954e-21
4.5452663e-21
4.5433544e-21
4.5423146e-21
4.5417983e-21
4.5415868e-21
4.5415654e-21
4.5417041e-21
4.5420498e-21
4.5427455e-21
4.5485562e-21
4.5452317e-21
4.543325e-21
4.5422892e-21
4.5417753e-21
4.5415654e-21
4.5415451e-21
4.5416848e-21
4.5420316e-21
4.542728e-21
4.5486596e-21
4.5453465e-21
4.5434508e-21
4.542422e-21
4.5419121e-21
4.5417041e-21
4.5416848e-21
4.5418253e-21
4.5421726e-21
4.5428695e-21
4.5489354e-21
4.5456534e-21
4.5437783e-21
4.5427603e-21
4.5422555e-21
4.5420498e-21
4.5420316e-21
4.5421726e-21
4.5425204e-21
4.5432179e-21
4.5494913e-21
4.5463011e-21
4.5444567e-21
4.54345e-21
4.5429495e-21
4.5427455e-21
4.542728e-21
4.5428695e-21
4.5432179e-21
4.5439171e-21
9.9347884e-21
9.9277619e-21
9.9237109e-21
9.9214991e-21
9.9203929e-21
9.9199251e-21
9.9198418e-21
9.9200582e-21
9.9206331e-21
9.9217806e-21
9.9277619e-21
9.9207606e-21
9.9167186e-21
9.914511e-21
9.9134078e-21
9.9129444e-21
9.9128709e-21
9.913112e-21
9.9137536e-21
9.915099e-21
9.9237109e-21
9.9167186e-21
9.9126826e-21
9.9104787e-21
9.9093789e-21
9.908921e-21
9.9088587e-21
9.9091232e-21
9.9098093e-21
9.9112207e-21
9.9214991e-21
9.914511e-21
9.9104787e-21
9.9082779e-21
9.9071811e-21
9.9067279e-21
9.9066741e-21
9.9069539e-21
9.9076632e-21
9.9090988e-21
9.9203929e-21
9.9134078e-21
9.9093789e-21
9.9071811e-21
9.9060872e-21
9.9056374e-21
9.905589e-21
9.9058772e-21
9.9065975e-21
9.9080425e-21
9.9199251e-21
9.9129444e-21
9.908921e-21
9.9067279e-21
9.9056374e-21
9.9051905e-21
9.9051455e-21
9.9054379e-21
9.9061631e-21
9.9076118e-21
9.9198418e-21
9.9128709e-21
9.9088587e-21
9.9066741e-21
9.905589e-21
9.9051455e-21
9.9051028e-21
9.9053974e-21
9.9061249e-21
9.9075751e-21
9.9200582e-21
9.913112e-21
9.9091232e-21
9.9069539e-21
9.9058772e-21
9.9054379e-21
9.9053974e-21
9.9056936e-21
9.9064223e-21
9.9078734e-21
9.9206331e-21
9.9137536e-21
9.9098093e-21
9.9076632e-21
9.9065975e-21
9.9061631e-21
9.9061249e-21
9.9064223e-21
9.907152e-21
9.9086043e-21
9.9217806e-21
9.915099e-21
9.9112207e-21
9.9090988e-21
9.9080425e-21
9.9076118e-21
9.9075751e-21
9.9078734e-21
9.9086043e-21
9.9100603e-21
2.1912478e-20
2.1897585e-20
2.1888969e-20
2.1884254e-20
2.1881892e-20
2.1880893e-20
2.1880714e-20
2.1881172e-20
2.1882384e-20
2.1884779e-20
2.1897585e-20
2.1882745e-20
2.1874148e-20
2.1869442e-20
2.1867087e-20
2.1866097e-20
2.1865939e-20
2.1866451e-20
2.1867808e-20
2.1870634e-20
2.1888969e-20
2.1874148e-20
2.1865563e-20
2.1860865e-20
2.1858517e-20
2.1857539e-20
2.1857406e-20
2.1857969e-20
2.1859422e-20
2.1862392e-20
2.1884254e-20
2.1869442e-20
2.1860865e-20
2.1856173e-20
2.1853832e-20
2.1852864e-20
2.1852749e-20
2.1853345e-20
2.1854849e-20
2.1857872e-20
2.1881892e-20
2.1867087e-20
2.1858517e-20
2.1853832e-20
2.1851497e-20
2.1850536e-20
2.1850433e-20
2.1851047e-20
2.1852575e-20
2.1855618e-20
2.1880893e-20
2.1866097e-20
2.1857539e-20
2.1852864e-20
2.1850536e-20
2.1849582e-20
2.1849486e-20
2.185011e-20
2.1851648e-20
2.1854699e-20
2.1880714e-20
2.1865939e-20
2.1857406e-20
2.1852749e-20
2.1850433e-20
2.1849486e-20
2.1849396e-20
2.1850024e-20
2.1851567e-20
2.1854622e-20
2.1881172e-20
2.1866451e-20
2.1857969e-20
2.1853345e-20
2.1851047e-20
2.185011e-20
2.1850024e-20
2.1850656e-20
2.1852202e-20
2.1855258e-20
2.1882384e-20
2.1867808e-20
2.1859422e-20
2.1854849e-20
2.1852575e-20
2.1851648e-20
2.1851567e-20
2.1852202e-20
2.185375e-20
2.1856809e-20
2.1884779e-20
2.1870634e-20
2.1862392e-20
2.1857872e-20
2.1855618e-20
2.1854699e-20
2.1854622e-20
2.1855258e-20
2.1856809e-20
2.1859875e-20
4.888072e-20
4.8848816e-20
4.8830292e-20
4.8820134e-20
4.8815039e-20
4.8812882e-20
4.8812494e-20
4.8813475e-20
4.8816057e-20
4.8821112e-20
4.8848816e-20
4.8817024e-20
4.8798541e-20
4.8788401e-20
4.878332e-20
4.8781183e-20
4.8780842e-20
4.8781941e-20
4.8784843e-20
4.8790846e-20
4.8830292e-20
4.8798541e-20
4.8780084e-20
4.8769962e-20
4.8764897e-20
4.8762786e-20
4.8762498e-20
4.8763709e-20
4.8766824e-20
4.8773143e-20
4.8820134e-20
4.8788401e-20
4.8769962e-20
4.8759853e-20
4.8754802e-20
4.8752713e-20
4.8752467e-20
4.8753751e-20
4.8756976e-20
4.8763411e-20
4.8815039e-20
4.878332e-20
4.8764897e-20
4.8754802e-20
4.8749765e-20
4.8747693e-20
4.8747472e-20
4.8748796e-20
4.8752073e-20
4.8758554e-20
4.8812882e-20
4.8781183e-20
4.8762786e-20
4.8752713e-20
4.8747693e-20
4.8745634e-20
4.8745429e-20
4.8746773e-20
4.8750074e-20
4.8756572e-20
4.8812494e-20
4.8780842e-20
4.8762498e-20
4.8752467e-20
4.8747472e-20
4.8745429e-20
4.8745235e-20
4.874659e-20
4.8749901e-20
4.8756407e-20
4.8813475e-20
4.8781941e-20
4.8763709e-20
4.8753751e-20
4.8748796e-20
4.8746773e-20
4.874659e-20
4.8747952e-20
4.8751269e-20
4.8757779e-20
4.8816057e-20
4.8784843e-20
4.8766824e-20
4.8756976e-20
4.8752073e-20
4.8750074e-20
4.8749901e-20
4.8751269e-20
4.8754591e-20
4.8761106e-20
4.8821112e-20
4.8790846e-20
4.8773143e-20
4.8763411e-20
4.8758554e-20
4.8756572e-20
4.8756407e-20
4.8757779e-20
4.8761106e-20
4.8767637e-20
1.1027536e-19
1.1020629e-19
1.1016604e-19
1.1014392e-19
1.1013282e-19
1.1012811e-19
1.1012726e-19
1.1012938e-19
1.1013495e-19
1.1014573e-19
1.1020629e-19
1.1013745e-19
1.1009729e-19
1.1007521e-19
1.1006413e-19
1.1005947e-19
1.1005873e-19
1.1006111e-19
1.1006739e-19
1.1008029e-19
1.1016604e-19
1.1009729e-19
1.1005719e-19
1.1003515e-19
1.1002411e-19
1.100195e-19
1.1001888e-19
1.1002151e-19
1.1002826e-19
1.1004186e-19
1.1014392e-19
1.1007521e-19
1.1003515e-19
1.1001314e-19
1.1000213e-19
1.0999757e-19
1.0999704e-19
1.0999983e-19
1.1000683e-19
1.1002069e-19
1.1013282e-19
1.1006413e-19
1.1002411e-19
1.1000213e-19
1.0999115e-19
1.0998663e-19
1.0998615e-19
1.0998904e-19
1.0999615e-19
1.100101e-19
1.1012811e-19
1.1005947e-19
1.100195e-19
1.0999757e-19
1.0998663e-19
1.0998214e-19
1.099817e-19
1.0998463e-19
1.0999179e-19
1.1000579e-19
1.1012726e-19
1.1005873e-19
1.1001888e-19
1.0999704e-19
1.0998615e-19
1.099817e-19
1.0998128e-19
1.0998423e-19
1.0999142e-19
1.1000543e-19
1.1012938e-19
1.1006111e-19
1.1002151e-19
1.0999983e-19
1.0998904e-19
1.0998463e-19
1.0998423e-19
1.099872e-19
1.099944e-19
1.1000842e-19
1.1013495e-19
1.1006739e-19
1.1002826e-19
1.1000683e-19
1.0999615e-19
1.0999179e-19
1.0999142e-19
1.099944e-19
1.1000161e-19
1.1001564e-19
1.1014573e-19
1.1008029e-19
1.1004186e-19
1.1002069e-19
1.100101e-19
1.1000579e-19
1.1000543e-19