/*--------------------------------*- C++ -*----------------------------------*\
| =========                 |                                                 |
| \\      /  F ield         | OpenFOAM: The Open Source CFD Toolbox           |
|  \\    /   O peration     | Version:  dev                                   |
|   \\  /    A nd           | Web:      www.OpenFOAM.org                      |
|    \\/     M anipulation  |                                                 |
\*---------------------------------------------------------------------------*/
FoamFile
{
    version     2.0;
    format      ascii;
    class       volScalarField;
    location    "5";
    object      A;
}
// * * * * * * * * * * * * * * * * * * * * * * * * * * * * * * * * * * * * * //

dimensions      [0 0 0 0 1 0 0];

internalField   nonuniform List<scalar> 
10000
(
1.8973663e-91
1.8954585e-91
1.895072e-91
1.895014e-91
1.8950072e-91
1.8950066e-91
1.8950065e-91
1.8950067e-91
1.8950075e-91
1.8950132e-91
1.8954585e-91
1.8935535e-91
1.8931675e-91
1.8931096e-91
1.8931028e-91
1.8931022e-91
1.8931021e-91
1.8931025e-91
1.8931049e-91
1.8931193e-91
1.895072e-91
1.8931675e-91
1.8927816e-91
1.8927237e-91
1.8927169e-91
1.8927163e-91
1.8927163e-91
1.8927167e-91
1.8927195e-91
1.8927355e-91
1.895014e-91
1.8931096e-91
1.8927237e-91
1.8926658e-91
1.8926591e-91
1.8926584e-91
1.8926584e-91
1.8926588e-91
1.8926617e-91
1.8926779e-91
1.8950072e-91
1.8931028e-91
1.8927169e-91
1.8926591e-91
1.8926523e-91
1.8926516e-91
1.8926516e-91
1.892652e-91
1.892655e-91
1.8926711e-91
1.8950066e-91
1.8931022e-91
1.8927163e-91
1.8926584e-91
1.8926516e-91
1.892651e-91
1.892651e-91
1.8926514e-91
1.8926543e-91
1.8926705e-91
1.8950065e-91
1.8931021e-91
1.8927163e-91
1.8926584e-91
1.8926516e-91
1.892651e-91
1.892651e-91
1.8926514e-91
1.8926543e-91
1.8926705e-91
1.8950067e-91
1.8931025e-91
1.8927167e-91
1.8926588e-91
1.892652e-91
1.8926514e-91
1.8926514e-91
1.8926518e-91
1.8926547e-91
1.8926709e-91
1.8950075e-91
1.8931049e-91
1.8927195e-91
1.8926617e-91
1.892655e-91
1.8926543e-91
1.8926543e-91
1.8926547e-91
1.8926577e-91
1.8926739e-91
1.8950132e-91
1.8931193e-91
1.8927355e-91
1.8926779e-91
1.8926711e-91
1.8926705e-91
1.8926705e-91
1.8926709e-91
1.8926739e-91
1.89269e-91
2.2314554e-90
2.2292698e-90
2.2288257e-90
2.2287591e-90
2.2287513e-90
2.2287506e-90
2.2287505e-90
2.2287507e-90
2.2287517e-90
2.2287584e-90
2.2292698e-90
2.2270873e-90
2.2266438e-90
2.2265773e-90
2.2265695e-90
2.2265688e-90
2.2265687e-90
2.2265691e-90
2.2265719e-90
2.2265888e-90
2.2288257e-90
2.2266438e-90
2.2262005e-90
2.226134e-90
2.2261262e-90
2.2261255e-90
2.2261255e-90
2.226126e-90
2.2261293e-90
2.2261479e-90
2.2287591e-90
2.2265773e-90
2.226134e-90
2.2260675e-90
2.2260597e-90
2.226059e-90
2.226059e-90
2.2260595e-90
2.2260629e-90
2.2260818e-90
2.2287513e-90
2.2265695e-90
2.2261262e-90
2.2260597e-90
2.2260519e-90
2.2260512e-90
2.2260512e-90
2.2260517e-90
2.2260551e-90
2.226074e-90
2.2287506e-90
2.2265688e-90
2.2261255e-90
2.226059e-90
2.2260512e-90
2.2260505e-90
2.2260505e-90
2.2260509e-90
2.2260543e-90
2.2260733e-90
2.2287505e-90
2.2265687e-90
2.2261255e-90
2.226059e-90
2.2260512e-90
2.2260505e-90
2.2260505e-90
2.2260509e-90
2.2260543e-90
2.2260733e-90
2.2287507e-90
2.2265691e-90
2.226126e-90
2.2260595e-90
2.2260517e-90
2.2260509e-90
2.2260509e-90
2.2260514e-90
2.2260548e-90
2.2260738e-90
2.2287517e-90
2.2265719e-90
2.2261293e-90
2.2260629e-90
2.2260551e-90
2.2260543e-90
2.2260543e-90
2.2260548e-90
2.2260582e-90
2.2260772e-90
2.2287584e-90
2.2265888e-90
2.2261479e-90
2.2260818e-90
2.226074e-90
2.2260733e-90
2.2260733e-90
2.2260738e-90
2.2260772e-90
2.2260962e-90
2.4508841e-89
2.4485487e-89
2.4480738e-89
2.4480025e-89
2.4479942e-89
2.4479934e-89
2.4479933e-89
2.4479935e-89
2.4479945e-89
2.4480016e-89
2.4485487e-89
2.4462165e-89
2.4457422e-89
2.4456711e-89
2.4456627e-89
2.4456619e-89
2.4456619e-89
2.4456623e-89
2.4456654e-89
2.4456835e-89
2.4480738e-89
2.4457422e-89
2.4452681e-89
2.445197e-89
2.4451886e-89
2.4451878e-89
2.4451878e-89
2.4451883e-89
2.4451919e-89
2.4452119e-89
2.4480025e-89
2.4456711e-89
2.445197e-89
2.4451258e-89
2.4451175e-89
2.4451167e-89
2.4451167e-89
2.4451172e-89
2.4451209e-89
2.4451412e-89
2.4479942e-89
2.4456627e-89
2.4451886e-89
2.4451175e-89
2.4451091e-89
2.4451083e-89
2.4451083e-89
2.4451089e-89
2.4451125e-89
2.4451329e-89
2.4479934e-89
2.4456619e-89
2.4451878e-89
2.4451167e-89
2.4451083e-89
2.4451076e-89
2.4451075e-89
2.4451081e-89
2.4451118e-89
2.4451321e-89
2.4479933e-89
2.4456619e-89
2.4451878e-89
2.4451167e-89
2.4451083e-89
2.4451075e-89
2.4451075e-89
2.4451081e-89
2.4451118e-89
2.4451321e-89
2.4479935e-89
2.4456623e-89
2.4451883e-89
2.4451172e-89
2.4451089e-89
2.4451081e-89
2.4451081e-89
2.4451086e-89
2.4451123e-89
2.4451326e-89
2.4479945e-89
2.4456654e-89
2.4451919e-89
2.4451209e-89
2.4451125e-89
2.4451118e-89
2.4451118e-89
2.4451123e-89
2.445116e-89
2.4451363e-89
2.4480016e-89
2.4456835e-89
2.4452119e-89
2.4451412e-89
2.4451329e-89
2.4451321e-89
2.4451321e-89
2.4451326e-89
2.4451363e-89
2.4451566e-89
2.7653794e-88
2.762817e-88
2.7622955e-88
2.7622173e-88
2.7622081e-88
2.7622072e-88
2.7622071e-88
2.7622073e-88
2.7622085e-88
2.762216e-88
2.762817e-88
2.7602581e-88
2.7597373e-88
2.7596591e-88
2.7596499e-88
2.7596491e-88
2.759649e-88
2.7596495e-88
2.7596529e-88
2.7596728e-88
2.7622955e-88
2.7597373e-88
2.7592166e-88
2.7591384e-88
2.7591293e-88
2.7591284e-88
2.7591284e-88
2.759129e-88
2.7591329e-88
2.759155e-88
2.7622173e-88
2.7596591e-88
2.7591384e-88
2.7590603e-88
2.7590511e-88
2.7590503e-88
2.7590503e-88
2.7590508e-88
2.7590549e-88
2.7590773e-88
2.7622081e-88
2.7596499e-88
2.7591293e-88
2.7590511e-88
2.759042e-88
2.7590411e-88
2.7590411e-88
2.7590417e-88
2.7590458e-88
2.7590681e-88
2.7622072e-88
2.7596491e-88
2.7591284e-88
2.7590503e-88
2.7590411e-88
2.7590402e-88
2.7590402e-88
2.7590408e-88
2.7590449e-88
2.7590673e-88
2.7622071e-88
2.759649e-88
2.7591284e-88
2.7590503e-88
2.7590411e-88
2.7590402e-88
2.7590402e-88
2.7590408e-88
2.7590449e-88
2.7590673e-88
2.7622073e-88
2.7596495e-88
2.759129e-88
2.7590508e-88
2.7590417e-88
2.7590408e-88
2.7590408e-88
2.7590414e-88
2.7590455e-88
2.7590679e-88
2.7622085e-88
2.7596529e-88
2.7591329e-88
2.7590549e-88
2.7590458e-88
2.7590449e-88
2.7590449e-88
2.7590455e-88
2.7590496e-88
2.7590719e-88
2.762216e-88
2.7596728e-88
2.759155e-88
2.7590773e-88
2.7590681e-88
2.7590673e-88
2.7590673e-88
2.7590679e-88
2.7590719e-88
2.7590943e-88
3.207675e-87
3.2047861e-87
3.2041976e-87
3.2041093e-87
3.2040989e-87
3.204098e-87
3.2040979e-87
3.2040981e-87
3.2040994e-87
3.2041077e-87
3.2047861e-87
3.201901e-87
3.2013133e-87
3.2012251e-87
3.2012147e-87
3.2012137e-87
3.2012137e-87
3.2012142e-87
3.2012181e-87
3.2012405e-87
3.2041976e-87
3.2013133e-87
3.2007257e-87
3.2006375e-87
3.2006272e-87
3.2006262e-87
3.2006262e-87
3.2006268e-87
3.2006314e-87
3.2006563e-87
3.2041093e-87
3.2012251e-87
3.2006375e-87
3.2005494e-87
3.200539e-87
3.200538e-87
3.200538e-87
3.2005387e-87
3.2005433e-87
3.2005686e-87
3.2040989e-87
3.2012147e-87
3.2006272e-87
3.200539e-87
3.2005287e-87
3.2005277e-87
3.2005277e-87
3.2005283e-87
3.200533e-87
3.2005583e-87
3.204098e-87
3.2012137e-87
3.2006262e-87
3.200538e-87
3.2005277e-87
3.2005267e-87
3.2005267e-87
3.2005274e-87
3.200532e-87
3.2005573e-87
3.2040979e-87
3.2012137e-87
3.2006262e-87
3.200538e-87
3.2005277e-87
3.2005267e-87
3.2005267e-87
3.2005274e-87
3.200532e-87
3.2005573e-87
3.2040981e-87
3.2012142e-87
3.2006268e-87
3.2005387e-87
3.2005283e-87
3.2005274e-87
3.2005274e-87
3.200528e-87
3.2005327e-87
3.200558e-87
3.2040994e-87
3.2012181e-87
3.2006314e-87
3.2005433e-87
3.200533e-87
3.200532e-87
3.200532e-87
3.2005327e-87
3.2005373e-87
3.2005627e-87
3.2041077e-87
3.2012405e-87
3.2006563e-87
3.2005686e-87
3.2005583e-87
3.2005573e-87
3.2005573e-87
3.200558e-87
3.2005627e-87
3.200588e-87
3.8247248e-86
3.8213782e-86
3.820696e-86
3.8205936e-86
3.8205815e-86
3.8205804e-86
3.8205803e-86
3.8205805e-86
3.8205821e-86
3.8205915e-86
3.8213782e-86
3.818036e-86
3.8173546e-86
3.8172523e-86
3.8172403e-86
3.8172392e-86
3.8172391e-86
3.8172398e-86
3.8172443e-86
3.8172704e-86
3.820696e-86
3.8173546e-86
3.8166734e-86
3.8165711e-86
3.8165591e-86
3.816558e-86
3.816558e-86
3.8165587e-86
3.8165641e-86
3.8165931e-86
3.8205936e-86
3.8172523e-86
3.8165711e-86
3.8164689e-86
3.8164569e-86
3.8164557e-86
3.8164557e-86
3.8164565e-86
3.8164619e-86
3.8164914e-86
3.8205815e-86
3.8172403e-86
3.8165591e-86
3.8164569e-86
3.8164449e-86
3.8164437e-86
3.8164437e-86
3.8164445e-86
3.81645e-86
3.8164794e-86
3.8205804e-86
3.8172392e-86
3.816558e-86
3.8164557e-86
3.8164437e-86
3.8164426e-86
3.8164426e-86
3.8164434e-86
3.8164488e-86
3.8164783e-86
3.8205803e-86
3.8172391e-86
3.816558e-86
3.8164557e-86
3.8164437e-86
3.8164426e-86
3.8164426e-86
3.8164434e-86
3.8164488e-86
3.8164783e-86
3.8205805e-86
3.8172398e-86
3.8165587e-86
3.8164565e-86
3.8164445e-86
3.8164434e-86
3.8164434e-86
3.8164442e-86
3.8164496e-86
3.8164791e-86
3.8205821e-86
3.8172443e-86
3.8165641e-86
3.8164619e-86
3.81645e-86
3.8164488e-86
3.8164488e-86
3.8164496e-86
3.8164551e-86
3.8164846e-86
3.8205915e-86
3.8172704e-86
3.8165931e-86
3.8164914e-86
3.8164794e-86
3.8164783e-86
3.8164783e-86
3.8164791e-86
3.8164846e-86
3.816514e-86
4.6875672e-85
4.6835844e-85
4.6827718e-85
4.6826497e-85
4.6826354e-85
4.6826341e-85
4.682634e-85
4.6826342e-85
4.6826361e-85
4.6826471e-85
4.6835844e-85
4.6796066e-85
4.678795e-85
4.6786731e-85
4.6786588e-85
4.6786575e-85
4.6786574e-85
4.6786582e-85
4.6786636e-85
4.6786948e-85
4.6827718e-85
4.678795e-85
4.6779836e-85
4.6778618e-85
4.6778475e-85
4.6778461e-85
4.6778461e-85
4.677847e-85
4.6778534e-85
4.6778882e-85
4.6826497e-85
4.6786731e-85
4.6778618e-85
4.6777399e-85
4.6777256e-85
4.6777243e-85
4.6777243e-85
4.6777252e-85
4.6777318e-85
4.677767e-85
4.6826354e-85
4.6786588e-85
4.6778475e-85
4.6777256e-85
4.6777113e-85
4.67771e-85
4.67771e-85
4.6777109e-85
4.6777175e-85
4.6777528e-85
4.6826341e-85
4.6786575e-85
4.6778461e-85
4.6777243e-85
4.67771e-85
4.6777086e-85
4.6777086e-85
4.6777096e-85
4.6777161e-85
4.6777514e-85
4.682634e-85
4.6786574e-85
4.6778461e-85
4.6777243e-85
4.67771e-85
4.6777086e-85
4.6777086e-85
4.6777096e-85
4.6777161e-85
4.6777514e-85
4.6826342e-85
4.6786582e-85
4.677847e-85
4.6777252e-85
4.6777109e-85
4.6777096e-85
4.6777096e-85
4.6777105e-85
4.6777171e-85
4.6777524e-85
4.6826361e-85
4.6786636e-85
4.6778534e-85
4.6777318e-85
4.6777175e-85
4.6777161e-85
4.6777161e-85
4.6777171e-85
4.6777237e-85
4.677759e-85
4.6826471e-85
4.6786948e-85
4.6778882e-85
4.677767e-85
4.6777528e-85
4.6777514e-85
4.6777514e-85
4.6777524e-85
4.677759e-85
4.6777942e-85
5.9046055e-84
5.8997363e-84
5.898742e-84
5.8985927e-84
5.8985752e-84
5.8985735e-84
5.8985734e-84
5.8985737e-84
5.898576e-84
5.8985893e-84
5.8997363e-84
5.8948731e-84
5.89388e-84
5.8937309e-84
5.8937133e-84
5.8937117e-84
5.8937117e-84
5.8937126e-84
5.8937193e-84
5.8937576e-84
5.898742e-84
5.89388e-84
5.8928872e-84
5.8927381e-84
5.8927206e-84
5.8927189e-84
5.8927189e-84
5.8927201e-84
5.892728e-84
5.8927707e-84
5.8985927e-84
5.8937309e-84
5.8927381e-84
5.892589e-84
5.8925715e-84
5.8925698e-84
5.8925698e-84
5.892571e-84
5.8925791e-84
5.8926225e-84
5.8985752e-84
5.8937133e-84
5.8927206e-84
5.8925715e-84
5.892554e-84
5.8925523e-84
5.8925523e-84
5.8925535e-84
5.8925617e-84
5.892605e-84
5.8985735e-84
5.8937117e-84
5.8927189e-84
5.8925698e-84
5.8925523e-84
5.8925507e-84
5.8925507e-84
5.8925518e-84
5.89256e-84
5.8926034e-84
5.8985734e-84
5.8937117e-84
5.8927189e-84
5.8925698e-84
5.8925523e-84
5.8925507e-84
5.8925507e-84
5.8925519e-84
5.89256e-84
5.8926034e-84
5.8985737e-84
5.8937126e-84
5.8927201e-84
5.892571e-84
5.8925535e-84
5.8925518e-84
5.8925519e-84
5.892553e-84
5.8925612e-84
5.8926046e-84
5.898576e-84
5.8937193e-84
5.892728e-84
5.8925791e-84
5.8925617e-84
5.89256e-84
5.89256e-84
5.8925612e-84
5.8925693e-84
5.8926127e-84
5.8985893e-84
5.8937576e-84
5.8927707e-84
5.8926225e-84
5.892605e-84
5.8926034e-84
5.8926034e-84
5.8926046e-84
5.8926127e-84
5.8926561e-84
7.6433561e-83
7.6372416e-83
7.6359921e-83
7.6358044e-83
7.6357824e-83
7.6357802e-83
7.6357801e-83
7.6357805e-83
7.6357834e-83
7.6357998e-83
7.6372416e-83
7.6311345e-83
7.6298865e-83
7.629699e-83
7.629677e-83
7.6296749e-83
7.6296748e-83
7.629676e-83
7.6296846e-83
7.6297329e-83
7.6359921e-83
7.6298865e-83
7.6286388e-83
7.6284514e-83
7.6284294e-83
7.6284273e-83
7.6284273e-83
7.6284287e-83
7.6284388e-83
7.6284928e-83
7.6358044e-83
7.629699e-83
7.6284514e-83
7.6282639e-83
7.6282419e-83
7.6282398e-83
7.6282398e-83
7.6282413e-83
7.6282517e-83
7.6283065e-83
7.6357824e-83
7.629677e-83
7.6284294e-83
7.6282419e-83
7.6282199e-83
7.6282178e-83
7.6282178e-83
7.6282193e-83
7.6282297e-83
7.6282846e-83
7.6357802e-83
7.6296749e-83
7.6284273e-83
7.6282398e-83
7.6282178e-83
7.6282157e-83
7.6282157e-83
7.6282172e-83
7.6282276e-83
7.6282825e-83
7.6357801e-83
7.6296748e-83
7.6284273e-83
7.6282398e-83
7.6282178e-83
7.6282157e-83
7.6282157e-83
7.6282173e-83
7.6282276e-83
7.6282825e-83
7.6357805e-83
7.629676e-83
7.6284287e-83
7.6282413e-83
7.6282193e-83
7.6282172e-83
7.6282173e-83
7.6282188e-83
7.6282292e-83
7.628284e-83
7.6357834e-83
7.6296846e-83
7.6284388e-83
7.6282517e-83
7.6282297e-83
7.6282276e-83
7.6282276e-83
7.6282292e-83
7.6282395e-83
7.6282944e-83
7.6357998e-83
7.6297329e-83
7.6284928e-83
7.6283065e-83
7.6282846e-83
7.6282825e-83
7.6282825e-83
7.628284e-83
7.6282944e-83
7.6283493e-83
1.0166605e-81
1.015872e-81
1.0157107e-81
1.0156865e-81
1.0156836e-81
1.0156834e-81
1.0156833e-81
1.0156834e-81
1.0156838e-81
1.0156859e-81
1.015872e-81
1.0150843e-81
1.0149233e-81
1.0148991e-81
1.0148962e-81
1.014896e-81
1.0148959e-81
1.0148961e-81
1.0148972e-81
1.0149035e-81
1.0157107e-81
1.0149233e-81
1.0147622e-81
1.014738e-81
1.0147352e-81
1.0147349e-81
1.0147349e-81
1.0147351e-81
1.0147364e-81
1.0147435e-81
1.0156865e-81
1.0148991e-81
1.014738e-81
1.0147138e-81
1.014711e-81
1.0147107e-81
1.0147107e-81
1.0147109e-81
1.0147123e-81
1.0147194e-81
1.0156836e-81
1.0148962e-81
1.0147352e-81
1.014711e-81
1.0147082e-81
1.0147079e-81
1.0147079e-81
1.0147081e-81
1.0147095e-81
1.0147166e-81
1.0156834e-81
1.014896e-81
1.0147349e-81
1.0147107e-81
1.0147079e-81
1.0147076e-81
1.0147076e-81
1.0147078e-81
1.0147092e-81
1.0147163e-81
1.0156833e-81
1.0148959e-81
1.0147349e-81
1.0147107e-81
1.0147079e-81
1.0147076e-81
1.0147076e-81
1.0147078e-81
1.0147092e-81
1.0147163e-81
1.0156834e-81
1.0148961e-81
1.0147351e-81
1.0147109e-81
1.0147081e-81
1.0147078e-81
1.0147078e-81
1.014708e-81
1.0147094e-81
1.0147165e-81
1.0156838e-81
1.0148972e-81
1.0147364e-81
1.0147123e-81
1.0147095e-81
1.0147092e-81
1.0147092e-81
1.0147094e-81
1.0147107e-81
1.0147179e-81
1.0156859e-81
1.0149035e-81
1.0147435e-81
1.0147194e-81
1.0147166e-81
1.0147163e-81
1.0147163e-81
1.0147165e-81
1.0147179e-81
1.014725e-81
1.3893456e-80
1.3883013e-80
1.3880876e-80
1.3880555e-80
1.3880517e-80
1.3880514e-80
1.3880513e-80
1.3880514e-80
1.3880519e-80
1.3880546e-80
1.3883013e-80
1.3872582e-80
1.3870448e-80
1.3870127e-80
1.3870089e-80
1.3870086e-80
1.3870086e-80
1.3870088e-80
1.3870103e-80
1.3870186e-80
1.3880876e-80
1.3870448e-80
1.3868314e-80
1.3867993e-80
1.3867955e-80
1.3867952e-80
1.3867952e-80
1.3867954e-80
1.3867972e-80
1.3868066e-80
1.3880555e-80
1.3870127e-80
1.3867993e-80
1.3867672e-80
1.3867635e-80
1.3867631e-80
1.3867631e-80
1.3867634e-80
1.3867652e-80
1.3867747e-80
1.3880517e-80
1.3870089e-80
1.3867955e-80
1.3867635e-80
1.3867597e-80
1.3867593e-80
1.3867593e-80
1.3867596e-80
1.3867614e-80
1.3867709e-80
1.3880514e-80
1.3870086e-80
1.3867952e-80
1.3867631e-80
1.3867593e-80
1.386759e-80
1.386759e-80
1.3867592e-80
1.3867611e-80
1.3867706e-80
1.3880513e-80
1.3870086e-80
1.3867952e-80
1.3867631e-80
1.3867593e-80
1.386759e-80
1.386759e-80
1.3867593e-80
1.3867611e-80
1.3867706e-80
1.3880514e-80
1.3870088e-80
1.3867954e-80
1.3867634e-80
1.3867596e-80
1.3867592e-80
1.3867593e-80
1.3867595e-80
1.3867613e-80
1.3867709e-80
1.3880519e-80
1.3870103e-80
1.3867972e-80
1.3867652e-80
1.3867614e-80
1.3867611e-80
1.3867611e-80
1.3867613e-80
1.3867632e-80
1.3867727e-80
1.3880546e-80
1.3870186e-80
1.3868066e-80
1.3867747e-80
1.3867709e-80
1.3867706e-80
1.3867706e-80
1.3867709e-80
1.3867727e-80
1.3867822e-80
1.9504089e-79
1.9489891e-79
1.9486983e-79
1.9486546e-79
1.9486495e-79
1.948649e-79
1.948649e-79
1.9486491e-79
1.9486498e-79
1.9486534e-79
1.9489891e-79
1.9475709e-79
1.9472804e-79
1.9472368e-79
1.9472317e-79
1.9472312e-79
1.9472312e-79
1.9472315e-79
1.9472335e-79
1.947245e-79
1.9486983e-79
1.9472804e-79
1.9469901e-79
1.9469464e-79
1.9469413e-79
1.9469408e-79
1.9469408e-79
1.9469412e-79
1.9469436e-79
1.9469565e-79
1.9486546e-79
1.9472368e-79
1.9469464e-79
1.9469028e-79
1.9468977e-79
1.9468972e-79
1.9468972e-79
1.9468975e-79
1.9469001e-79
1.9469131e-79
1.9486495e-79
1.9472317e-79
1.9469413e-79
1.9468977e-79
1.9468925e-79
1.946892e-79
1.9468921e-79
1.9468924e-79
1.9468949e-79
1.946908e-79
1.948649e-79
1.9472312e-79
1.9469408e-79
1.9468972e-79
1.946892e-79
1.9468916e-79
1.9468916e-79
1.9468919e-79
1.9468945e-79
1.9469075e-79
1.948649e-79
1.9472312e-79
1.9469408e-79
1.9468972e-79
1.9468921e-79
1.9468916e-79
1.9468916e-79
1.9468919e-79
1.9468945e-79
1.9469075e-79
1.9486491e-79
1.9472315e-79
1.9469412e-79
1.9468975e-79
1.9468924e-79
1.9468919e-79
1.9468919e-79
1.9468923e-79
1.9468948e-79
1.9469079e-79
1.9486498e-79
1.9472335e-79
1.9469436e-79
1.9469001e-79
1.9468949e-79
1.9468945e-79
1.9468945e-79
1.9468948e-79
1.9468973e-79
1.9469104e-79
1.9486534e-79
1.947245e-79
1.9469565e-79
1.9469131e-79
1.946908e-79
1.9469075e-79
1.9469075e-79
1.9469079e-79
1.9469104e-79
1.9469235e-79
2.8122597e-78
2.8102781e-78
2.809872e-78
2.809811e-78
2.8098038e-78
2.8098031e-78
2.8098031e-78
2.8098032e-78
2.8098042e-78
2.8098092e-78
2.8102781e-78
2.8082987e-78
2.8078931e-78
2.8078321e-78
2.8078249e-78
2.8078242e-78
2.8078242e-78
2.8078246e-78
2.8078276e-78
2.8078437e-78
2.809872e-78
2.8078931e-78
2.8074875e-78
2.8074266e-78
2.8074194e-78
2.8074187e-78
2.8074187e-78
2.8074192e-78
2.8074227e-78
2.8074408e-78
2.809811e-78
2.8078321e-78
2.8074266e-78
2.8073656e-78
2.8073584e-78
2.8073577e-78
2.8073577e-78
2.8073583e-78
2.8073618e-78
2.8073802e-78
2.8098038e-78
2.8078249e-78
2.8074194e-78
2.8073584e-78
2.8073513e-78
2.8073506e-78
2.8073506e-78
2.8073511e-78
2.8073547e-78
2.8073731e-78
2.8098031e-78
2.8078242e-78
2.8074187e-78
2.8073577e-78
2.8073506e-78
2.8073499e-78
2.8073499e-78
2.8073504e-78
2.807354e-78
2.8073724e-78
2.8098031e-78
2.8078242e-78
2.8074187e-78
2.8073577e-78
2.8073506e-78
2.8073499e-78
2.8073499e-78
2.8073504e-78
2.807354e-78
2.8073724e-78
2.8098032e-78
2.8078246e-78
2.8074192e-78
2.8073583e-78
2.8073511e-78
2.8073504e-78
2.8073504e-78
2.807351e-78
2.8073545e-78
2.8073729e-78
2.8098042e-78
2.8078276e-78
2.8074227e-78
2.8073618e-78
2.8073547e-78
2.807354e-78
2.807354e-78
2.8073545e-78
2.8073581e-78
2.8073765e-78
2.8098092e-78
2.8078437e-78
2.8074408e-78
2.8073802e-78
2.8073731e-78
2.8073724e-78
2.8073724e-78
2.8073729e-78
2.8073765e-78
2.8073949e-78
4.1641596e-77
4.1613211e-77
4.1607391e-77
4.1606515e-77
4.1606412e-77
4.1606403e-77
4.1606402e-77
4.1606404e-77
4.1606418e-77
4.160649e-77
4.1613211e-77
4.1584857e-77
4.1579043e-77
4.1578168e-77
4.1578066e-77
4.1578056e-77
4.1578056e-77
4.1578062e-77
4.1578104e-77
4.1578338e-77
4.1607391e-77
4.1579043e-77
4.157323e-77
4.1572356e-77
4.1572253e-77
4.1572243e-77
4.1572244e-77
4.1572251e-77
4.1572301e-77
4.1572563e-77
4.1606515e-77
4.1578168e-77
4.1572356e-77
4.1571482e-77
4.1571379e-77
4.1571369e-77
4.1571369e-77
4.1571377e-77
4.1571429e-77
4.1571695e-77
4.1606412e-77
4.1578066e-77
4.1572253e-77
4.1571379e-77
4.1571276e-77
4.1571267e-77
4.1571267e-77
4.1571274e-77
4.1571326e-77
4.1571593e-77
4.1606403e-77
4.1578056e-77
4.1572243e-77
4.1571369e-77
4.1571267e-77
4.1571257e-77
4.1571257e-77
4.1571265e-77
4.1571316e-77
4.1571583e-77
4.1606402e-77
4.1578056e-77
4.1572244e-77
4.1571369e-77
4.1571267e-77
4.1571257e-77
4.1571257e-77
4.1571265e-77
4.1571317e-77
4.1571583e-77
4.1606404e-77
4.1578062e-77
4.1572251e-77
4.1571377e-77
4.1571274e-77
4.1571265e-77
4.1571265e-77
4.1571272e-77
4.1571324e-77
4.1571591e-77
4.1606418e-77
4.1578104e-77
4.1572301e-77
4.1571429e-77
4.1571326e-77
4.1571316e-77
4.1571317e-77
4.1571324e-77
4.1571376e-77
4.1571643e-77
4.160649e-77
4.1578338e-77
4.1572563e-77
4.1571695e-77
4.1571593e-77
4.1571583e-77
4.1571583e-77
4.1571591e-77
4.1571643e-77
4.1571909e-77
6.3308741e-76
6.326702e-76
6.325846e-76
6.3257172e-76
6.3257021e-76
6.3257006e-76
6.3257005e-76
6.3257009e-76
6.3257029e-76
6.3257134e-76
6.326702e-76
6.3225344e-76
6.3216792e-76
6.3215506e-76
6.3215355e-76
6.321534e-76
6.321534e-76
6.3215349e-76
6.3215413e-76
6.321576e-76
6.325846e-76
6.3216792e-76
6.3208243e-76
6.3206957e-76
6.3206806e-76
6.3206792e-76
6.3206792e-76
6.3206803e-76
6.3206878e-76
6.3207268e-76
6.3257172e-76
6.3215506e-76
6.3206957e-76
6.3205671e-76
6.320552e-76
6.3205506e-76
6.3205506e-76
6.3205517e-76
6.3205594e-76
6.320599e-76
6.3257021e-76
6.3215355e-76
6.3206806e-76
6.320552e-76
6.3205369e-76
6.3205355e-76
6.3205355e-76
6.3205366e-76
6.3205444e-76
6.320584e-76
6.3257006e-76
6.321534e-76
6.3206792e-76
6.3205506e-76
6.3205355e-76
6.320534e-76
6.320534e-76
6.3205352e-76
6.3205429e-76
6.3205826e-76
6.3257005e-76
6.321534e-76
6.3206792e-76
6.3205506e-76
6.3205355e-76
6.320534e-76
6.3205341e-76
6.3205352e-76
6.3205429e-76
6.3205826e-76
6.3257009e-76
6.3215349e-76
6.3206803e-76
6.3205517e-76
6.3205366e-76
6.3205352e-76
6.3205352e-76
6.3205363e-76
6.3205441e-76
6.3205837e-76
6.3257029e-76
6.3215413e-76
6.3206878e-76
6.3205594e-76
6.3205444e-76
6.3205429e-76
6.3205429e-76
6.3205441e-76
6.3205518e-76
6.3205915e-76
6.3257134e-76
6.321576e-76
6.3207268e-76
6.320599e-76
6.320584e-76
6.3205826e-76
6.3205826e-76
6.3205837e-76
6.3205915e-76
6.3206311e-76
9.880541e-75
9.8742499e-75
9.8729583e-75
9.872764e-75
9.8727412e-75
9.872739e-75
9.8727389e-75
9.8727394e-75
9.8727425e-75
9.8727581e-75
9.8742499e-75
9.8679655e-75
9.8666752e-75
9.8664811e-75
9.8664583e-75
9.8664561e-75
9.8664561e-75
9.8664575e-75
9.8664672e-75
9.8665201e-75
9.8729583e-75
9.8666752e-75
9.8653852e-75
9.8651912e-75
9.8651684e-75
9.8651662e-75
9.8651662e-75
9.8651679e-75
9.8651794e-75
9.8652389e-75
9.872764e-75
9.8664811e-75
9.8651912e-75
9.8649971e-75
9.8649743e-75
9.8649721e-75
9.8649721e-75
9.8649739e-75
9.8649857e-75
9.8650461e-75
9.8727412e-75
9.8664583e-75
9.8651684e-75
9.8649743e-75
9.8649515e-75
9.8649493e-75
9.8649493e-75
9.8649511e-75
9.864963e-75
9.8650234e-75
9.872739e-75
9.8664561e-75
9.8651662e-75
9.8649721e-75
9.8649493e-75
9.8649471e-75
9.8649472e-75
9.8649489e-75
9.8649608e-75
9.8650213e-75
9.8727389e-75
9.8664561e-75
9.8651662e-75
9.8649721e-75
9.8649493e-75
9.8649472e-75
9.8649472e-75
9.864949e-75
9.8649608e-75
9.8650213e-75
9.8727394e-75
9.8664575e-75
9.8651679e-75
9.8649739e-75
9.8649511e-75
9.8649489e-75
9.864949e-75
9.8649507e-75
9.8649626e-75
9.8650231e-75
9.8727425e-75
9.8664672e-75
9.8651794e-75
9.8649857e-75
9.864963e-75
9.8649608e-75
9.8649608e-75
9.8649626e-75
9.8649745e-75
9.8650349e-75
9.8727581e-75
9.8665201e-75
9.8652389e-75
9.8650461e-75
9.8650234e-75
9.8650213e-75
9.8650213e-75
9.8650231e-75
9.8650349e-75
9.8650954e-75
1.5826645e-73
1.5816916e-73
1.5814917e-73
1.5814616e-73
1.5814581e-73
1.5814577e-73
1.5814577e-73
1.5814578e-73
1.5814583e-73
1.5814607e-73
1.5816916e-73
1.5807196e-73
1.5805199e-73
1.5804899e-73
1.5804863e-73
1.580486e-73
1.580486e-73
1.5804862e-73
1.5804877e-73
1.580496e-73
1.5814917e-73
1.5805199e-73
1.5803203e-73
1.5802902e-73
1.5802867e-73
1.5802864e-73
1.5802864e-73
1.5802867e-73
1.5802885e-73
1.5802978e-73
1.5814616e-73
1.5804899e-73
1.5802902e-73
1.5802602e-73
1.5802567e-73
1.5802563e-73
1.5802563e-73
1.5802566e-73
1.5802585e-73
1.5802679e-73
1.5814581e-73
1.5804863e-73
1.5802867e-73
1.5802567e-73
1.5802532e-73
1.5802528e-73
1.5802528e-73
1.5802531e-73
1.580255e-73
1.5802644e-73
1.5814577e-73
1.580486e-73
1.5802864e-73
1.5802563e-73
1.5802528e-73
1.5802525e-73
1.5802525e-73
1.5802528e-73
1.5802546e-73
1.5802641e-73
1.5814577e-73
1.580486e-73
1.5802864e-73
1.5802563e-73
1.5802528e-73
1.5802525e-73
1.5802525e-73
1.5802528e-73
1.5802546e-73
1.5802641e-73
1.5814578e-73
1.5804862e-73
1.5802867e-73
1.5802566e-73
1.5802531e-73
1.5802528e-73
1.5802528e-73
1.580253e-73
1.5802549e-73
1.5802644e-73
1.5814583e-73
1.5804877e-73
1.5802885e-73
1.5802585e-73
1.580255e-73
1.5802546e-73
1.5802546e-73
1.5802549e-73
1.5802568e-73
1.5802662e-73
1.5814607e-73
1.580496e-73
1.5802978e-73
1.5802679e-73
1.5802644e-73
1.5802641e-73
1.5802641e-73
1.5802644e-73
1.5802662e-73
1.5802757e-73
2.6013108e-72
2.5997677e-72
2.5994506e-72
2.5994028e-72
2.5993972e-72
2.5993967e-72
2.5993967e-72
2.5993968e-72
2.5993976e-72
2.5994014e-72
2.5997677e-72
2.5982263e-72
2.5979094e-72
2.5978617e-72
2.5978561e-72
2.5978556e-72
2.5978556e-72
2.5978559e-72
2.5978584e-72
2.5978717e-72
2.5994506e-72
2.5979094e-72
2.5975926e-72
2.597545e-72
2.5975394e-72
2.5975388e-72
2.5975388e-72
2.5975393e-72
2.5975422e-72
2.5975572e-72
2.5994028e-72
2.5978617e-72
2.597545e-72
2.5974973e-72
2.5974917e-72
2.5974912e-72
2.5974912e-72
2.5974916e-72
2.5974946e-72
2.5975098e-72
2.5993972e-72
2.5978561e-72
2.5975394e-72
2.5974917e-72
2.5974861e-72
2.5974856e-72
2.5974856e-72
2.597486e-72
2.597489e-72
2.5975042e-72
2.5993967e-72
2.5978556e-72
2.5975388e-72
2.5974912e-72
2.5974856e-72
2.597485e-72
2.597485e-72
2.5974855e-72
2.5974885e-72
2.5975037e-72
2.5993967e-72
2.5978556e-72
2.5975388e-72
2.5974912e-72
2.5974856e-72
2.597485e-72
2.597485e-72
2.5974855e-72
2.5974885e-72
2.5975037e-72
2.5993968e-72
2.5978559e-72
2.5975393e-72
2.5974916e-72
2.597486e-72
2.5974855e-72
2.5974855e-72
2.5974859e-72
2.5974889e-72
2.5975042e-72
2.5993976e-72
2.5978584e-72
2.5975422e-72
2.5974946e-72
2.597489e-72
2.5974885e-72
2.5974885e-72
2.5974889e-72
2.597492e-72
2.5975072e-72
2.5994014e-72
2.5978717e-72
2.5975572e-72
2.5975098e-72
2.5975042e-72
2.5975037e-72
2.5975037e-72
2.5975042e-72
2.5975072e-72
2.5975224e-72
4.3862009e-71
4.3836922e-71
4.3831763e-71
4.3830987e-71
4.3830895e-71
4.3830887e-71
4.3830886e-71
4.3830888e-71
4.3830901e-71
4.3830963e-71
4.3836922e-71
4.3811861e-71
4.3806707e-71
4.3805931e-71
4.380584e-71
4.3805831e-71
4.3805831e-71
4.3805837e-71
4.3805878e-71
4.3806097e-71
4.3831763e-71
4.3806707e-71
4.3801554e-71
4.3800778e-71
4.3800687e-71
4.3800678e-71
4.3800678e-71
4.3800685e-71
4.3800734e-71
4.380098e-71
4.3830987e-71
4.3805931e-71
4.3800778e-71
4.3800002e-71
4.3799911e-71
4.3799902e-71
4.3799903e-71
4.379991e-71
4.379996e-71
4.380021e-71
4.3830895e-71
4.380584e-71
4.3800687e-71
4.3799911e-71
4.379982e-71
4.3799811e-71
4.3799811e-71
4.3799819e-71
4.3799869e-71
4.380012e-71
4.3830887e-71
4.3805831e-71
4.3800678e-71
4.3799902e-71
4.3799811e-71
4.3799803e-71
4.3799803e-71
4.379981e-71
4.379986e-71
4.3800111e-71
4.3830886e-71
4.3805831e-71
4.3800678e-71
4.3799903e-71
4.3799811e-71
4.3799803e-71
4.3799803e-71
4.379981e-71
4.379986e-71
4.3800111e-71
4.3830888e-71
4.3805837e-71
4.3800685e-71
4.379991e-71
4.3799819e-71
4.379981e-71
4.379981e-71
4.3799818e-71
4.3799868e-71
4.3800119e-71
4.3830901e-71
4.3805878e-71
4.3800734e-71
4.379996e-71
4.3799869e-71
4.379986e-71
4.379986e-71
4.3799868e-71
4.3799917e-71
4.3800168e-71
4.3830963e-71
4.3806097e-71
4.380098e-71
4.380021e-71
4.380012e-71
4.3800111e-71
4.3800111e-71
4.3800119e-71
4.3800168e-71
4.3800419e-71
7.5852286e-70
7.5810487e-70
7.5801886e-70
7.5800591e-70
7.5800439e-70
7.5800424e-70
7.5800424e-70
7.5800427e-70
7.5800449e-70
7.5800551e-70
7.5810487e-70
7.5768729e-70
7.5760136e-70
7.5758842e-70
7.575869e-70
7.5758676e-70
7.5758676e-70
7.5758686e-70
7.5758755e-70
7.5759125e-70
7.5801886e-70
7.5760136e-70
7.5751545e-70
7.5750252e-70
7.57501e-70
7.5750085e-70
7.5750086e-70
7.5750098e-70
7.575018e-70
7.5750597e-70
7.5800591e-70
7.5758842e-70
7.5750252e-70
7.5748958e-70
7.5748806e-70
7.5748792e-70
7.5748792e-70
7.5748805e-70
7.5748889e-70
7.5749313e-70
7.5800439e-70
7.575869e-70
7.57501e-70
7.5748806e-70
7.5748654e-70
7.574864e-70
7.574864e-70
7.5748653e-70
7.5748737e-70
7.5749162e-70
7.5800424e-70
7.5758676e-70
7.5750085e-70
7.5748792e-70
7.574864e-70
7.5748626e-70
7.5748626e-70
7.5748638e-70
7.5748723e-70
7.5749147e-70
7.5800424e-70
7.5758676e-70
7.5750086e-70
7.5748792e-70
7.574864e-70
7.5748626e-70
7.5748626e-70
7.5748639e-70
7.5748723e-70
7.5749148e-70
7.5800427e-70
7.5758686e-70
7.5750098e-70
7.5748805e-70
7.5748653e-70
7.5748638e-70
7.5748639e-70
7.5748651e-70
7.5748736e-70
7.574916e-70
7.5800449e-70
7.5758755e-70
7.575018e-70
7.5748889e-70
7.5748737e-70
7.5748723e-70
7.5748723e-70
7.5748736e-70
7.574882e-70
7.5749245e-70
7.5800551e-70
7.5759125e-70
7.5750597e-70
7.5749313e-70
7.5749162e-70
7.5749147e-70
7.5749148e-70
7.574916e-70
7.5749245e-70
7.5749669e-70
1.3449827e-68
1.3442692e-68
1.3441223e-68
1.3441001e-68
1.3440975e-68
1.3440973e-68
1.3440973e-68
1.3440973e-68
1.3440977e-68
1.3440995e-68
1.3442692e-68
1.3435563e-68
1.3434095e-68
1.3433874e-68
1.3433848e-68
1.3433846e-68
1.3433846e-68
1.3433848e-68
1.343386e-68
1.3433924e-68
1.3441223e-68
1.3434095e-68
1.3432628e-68
1.3432407e-68
1.3432381e-68
1.3432379e-68
1.3432379e-68
1.3432381e-68
1.3432395e-68
1.3432467e-68
1.3441001e-68
1.3433874e-68
1.3432407e-68
1.3432186e-68
1.343216e-68
1.3432158e-68
1.3432158e-68
1.343216e-68
1.3432174e-68
1.3432248e-68
1.3440975e-68
1.3433848e-68
1.3432381e-68
1.343216e-68
1.3432134e-68
1.3432132e-68
1.3432132e-68
1.3432134e-68
1.3432149e-68
1.3432222e-68
1.3440973e-68
1.3433846e-68
1.3432379e-68
1.3432158e-68
1.3432132e-68
1.3432129e-68
1.3432129e-68
1.3432131e-68
1.3432146e-68
1.343222e-68
1.3440973e-68
1.3433846e-68
1.3432379e-68
1.3432158e-68
1.3432132e-68
1.3432129e-68
1.3432129e-68
1.3432131e-68
1.3432146e-68
1.343222e-68
1.3440973e-68
1.3433848e-68
1.3432381e-68
1.343216e-68
1.3432134e-68
1.3432131e-68
1.3432131e-68
1.3432134e-68
1.3432148e-68
1.3432222e-68
1.3440977e-68
1.343386e-68
1.3432395e-68
1.3432174e-68
1.3432149e-68
1.3432146e-68
1.3432146e-68
1.3432148e-68
1.3432163e-68
1.3432237e-68
1.3440995e-68
1.3433924e-68
1.3432467e-68
1.3432248e-68
1.3432222e-68
1.343222e-68
1.343222e-68
1.3432222e-68
1.3432237e-68