/*--------------------------------*- C++ -*----------------------------------*\
| =========                 |                                                 |
| \\      /  F ield         | OpenFOAM: The Open Source CFD Toolbox           |
|  \\    /   O peration     | Version:  dev                                   |
|   \\  /    A nd           | Web:      www.OpenFOAM.org                      |
|    \\/     M anipulation  |                                                 |
\*---------------------------------------------------------------------------*/
FoamFile
{
    version     2.0;
    format      ascii;
    class       volScalarField;
    location    "5";
    object      A_0;
}
// * * * * * * * * * * * * * * * * * * * * * * * * * * * * * * * * * * * * * //

dimensions      [0 0 0 0 1 0 0];

internalField   nonuniform List<scalar> 
10000
(
1.7750581e-91
1.7732709e-91
1.7729091e-91
1.7728549e-91
1.7728485e-91
1.7728479e-91
1.7728479e-91
1.772848e-91
1.7728488e-91
1.7728541e-91
1.7732709e-91
1.7714863e-91
1.771125e-91
1.7710708e-91
1.7710645e-91
1.7710639e-91
1.7710639e-91
1.7710642e-91
1.7710664e-91
1.7710799e-91
1.7729091e-91
1.771125e-91
1.7707637e-91
1.7707096e-91
1.7707033e-91
1.7707027e-91
1.7707027e-91
1.770703e-91
1.7707057e-91
1.7707206e-91
1.7728549e-91
1.7710708e-91
1.7707096e-91
1.7706555e-91
1.7706492e-91
1.7706485e-91
1.7706485e-91
1.7706489e-91
1.7706517e-91
1.7706668e-91
1.7728485e-91
1.7710645e-91
1.7707033e-91
1.7706492e-91
1.7706428e-91
1.7706422e-91
1.7706422e-91
1.7706426e-91
1.7706453e-91
1.7706605e-91
1.7728479e-91
1.7710639e-91
1.7707027e-91
1.7706485e-91
1.7706422e-91
1.7706416e-91
1.7706416e-91
1.770642e-91
1.7706447e-91
1.7706599e-91
1.7728479e-91
1.7710639e-91
1.7707027e-91
1.7706485e-91
1.7706422e-91
1.7706416e-91
1.7706416e-91
1.770642e-91
1.7706447e-91
1.7706599e-91
1.772848e-91
1.7710642e-91
1.770703e-91
1.7706489e-91
1.7706426e-91
1.770642e-91
1.770642e-91
1.7706424e-91
1.7706451e-91
1.7706603e-91
1.7728488e-91
1.7710664e-91
1.7707057e-91
1.7706517e-91
1.7706453e-91
1.7706447e-91
1.7706447e-91
1.7706451e-91
1.7706479e-91
1.770663e-91
1.7728541e-91
1.7710799e-91
1.7707206e-91
1.7706668e-91
1.7706605e-91
1.7706599e-91
1.7706599e-91
1.7706603e-91
1.770663e-91
1.7706782e-91
2.089239e-90
2.08719e-90
2.0867741e-90
2.0867117e-90
2.0867044e-90
2.0867037e-90
2.0867037e-90
2.0867038e-90
2.0867047e-90
2.086711e-90
2.08719e-90
2.0851439e-90
2.0847285e-90
2.0846662e-90
2.0846589e-90
2.0846582e-90
2.0846582e-90
2.0846586e-90
2.0846612e-90
2.084677e-90
2.0867741e-90
2.0847285e-90
2.0843132e-90
2.0842509e-90
2.0842437e-90
2.084243e-90
2.084243e-90
2.0842434e-90
2.0842465e-90
2.084264e-90
2.0867117e-90
2.0846662e-90
2.0842509e-90
2.0841887e-90
2.0841814e-90
2.0841807e-90
2.0841807e-90
2.0841812e-90
2.0841844e-90
2.0842021e-90
2.0867044e-90
2.0846589e-90
2.0842437e-90
2.0841814e-90
2.0841741e-90
2.0841734e-90
2.0841734e-90
2.0841739e-90
2.0841771e-90
2.0841948e-90
2.0867037e-90
2.0846582e-90
2.084243e-90
2.0841807e-90
2.0841734e-90
2.0841727e-90
2.0841727e-90
2.0841732e-90
2.0841764e-90
2.0841941e-90
2.0867037e-90
2.0846582e-90
2.084243e-90
2.0841807e-90
2.0841734e-90
2.0841727e-90
2.0841727e-90
2.0841732e-90
2.0841764e-90
2.0841941e-90
2.0867038e-90
2.0846586e-90
2.0842434e-90
2.0841812e-90
2.0841739e-90
2.0841732e-90
2.0841732e-90
2.0841737e-90
2.0841768e-90
2.0841946e-90
2.0867047e-90
2.0846612e-90
2.0842465e-90
2.0841844e-90
2.0841771e-90
2.0841764e-90
2.0841764e-90
2.0841768e-90
2.08418e-90
2.0841978e-90
2.086711e-90
2.084677e-90
2.084264e-90
2.0842021e-90
2.0841948e-90
2.0841941e-90
2.0841941e-90
2.0841946e-90
2.0841978e-90
2.0842155e-90
2.2966779e-89
2.2944865e-89
2.2940412e-89
2.2939745e-89
2.2939667e-89
2.2939659e-89
2.2939659e-89
2.293966e-89
2.293967e-89
2.2939736e-89
2.2944865e-89
2.2922981e-89
2.2918534e-89
2.2917868e-89
2.291779e-89
2.2917782e-89
2.2917782e-89
2.2917786e-89
2.2917815e-89
2.2917984e-89
2.2940412e-89
2.2918534e-89
2.2914089e-89
2.2913423e-89
2.2913344e-89
2.2913337e-89
2.2913337e-89
2.2913342e-89
2.2913375e-89
2.2913563e-89
2.2939745e-89
2.2917868e-89
2.2913423e-89
2.2912756e-89
2.2912678e-89
2.2912671e-89
2.2912671e-89
2.2912676e-89
2.291271e-89
2.29129e-89
2.2939667e-89
2.291779e-89
2.2913344e-89
2.2912678e-89
2.29126e-89
2.2912593e-89
2.2912593e-89
2.2912598e-89
2.2912632e-89
2.2912823e-89
2.2939659e-89
2.2917782e-89
2.2913337e-89
2.2912671e-89
2.2912593e-89
2.2912585e-89
2.2912585e-89
2.291259e-89
2.2912625e-89
2.2912815e-89
2.2939659e-89
2.2917782e-89
2.2913337e-89
2.2912671e-89
2.2912593e-89
2.2912585e-89
2.2912585e-89
2.291259e-89
2.2912625e-89
2.2912815e-89
2.293966e-89
2.2917786e-89
2.2913342e-89
2.2912676e-89
2.2912598e-89
2.291259e-89
2.291259e-89
2.2912595e-89
2.2912629e-89
2.291282e-89
2.293967e-89
2.2917815e-89
2.2913375e-89
2.291271e-89
2.2912632e-89
2.2912625e-89
2.2912625e-89
2.2912629e-89
2.2912664e-89
2.2912855e-89
2.2939736e-89
2.2917984e-89
2.2913563e-89
2.29129e-89
2.2912823e-89
2.2912815e-89
2.2912815e-89
2.291282e-89
2.2912855e-89
2.2913045e-89
2.5936538e-88
2.5912473e-88
2.5907579e-88
2.5906845e-88
2.5906759e-88
2.5906751e-88
2.590675e-88
2.5906752e-88
2.5906763e-88
2.5906834e-88
2.5912473e-88
2.588844e-88
2.5883553e-88
2.588282e-88
2.5882734e-88
2.5882726e-88
2.5882726e-88
2.588273e-88
2.5882762e-88
2.5882948e-88
2.5907579e-88
2.5883553e-88
2.5878666e-88
2.5877934e-88
2.5877848e-88
2.587784e-88
2.587784e-88
2.5877845e-88
2.5877882e-88
2.5878089e-88
2.5906845e-88
2.588282e-88
2.5877934e-88
2.5877201e-88
2.5877115e-88
2.5877107e-88
2.5877107e-88
2.5877113e-88
2.5877151e-88
2.5877361e-88
2.5906759e-88
2.5882734e-88
2.5877848e-88
2.5877115e-88
2.587703e-88
2.5877021e-88
2.5877021e-88
2.5877027e-88
2.5877065e-88
2.5877275e-88
2.5906751e-88
2.5882726e-88
2.587784e-88
2.5877107e-88
2.5877021e-88
2.5877013e-88
2.5877013e-88
2.5877019e-88
2.5877057e-88
2.5877267e-88
2.590675e-88
2.5882726e-88
2.587784e-88
2.5877107e-88
2.5877021e-88
2.5877013e-88
2.5877013e-88
2.5877019e-88
2.5877057e-88
2.5877267e-88
2.5906752e-88
2.588273e-88
2.5877845e-88
2.5877113e-88
2.5877027e-88
2.5877019e-88
2.5877019e-88
2.5877024e-88
2.5877062e-88
2.5877272e-88
2.5906763e-88
2.5882762e-88
2.5877882e-88
2.5877151e-88
2.5877065e-88
2.5877057e-88
2.5877057e-88
2.5877062e-88
2.5877101e-88
2.5877311e-88
2.5906834e-88
2.5882948e-88
2.5878089e-88
2.5877361e-88
2.5877275e-88
2.5877267e-88
2.5877267e-88
2.5877272e-88
2.5877311e-88
2.5877521e-88
3.0111283e-87
3.0084128e-87
3.0078601e-87
3.0077772e-87
3.0077675e-87
3.0077665e-87
3.0077665e-87
3.0077667e-87
3.0077679e-87
3.0077757e-87
3.0084128e-87
3.0057008e-87
3.0051488e-87
3.005066e-87
3.0050563e-87
3.0050554e-87
3.0050554e-87
3.0050559e-87
3.0050595e-87
3.0050806e-87
3.0078601e-87
3.0051488e-87
3.004597e-87
3.0045142e-87
3.0045045e-87
3.0045036e-87
3.0045036e-87
3.0045042e-87
3.0045084e-87
3.0045319e-87
3.0077772e-87
3.005066e-87
3.0045142e-87
3.0044315e-87
3.0044217e-87
3.0044208e-87
3.0044208e-87
3.0044215e-87
3.0044258e-87
3.0044496e-87
3.0077675e-87
3.0050563e-87
3.0045045e-87
3.0044217e-87
3.004412e-87
3.0044111e-87
3.0044111e-87
3.0044118e-87
3.0044161e-87
3.0044399e-87
3.0077665e-87
3.0050554e-87
3.0045036e-87
3.0044208e-87
3.0044111e-87
3.0044102e-87
3.0044102e-87
3.0044108e-87
3.0044152e-87
3.004439e-87
3.0077665e-87
3.0050554e-87
3.0045036e-87
3.0044208e-87
3.0044111e-87
3.0044102e-87
3.0044102e-87
3.0044108e-87
3.0044152e-87
3.004439e-87
3.0077667e-87
3.0050559e-87
3.0045042e-87
3.0044215e-87
3.0044118e-87
3.0044108e-87
3.0044108e-87
3.0044115e-87
3.0044158e-87
3.0044396e-87
3.0077679e-87
3.0050595e-87
3.0045084e-87
3.0044258e-87
3.0044161e-87
3.0044152e-87
3.0044152e-87
3.0044158e-87
3.0044202e-87
3.004444e-87
3.0077757e-87
3.0050806e-87
3.0045319e-87
3.0044496e-87
3.0044399e-87
3.004439e-87
3.004439e-87
3.0044396e-87
3.004444e-87
3.0044678e-87
3.5935388e-86
3.5903903e-86
3.5897489e-86
3.5896527e-86
3.5896414e-86
3.5896403e-86
3.5896403e-86
3.5896405e-86
3.5896419e-86
3.5896508e-86
3.5903903e-86
3.5872459e-86
3.5866053e-86
3.5865092e-86
3.586498e-86
3.5864969e-86
3.5864969e-86
3.5864975e-86
3.5865017e-86
3.5865262e-86
3.5897489e-86
3.5866053e-86
3.5859649e-86
3.5858689e-86
3.5858576e-86
3.5858565e-86
3.5858565e-86
3.5858572e-86
3.5858622e-86
3.5858895e-86
3.5896527e-86
3.5865092e-86
3.5858689e-86
3.5857728e-86
3.5857615e-86
3.5857605e-86
3.5857605e-86
3.5857612e-86
3.5857663e-86
3.585794e-86
3.5896414e-86
3.586498e-86
3.5858576e-86
3.5857615e-86
3.5857503e-86
3.5857492e-86
3.5857492e-86
3.58575e-86
3.5857551e-86
3.5857828e-86
3.5896403e-86
3.5864969e-86
3.5858565e-86
3.5857605e-86
3.5857492e-86
3.5857481e-86
3.5857481e-86
3.5857489e-86
3.585754e-86
3.5857817e-86
3.5896403e-86
3.5864969e-86
3.5858565e-86
3.5857605e-86
3.5857492e-86
3.5857481e-86
3.5857481e-86
3.5857489e-86
3.585754e-86
3.5857817e-86
3.5896405e-86
3.5864975e-86
3.5858572e-86
3.5857612e-86
3.58575e-86
3.5857489e-86
3.5857489e-86
3.5857496e-86
3.5857548e-86
3.5857825e-86
3.5896419e-86
3.5865017e-86
3.5858622e-86
3.5857663e-86
3.5857551e-86
3.585754e-86
3.585754e-86
3.5857548e-86
3.5857599e-86
3.5857876e-86
3.5896508e-86
3.5865262e-86
3.5858895e-86
3.585794e-86
3.5857828e-86
3.5857817e-86
3.5857817e-86
3.5857825e-86
3.5857876e-86
3.5858153e-86
4.4081307e-85
4.4043803e-85
4.4036157e-85
4.403501e-85
4.4034876e-85
4.4034863e-85
4.4034862e-85
4.4034865e-85
4.4034882e-85
4.4034986e-85
4.4043803e-85
4.4006347e-85
4.399871e-85
4.3997565e-85
4.399743e-85
4.3997417e-85
4.3997417e-85
4.3997424e-85
4.3997475e-85
4.3997769e-85
4.4036157e-85
4.399871e-85
4.3991076e-85
4.398993e-85
4.3989796e-85
4.3989783e-85
4.3989783e-85
4.3989792e-85
4.3989852e-85
4.3990179e-85
4.403501e-85
4.3997565e-85
4.398993e-85
4.3988785e-85
4.3988651e-85
4.3988638e-85
4.3988638e-85
4.3988647e-85
4.3988709e-85
4.398904e-85
4.4034876e-85
4.399743e-85
4.3989796e-85
4.3988651e-85
4.3988516e-85
4.3988504e-85
4.3988504e-85
4.3988513e-85
4.3988574e-85
4.3988906e-85
4.4034863e-85
4.3997417e-85
4.3989783e-85
4.3988638e-85
4.3988504e-85
4.3988491e-85
4.3988491e-85
4.39885e-85
4.3988562e-85
4.3988893e-85
4.4034862e-85
4.3997417e-85
4.3989783e-85
4.3988638e-85
4.3988504e-85
4.3988491e-85
4.3988491e-85
4.39885e-85
4.3988562e-85
4.3988893e-85
4.4034865e-85
4.3997424e-85
4.3989792e-85
4.3988647e-85
4.3988513e-85
4.39885e-85
4.39885e-85
4.3988509e-85
4.3988571e-85
4.3988902e-85
4.4034882e-85
4.3997475e-85
4.3989852e-85
4.3988709e-85
4.3988574e-85
4.3988562e-85
4.3988562e-85
4.3988571e-85
4.3988633e-85
4.3988964e-85
4.4034986e-85
4.3997769e-85
4.3990179e-85
4.398904e-85
4.3988906e-85
4.3988893e-85
4.3988893e-85
4.3988902e-85
4.3988964e-85
4.3989296e-85
5.5575605e-84
5.5529712e-84
5.5520349e-84
5.5518944e-84
5.5518779e-84
5.5518764e-84
5.5518763e-84
5.5518766e-84
5.5518787e-84
5.5518912e-84
5.5529712e-84
5.5483878e-84
5.5474526e-84
5.5473122e-84
5.5472957e-84
5.5472942e-84
5.5472942e-84
5.547295e-84
5.5473014e-84
5.5473374e-84
5.5520349e-84
5.5474526e-84
5.5465176e-84
5.5463773e-84
5.5463608e-84
5.5463593e-84
5.5463593e-84
5.5463604e-84
5.5463678e-84
5.546408e-84
5.5518944e-84
5.5473122e-84
5.5463773e-84
5.546237e-84
5.5462205e-84
5.546219e-84
5.546219e-84
5.5462201e-84
5.5462277e-84
5.5462685e-84
5.5518779e-84
5.5472957e-84
5.5463608e-84
5.5462205e-84
5.5462041e-84
5.5462025e-84
5.5462025e-84
5.5462036e-84
5.5462113e-84
5.5462521e-84
5.5518764e-84
5.5472942e-84
5.5463593e-84
5.546219e-84
5.5462025e-84
5.546201e-84
5.546201e-84
5.5462021e-84
5.5462097e-84
5.5462506e-84
5.5518763e-84
5.5472942e-84
5.5463593e-84
5.546219e-84
5.5462025e-84
5.546201e-84
5.546201e-84
5.5462021e-84
5.5462097e-84
5.5462506e-84
5.5518766e-84
5.547295e-84
5.5463604e-84
5.5462201e-84
5.5462036e-84
5.5462021e-84
5.5462021e-84
5.5462032e-84
5.5462109e-84
5.5462517e-84
5.5518787e-84
5.5473014e-84
5.5463678e-84
5.5462277e-84
5.5462113e-84
5.5462097e-84
5.5462097e-84
5.5462109e-84
5.5462185e-84
5.5462594e-84
5.5518912e-84
5.5473374e-84
5.546408e-84
5.5462685e-84
5.5462521e-84
5.5462506e-84
5.5462506e-84
5.5462517e-84
5.5462594e-84
5.5463002e-84
7.2005429e-83
7.1947748e-83
7.1935971e-83
7.1934203e-83
7.1933996e-83
7.1933976e-83
7.1933975e-83
7.1933979e-83
7.1934006e-83
7.193416e-83
7.1947748e-83
7.1890138e-83
7.1878375e-83
7.1876609e-83
7.1876402e-83
7.1876382e-83
7.1876382e-83
7.1876393e-83
7.1876474e-83
7.1876929e-83
7.1935971e-83
7.1878375e-83
7.1866615e-83
7.1864849e-83
7.1864642e-83
7.1864623e-83
7.1864623e-83
7.1864636e-83
7.1864731e-83
7.186524e-83
7.1934203e-83
7.1876609e-83
7.1864849e-83
7.1863084e-83
7.1862877e-83
7.1862857e-83
7.1862858e-83
7.1862872e-83
7.1862969e-83
7.1863485e-83
7.1933996e-83
7.1876402e-83
7.1864642e-83
7.1862877e-83
7.186267e-83
7.186265e-83
7.186265e-83
7.1862665e-83
7.1862762e-83
7.1863279e-83
7.1933976e-83
7.1876382e-83
7.1864623e-83
7.1862857e-83
7.186265e-83
7.1862631e-83
7.1862631e-83
7.1862645e-83
7.1862743e-83
7.186326e-83
7.1933975e-83
7.1876382e-83
7.1864623e-83
7.1862858e-83
7.186265e-83
7.1862631e-83
7.1862631e-83
7.1862645e-83
7.1862743e-83
7.186326e-83
7.1933979e-83
7.1876393e-83
7.1864636e-83
7.1862872e-83
7.1862665e-83
7.1862645e-83
7.1862645e-83
7.1862659e-83
7.1862757e-83
7.1863274e-83
7.1934006e-83
7.1876474e-83
7.1864731e-83
7.1862969e-83
7.1862762e-83
7.1862743e-83
7.1862743e-83
7.1862757e-83
7.1862855e-83
7.1863372e-83
7.193416e-83
7.1876929e-83
7.186524e-83
7.1863485e-83
7.1863279e-83
7.186326e-83
7.186326e-83
7.1863274e-83
7.1863372e-83
7.1863889e-83
9.5861981e-82
9.5787526e-82
9.5772313e-82
9.5770029e-82
9.5769761e-82
9.5769735e-82
9.5769734e-82
9.5769739e-82
9.5769774e-82
9.576997e-82
9.5787526e-82
9.5713161e-82
9.5697965e-82
9.5695683e-82
9.5695416e-82
9.569539e-82
9.569539e-82
9.5695405e-82
9.569551e-82
9.5696102e-82
9.5772313e-82
9.5697965e-82
9.5682773e-82
9.5680492e-82
9.5680224e-82
9.5680199e-82
9.5680199e-82
9.5680217e-82
9.5680341e-82
9.5681003e-82
9.5770029e-82
9.5695683e-82
9.5680492e-82
9.5678211e-82
9.5677944e-82
9.5677918e-82
9.5677918e-82
9.5677937e-82
9.5678064e-82
9.5678736e-82
9.5769761e-82
9.5695416e-82
9.5680224e-82
9.5677944e-82
9.5677676e-82
9.5677651e-82
9.5677651e-82
9.5677669e-82
9.5677797e-82
9.567847e-82
9.5769735e-82
9.569539e-82
9.5680199e-82
9.5677918e-82
9.5677651e-82
9.5677625e-82
9.5677625e-82
9.5677644e-82
9.5677772e-82
9.5678444e-82
9.5769734e-82
9.569539e-82
9.5680199e-82
9.5677918e-82
9.5677651e-82
9.5677625e-82
9.5677625e-82
9.5677644e-82
9.5677772e-82
9.5678445e-82
9.5769739e-82
9.5695405e-82
9.5680217e-82
9.5677937e-82
9.5677669e-82
9.5677644e-82
9.5677644e-82
9.5677663e-82
9.5677791e-82
9.5678463e-82
9.5769774e-82
9.569551e-82
9.5680341e-82
9.5678064e-82
9.5677797e-82
9.5677772e-82
9.5677772e-82
9.5677791e-82
9.5677919e-82
9.5678591e-82
9.576997e-82
9.5696102e-82
9.5681003e-82
9.5678736e-82
9.567847e-82
9.5678444e-82
9.5678445e-82
9.5678463e-82
9.5678591e-82
9.5679264e-82
1.3112075e-80
1.3102206e-80
1.3100188e-80
1.3099885e-80
1.309985e-80
1.3099846e-80
1.3099846e-80
1.3099847e-80
1.3099851e-80
1.3099877e-80
1.3102206e-80
1.3092349e-80
1.3090333e-80
1.3090031e-80
1.3089995e-80
1.3089992e-80
1.3089992e-80
1.3089994e-80
1.3090008e-80
1.3090087e-80
1.3100188e-80
1.3090333e-80
1.3088318e-80
1.3088015e-80
1.308798e-80
1.3087977e-80
1.3087977e-80
1.3087979e-80
1.3087996e-80
1.3088084e-80
1.3099885e-80
1.3090031e-80
1.3088015e-80
1.3087713e-80
1.3087677e-80
1.3087674e-80
1.3087674e-80
1.3087677e-80
1.3087694e-80
1.3087783e-80
1.309985e-80
1.3089995e-80
1.308798e-80
1.3087677e-80
1.3087642e-80
1.3087639e-80
1.3087639e-80
1.3087641e-80
1.3087658e-80
1.3087748e-80
1.3099846e-80
1.3089992e-80
1.3087977e-80
1.3087674e-80
1.3087639e-80
1.3087635e-80
1.3087635e-80
1.3087638e-80
1.3087655e-80
1.3087745e-80
1.3099846e-80
1.3089992e-80
1.3087977e-80
1.3087674e-80
1.3087639e-80
1.3087635e-80
1.3087635e-80
1.3087638e-80
1.3087655e-80
1.3087745e-80
1.3099847e-80
1.3089994e-80
1.3087979e-80
1.3087677e-80
1.3087641e-80
1.3087638e-80
1.3087638e-80
1.308764e-80
1.3087657e-80
1.3087747e-80
1.3099851e-80
1.3090008e-80
1.3087996e-80
1.3087694e-80
1.3087658e-80
1.3087655e-80
1.3087655e-80
1.3087657e-80
1.3087675e-80
1.3087765e-80
1.3099877e-80
1.3090087e-80
1.3088084e-80
1.3087783e-80
1.3087748e-80
1.3087745e-80
1.3087745e-80
1.3087747e-80
1.3087765e-80
1.3087854e-80
1.8423786e-79
1.8410356e-79
1.8407608e-79
1.8407195e-79
1.8407147e-79
1.8407142e-79
1.8407142e-79
1.8407143e-79
1.8407149e-79
1.8407184e-79
1.8410356e-79
1.8396941e-79
1.8394197e-79
1.8393784e-79
1.8393736e-79
1.8393731e-79
1.8393731e-79
1.8393734e-79
1.8393753e-79
1.8393862e-79
1.8407608e-79
1.8394197e-79
1.8391452e-79
1.839104e-79
1.8390992e-79
1.8390987e-79
1.8390987e-79
1.8390991e-79
1.8391014e-79
1.8391135e-79
1.8407195e-79
1.8393784e-79
1.839104e-79
1.8390628e-79
1.839058e-79
1.8390575e-79
1.8390575e-79
1.8390578e-79
1.8390602e-79
1.8390725e-79
1.8407147e-79
1.8393736e-79
1.8390992e-79
1.839058e-79
1.8390531e-79
1.8390527e-79
1.8390527e-79
1.839053e-79
1.8390554e-79
1.8390677e-79
1.8407142e-79
1.8393731e-79
1.8390987e-79
1.8390575e-79
1.8390527e-79
1.8390522e-79
1.8390522e-79
1.8390526e-79
1.8390549e-79
1.8390673e-79
1.8407142e-79
1.8393731e-79
1.8390987e-79
1.8390575e-79
1.8390527e-79
1.8390522e-79
1.8390522e-79
1.8390526e-79
1.8390549e-79
1.8390673e-79
1.8407143e-79
1.8393734e-79
1.8390991e-79
1.8390578e-79
1.839053e-79
1.8390526e-79
1.8390526e-79
1.8390529e-79
1.8390553e-79
1.8390676e-79
1.8407149e-79
1.8393753e-79
1.8391014e-79
1.8390602e-79
1.8390554e-79
1.8390549e-79
1.8390549e-79
1.8390553e-79
1.8390577e-79
1.83907e-79
1.8407184e-79
1.8393862e-79
1.8391135e-79
1.8390725e-79
1.8390677e-79
1.8390673e-79
1.8390673e-79
1.8390676e-79
1.83907e-79
1.8390823e-79
2.6589002e-78
2.6570241e-78
2.65664e-78
2.6565823e-78
2.6565755e-78
2.6565749e-78
2.6565748e-78
2.656575e-78
2.6565759e-78
2.6565806e-78
2.6570241e-78
2.6551501e-78
2.6547664e-78
2.6547088e-78
2.654702e-78
2.6547014e-78
2.6547014e-78
2.6547017e-78
2.6547045e-78
2.6547198e-78
2.65664e-78
2.6547664e-78
2.6543828e-78
2.6543252e-78
2.6543184e-78
2.6543178e-78
2.6543178e-78
2.6543182e-78
2.6543215e-78
2.6543386e-78
2.6565823e-78
2.6547088e-78
2.6543252e-78
2.6542675e-78
2.6542608e-78
2.6542601e-78
2.6542601e-78
2.6542606e-78
2.654264e-78
2.6542814e-78
2.6565755e-78
2.654702e-78
2.6543184e-78
2.6542608e-78
2.654254e-78
2.6542534e-78
2.6542534e-78
2.6542539e-78
2.6542572e-78
2.6542746e-78
2.6565749e-78
2.6547014e-78
2.6543178e-78
2.6542601e-78
2.6542534e-78
2.6542527e-78
2.6542527e-78
2.6542532e-78
2.6542566e-78
2.654274e-78
2.6565748e-78
2.6547014e-78
2.6543178e-78
2.6542601e-78
2.6542534e-78
2.6542527e-78
2.6542527e-78
2.6542532e-78
2.6542566e-78
2.654274e-78
2.656575e-78
2.6547017e-78
2.6543182e-78
2.6542606e-78
2.6542539e-78
2.6542532e-78
2.6542532e-78
2.6542537e-78
2.6542571e-78
2.6542745e-78
2.6565759e-78
2.6547045e-78
2.6543215e-78
2.654264e-78
2.6542572e-78
2.6542566e-78
2.6542566e-78
2.6542571e-78
2.6542605e-78
2.6542779e-78
2.6565806e-78
2.6547198e-78
2.6543386e-78
2.6542814e-78
2.6542746e-78
2.654274e-78
2.654274e-78
2.6542745e-78
2.6542779e-78
2.6542953e-78
3.9406574e-77
3.9379676e-77
3.9374165e-77
3.9373337e-77
3.937324e-77
3.9373231e-77
3.937323e-77
3.9373232e-77
3.9373245e-77
3.9373313e-77
3.9379676e-77
3.9352808e-77
3.9347303e-77
3.9346476e-77
3.9346378e-77
3.9346369e-77
3.9346369e-77
3.9346375e-77
3.9346415e-77
3.9346636e-77
3.9374165e-77
3.9347303e-77
3.9341799e-77
3.9340972e-77
3.9340875e-77
3.9340866e-77
3.9340866e-77
3.9340873e-77
3.934092e-77
3.9341169e-77
3.9373337e-77
3.9346476e-77
3.9340972e-77
3.9340145e-77
3.9340048e-77
3.9340039e-77
3.9340039e-77
3.9340046e-77
3.9340095e-77
3.9340347e-77
3.937324e-77
3.9346378e-77
3.9340875e-77
3.9340048e-77
3.9339951e-77
3.9339942e-77
3.9339942e-77
3.9339949e-77
3.9339998e-77
3.934025e-77
3.9373231e-77
3.9346369e-77
3.9340866e-77
3.9340039e-77
3.9339942e-77
3.9339933e-77
3.9339933e-77
3.933994e-77
3.9339989e-77
3.9340241e-77
3.937323e-77
3.9346369e-77
3.9340866e-77
3.9340039e-77
3.9339942e-77
3.9339933e-77
3.9339933e-77
3.933994e-77
3.9339989e-77
3.9340241e-77
3.9373232e-77
3.9346375e-77
3.9340873e-77
3.9340046e-77
3.9339949e-77
3.933994e-77
3.933994e-77
3.9339947e-77
3.9339996e-77
3.9340249e-77
3.9373245e-77
3.9346415e-77
3.934092e-77
3.9340095e-77
3.9339998e-77
3.9339989e-77
3.9339989e-77
3.9339996e-77
3.9340045e-77
3.9340298e-77
3.9373313e-77
3.9346636e-77
3.9341169e-77
3.9340347e-77
3.934025e-77
3.9340241e-77
3.9340241e-77
3.9340249e-77
3.9340298e-77
3.934055e-77
5.9965429e-76
5.9925858e-76
5.9917746e-76
5.9916526e-76
5.9916383e-76
5.991637e-76
5.9916369e-76
5.9916372e-76
5.9916391e-76
5.991649e-76
5.9925858e-76
5.988633e-76
5.9878226e-76
5.9877008e-76
5.9876865e-76
5.9876851e-76
5.9876851e-76
5.987686e-76
5.987692e-76
5.9877248e-76
5.9917746e-76
5.9878226e-76
5.9870123e-76
5.9868906e-76
5.9868763e-76
5.9868749e-76
5.9868749e-76
5.986876e-76
5.9868831e-76
5.98692e-76
5.9916526e-76
5.9877008e-76
5.9868906e-76
5.9867688e-76
5.9867545e-76
5.9867532e-76
5.9867532e-76
5.9867542e-76
5.9867616e-76
5.986799e-76
5.9916383e-76
5.9876865e-76
5.9868763e-76
5.9867545e-76
5.9867402e-76
5.9867389e-76
5.9867389e-76
5.98674e-76
5.9867473e-76
5.9867848e-76
5.991637e-76
5.9876851e-76
5.9868749e-76
5.9867532e-76
5.9867389e-76
5.9867375e-76
5.9867375e-76
5.9867386e-76
5.9867459e-76
5.9867835e-76
5.9916369e-76
5.9876851e-76
5.9868749e-76
5.9867532e-76
5.9867389e-76
5.9867375e-76
5.9867375e-76
5.9867386e-76
5.986746e-76
5.9867835e-76
5.9916372e-76
5.987686e-76
5.986876e-76
5.9867542e-76
5.98674e-76
5.9867386e-76
5.9867386e-76
5.9867397e-76
5.986747e-76
5.9867846e-76
5.9916391e-76
5.987692e-76
5.9868831e-76
5.9867616e-76
5.9867473e-76
5.9867459e-76
5.986746e-76
5.986747e-76
5.9867544e-76
5.9867919e-76
5.991649e-76
5.9877248e-76
5.98692e-76
5.986799e-76
5.9867848e-76
5.9867835e-76
5.9867835e-76
5.9867846e-76
5.9867919e-76
5.9868295e-76
9.3673162e-75
9.3613438e-75
9.3601186e-75
9.3599345e-75
9.3599129e-75
9.3599108e-75
9.3599107e-75
9.3599111e-75
9.3599141e-75
9.3599289e-75
9.3613438e-75
9.3553778e-75
9.3541539e-75
9.3539699e-75
9.3539483e-75
9.3539462e-75
9.3539462e-75
9.3539475e-75
9.3539567e-75
9.3540069e-75
9.3601186e-75
9.3541539e-75
9.3529302e-75
9.3527463e-75
9.3527247e-75
9.3527227e-75
9.3527227e-75
9.3527243e-75
9.3527352e-75
9.3527916e-75
9.3599345e-75
9.3539699e-75
9.3527463e-75
9.3525624e-75
9.3525408e-75
9.3525387e-75
9.3525388e-75
9.3525404e-75
9.3525516e-75
9.3526089e-75
9.3599129e-75
9.3539483e-75
9.3527247e-75
9.3525408e-75
9.3525192e-75
9.3525171e-75
9.3525172e-75
9.3525188e-75
9.3525301e-75
9.3525874e-75
9.3599108e-75
9.3539462e-75
9.3527227e-75
9.3525387e-75
9.3525171e-75
9.3525151e-75
9.3525151e-75
9.3525168e-75
9.352528e-75
9.3525854e-75
9.3599107e-75
9.3539462e-75
9.3527227e-75
9.3525388e-75
9.3525172e-75
9.3525151e-75
9.3525151e-75
9.3525168e-75
9.3525281e-75
9.3525854e-75
9.3599111e-75
9.3539475e-75
9.3527243e-75
9.3525404e-75
9.3525188e-75
9.3525168e-75
9.3525168e-75
9.3525185e-75
9.3525297e-75
9.3525871e-75
9.3599141e-75
9.3539567e-75
9.3527352e-75
9.3525516e-75
9.3525301e-75
9.352528e-75
9.3525281e-75
9.3525297e-75
9.352541e-75
9.3525983e-75
9.3599289e-75
9.3540069e-75
9.3527916e-75
9.3526089e-75
9.3525874e-75
9.3525854e-75
9.3525854e-75
9.3525871e-75
9.3525983e-75
9.3526557e-75
1.5018332e-73
1.5009086e-73
1.5007189e-73
1.5006904e-73
1.500687e-73
1.5006867e-73
1.5006867e-73
1.5006867e-73
1.5006872e-73
1.5006895e-73
1.5009086e-73
1.4999851e-73
1.4997955e-73
1.499767e-73
1.4997637e-73
1.4997633e-73
1.4997633e-73
1.4997635e-73
1.499765e-73
1.4997729e-73
1.5007189e-73
1.4997955e-73
1.499606e-73
1.4995775e-73
1.4995741e-73
1.4995738e-73
1.4995738e-73
1.4995741e-73
1.4995758e-73
1.4995846e-73
1.5006904e-73
1.499767e-73
1.4995775e-73
1.499549e-73
1.4995456e-73
1.4995453e-73
1.4995453e-73
1.4995456e-73
1.4995473e-73
1.4995563e-73
1.500687e-73
1.4997637e-73
1.4995741e-73
1.4995456e-73
1.4995423e-73
1.499542e-73
1.499542e-73
1.4995422e-73
1.499544e-73
1.499553e-73
1.5006867e-73
1.4997633e-73
1.4995738e-73
1.4995453e-73
1.499542e-73
1.4995417e-73
1.4995417e-73
1.4995419e-73
1.4995437e-73
1.4995527e-73
1.5006867e-73
1.4997633e-73
1.4995738e-73
1.4995453e-73
1.499542e-73
1.4995417e-73
1.4995417e-73
1.4995419e-73
1.4995437e-73
1.4995527e-73
1.5006867e-73
1.4997635e-73
1.4995741e-73
1.4995456e-73
1.4995422e-73
1.4995419e-73
1.4995419e-73
1.4995422e-73
1.499544e-73
1.4995529e-73
1.5006872e-73
1.499765e-73
1.4995758e-73
1.4995473e-73
1.499544e-73
1.4995437e-73
1.4995437e-73
1.499544e-73
1.4995457e-73
1.4995547e-73
1.5006895e-73
1.4997729e-73
1.4995846e-73
1.4995563e-73
1.499553e-73
1.4995527e-73
1.4995527e-73
1.4995529e-73
1.4995547e-73
1.4995637e-73
2.470726e-72
2.4692585e-72
2.4689571e-72
2.4689117e-72
2.4689064e-72
2.4689059e-72
2.4689059e-72
2.468906e-72
2.4689067e-72
2.4689104e-72
2.4692585e-72
2.4677924e-72
2.4674913e-72
2.467446e-72
2.4674407e-72
2.4674402e-72
2.4674402e-72
2.4674405e-72
2.4674429e-72
2.4674555e-72
2.4689571e-72
2.4674913e-72
2.4671903e-72
2.467145e-72
2.4671397e-72
2.4671392e-72
2.4671392e-72
2.4671396e-72
2.4671424e-72
2.4671566e-72
2.4689117e-72
2.467446e-72
2.467145e-72
2.4670997e-72
2.4670944e-72
2.4670939e-72
2.4670939e-72
2.4670943e-72
2.4670972e-72
2.4671116e-72
2.4689064e-72
2.4674407e-72
2.4671397e-72
2.4670944e-72
2.4670891e-72
2.4670886e-72
2.4670886e-72
2.467089e-72
2.4670919e-72
2.4671063e-72
2.4689059e-72
2.4674402e-72
2.4671392e-72
2.4670939e-72
2.4670886e-72
2.4670881e-72
2.4670881e-72
2.4670885e-72
2.4670914e-72
2.4671058e-72
2.4689059e-72
2.4674402e-72
2.4671392e-72
2.4670939e-72
2.4670886e-72
2.4670881e-72
2.4670881e-72
2.4670885e-72
2.4670914e-72
2.4671059e-72
2.468906e-72
2.4674405e-72
2.4671396e-72
2.4670943e-72
2.467089e-72
2.4670885e-72
2.4670885e-72
2.467089e-72
2.4670918e-72
2.4671063e-72
2.4689067e-72
2.4674429e-72
2.4671424e-72
2.4670972e-72
2.4670919e-72
2.4670914e-72
2.4670914e-72
2.4670918e-72
2.4670947e-72
2.4671091e-72
2.4689104e-72
2.4674555e-72
2.4671566e-72
2.4671116e-72
2.4671063e-72
2.4671058e-72
2.4671059e-72
2.4671063e-72
2.4671091e-72
2.4671236e-72
4.1698603e-71
4.1674722e-71
4.1669815e-71
4.1669077e-71
4.166899e-71
4.1668982e-71
4.1668982e-71
4.1668983e-71
4.1668996e-71
4.1669054e-71
4.1674722e-71
4.1650865e-71
4.1645962e-71
4.1645225e-71
4.1645138e-71
4.164513e-71
4.164513e-71
4.1645136e-71
4.1645174e-71
4.1645383e-71
4.1669815e-71
4.1645962e-71
4.1641061e-71
4.1640323e-71
4.1640237e-71
4.1640229e-71
4.1640229e-71
4.1640236e-71
4.1640282e-71
4.1640516e-71
4.1669077e-71
4.1645225e-71
4.1640323e-71
4.1639586e-71
4.16395e-71
4.1639492e-71
4.1639492e-71
4.1639499e-71
4.1639546e-71
4.1639784e-71
4.166899e-71
4.1645138e-71
4.1640237e-71
4.16395e-71
4.1639413e-71
4.1639405e-71
4.1639405e-71
4.1639412e-71
4.163946e-71
4.1639698e-71
4.1668982e-71
4.164513e-71
4.1640229e-71
4.1639492e-71
4.1639405e-71
4.1639397e-71
4.1639397e-71
4.1639404e-71
4.1639451e-71
4.163969e-71
4.1668982e-71
4.164513e-71
4.1640229e-71
4.1639492e-71
4.1639405e-71
4.1639397e-71
4.1639397e-71
4.1639404e-71
4.1639451e-71
4.163969e-71
4.1668983e-71
4.1645136e-71
4.1640236e-71
4.1639499e-71
4.1639412e-71
4.1639404e-71
4.1639404e-71
4.1639411e-71
4.1639458e-71
4.1639697e-71
4.1668996e-71
4.1645174e-71
4.1640282e-71
4.1639546e-71
4.163946e-71
4.1639451e-71
4.1639451e-71
4.1639458e-71
4.1639506e-71
4.1639745e-71
4.1669054e-71
4.1645383e-71
4.1640516e-71
4.1639784e-71
4.1639698e-71
4.163969e-71
4.163969e-71
4.1639697e-71
4.1639745e-71
4.1639983e-71
7.217776e-70
7.2137932e-70
7.2129744e-70
7.2128512e-70
7.2128367e-70
7.2128353e-70
7.2128353e-70
7.2128356e-70
7.2128376e-70
7.2128474e-70
7.2137932e-70
7.2098144e-70
7.2089963e-70
7.2088732e-70
7.2088587e-70
7.2088574e-70
7.2088574e-70
7.2088583e-70
7.2088649e-70
7.2089001e-70
7.2129744e-70
7.2089963e-70
7.2081783e-70
7.2080553e-70
7.2080409e-70
7.2080395e-70
7.2080395e-70
7.2080407e-70
7.2080485e-70
7.2080882e-70
7.2128512e-70
7.2088732e-70
7.2080553e-70
7.2079323e-70
7.2079178e-70
7.2079165e-70
7.2079165e-70
7.2079177e-70
7.2079257e-70
7.207966e-70
7.2128367e-70
7.2088587e-70
7.2080409e-70
7.2079178e-70
7.2079034e-70
7.207902e-70
7.207902e-70
7.2079032e-70
7.2079113e-70
7.2079517e-70
7.2128353e-70
7.2088574e-70
7.2080395e-70
7.2079165e-70
7.207902e-70
7.2079006e-70
7.2079007e-70
7.2079019e-70
7.2079099e-70
7.2079503e-70
7.2128353e-70
7.2088574e-70
7.2080395e-70
7.2079165e-70
7.207902e-70
7.2079007e-70
7.2079007e-70
7.2079019e-70
7.2079099e-70
7.2079503e-70
7.2128356e-70
7.2088583e-70
7.2080407e-70
7.2079177e-70
7.2079032e-70
7.2079019e-70
7.2079019e-70
7.2079031e-70
7.2079111e-70
7.2079515e-70
7.2128376e-70
7.2088649e-70
7.2080485e-70
7.2079257e-70
7.2079113e-70
7.2079099e-70
7.2079099e-70
7.2079111e-70
7.2079192e-70
7.2079596e-70
7.2128474e-70
7.2089001e-70
7.2080882e-70
7.207966e-70
7.2079517e-70
7.2079503e-70
7.2079503e-70
7.2079515e-70
7.2079596e-70
7.208e-70
1.281015e-68
1.2803345e-68
1.2801945e-68
1.2801734e-68
1.2801709e-68
1.2801707e-68
1.2801707e-68
1.2801708e-68
1.2801711e-68
1.2801728e-68
1.2803345e-68
1.2796546e-68
1.2795147e-68
1.2794937e-68
1.2794912e-68
1.279491e-68
1.279491e-68
1.2794911e-68
1.2794923e-68
1.2794984e-68
1.2801945e-68
1.2795147e-68
1.2793749e-68
1.2793539e-68
1.2793514e-68
1.2793512e-68
1.2793512e-68
1.2793514e-68
1.2793527e-68
1.2793596e-68
1.2801734e-68
1.2794937e-68
1.2793539e-68
1.2793328e-68
1.2793303e-68
1.2793301e-68
1.2793301e-68
1.2793303e-68
1.2793317e-68
1.2793387e-68
1.2801709e-68
1.2794912e-68
1.2793514e-68
1.2793303e-68
1.2793279e-68
1.2793276e-68
1.2793276e-68
1.2793279e-68
1.2793293e-68
1.2793363e-68
1.2801707e-68
1.279491e-68
1.2793512e-68
1.2793301e-68
1.2793276e-68
1.2793274e-68
1.2793274e-68
1.2793276e-68
1.279329e-68
1.279336e-68
1.2801707e-68
1.279491e-68
1.2793512e-68
1.2793301e-68
1.2793276e-68
1.2793274e-68
1.2793274e-68
1.2793276e-68
1.279329e-68
1.279336e-68
1.2801708e-68
1.2794911e-68
1.2793514e-68
1.2793303e-68
1.2793279e-68
1.2793276e-68
1.2793276e-68
1.2793278e-68
1.2793292e-68
1.2793362e-68
1.2801711e-68
1.2794923e-68
1.2793527e-68
1.2793317e-68
1.2793293e-68
1.279329e-68
1.279329e-68
1.2793292e-68
1.2793306e-68
1.2793376e-68
1.2801728e-68
1.2794984e-68
1.2793596e-68
1.2793387e-68
1.2793363e-68
1.279336e-68
1.279336e-68
1.2793362e-68
1.2793376e-68
1.2793447e-68
2.3305084e-67