/*--------------------------------*- C++ -*----------------------------------*\
| =========                 |                                                 |
| \\      /  F ield         | OpenFOAM: The Open Source CFD Toolbox           |
|  \\    /   O peration     | Version:  dev                                   |
|   \\  /    A nd           | Web:      www.OpenFOAM.org                      |
|    \\/     M anipulation  |                                                 |
\*---------------------------------------------------------------------------*/
FoamFile
{
    version     2.0;
    format      ascii;
    class       volScalarField;
    location    "41.995";
    object      A;
}
// * * * * * * * * * * * * * * * * * * * * * * * * * * * * * * * * * * * * * //

dimensions      [0 0 0 0 1 0 0];

internalField   nonuniform List<scalar> 
10000
(
1.7249281e-36
1.7210189e-36
1.7199854e-36
1.7197579e-36
1.7197133e-36
1.7197044e-36
1.719706e-36
1.7197293e-36
1.7198463e-36
1.7202782e-36
1.7210189e-36
1.7171339e-36
1.716106e-36
1.7158797e-36
1.7158352e-36
1.7158265e-36
1.7158287e-36
1.715855e-36
1.7159876e-36
1.7164866e-36
1.7199854e-36
1.716106e-36
1.7150799e-36
1.714854e-36
1.7148097e-36
1.714801e-36
1.7148035e-36
1.7148313e-36
1.7149699e-36
1.7154842e-36
1.7197579e-36
1.7158797e-36
1.714854e-36
1.7146282e-36
1.7145839e-36
1.7145753e-36
1.7145778e-36
1.7146061e-36
1.7147462e-36
1.7152634e-36
1.7197133e-36
1.7158352e-36
1.7148097e-36
1.7145839e-36
1.7145396e-36
1.714531e-36
1.7145336e-36
1.714562e-36
1.7147024e-36
1.7152201e-36
1.7197044e-36
1.7158265e-36
1.714801e-36
1.7145753e-36
1.714531e-36
1.7145225e-36
1.7145251e-36
1.7145535e-36
1.7146939e-36
1.7152117e-36
1.719706e-36
1.7158287e-36
1.7148035e-36
1.7145778e-36
1.7145336e-36
1.7145251e-36
1.7145277e-36
1.7145561e-36
1.7146966e-36
1.7152144e-36
1.7197293e-36
1.715855e-36
1.7148313e-36
1.7146061e-36
1.714562e-36
1.7145535e-36
1.7145561e-36
1.7145846e-36
1.714725e-36
1.7152429e-36
1.7198463e-36
1.7159876e-36
1.7149699e-36
1.7147462e-36
1.7147024e-36
1.7146939e-36
1.7146966e-36
1.714725e-36
1.7148656e-36
1.7153839e-36
1.7202782e-36
1.7164866e-36
1.7154842e-36
1.7152634e-36
1.7152201e-36
1.7152117e-36
1.7152144e-36
1.7152429e-36
1.7153839e-36
1.7159039e-36
6.5177895e-36
6.5036177e-36
6.4997761e-36
6.4989284e-36
6.4987619e-36
6.4987289e-36
6.4987347e-36
6.4988207e-36
6.4992552e-36
6.5009409e-36
6.5036177e-36
6.4895324e-36
6.4857111e-36
6.4848676e-36
6.4847019e-36
6.4846693e-36
6.4846771e-36
6.4847747e-36
6.4852683e-36
6.4872083e-36
6.4997761e-36
6.4857111e-36
6.4818965e-36
6.4810546e-36
6.4808892e-36
6.4808569e-36
6.4808659e-36
6.4809691e-36
6.481485e-36
6.4834827e-36
6.4989284e-36
6.4848676e-36
6.4810546e-36
6.480213e-36
6.4800478e-36
6.4800156e-36
6.480025e-36
6.4801299e-36
6.4806513e-36
6.4826601e-36
6.4987619e-36
6.4847019e-36
6.4808892e-36
6.4800478e-36
6.4798826e-36
6.4798506e-36
6.4798601e-36
6.4799654e-36
6.4804879e-36
6.4824986e-36
6.4987289e-36
6.4846693e-36
6.4808569e-36
6.4800156e-36
6.4798506e-36
6.4798185e-36
6.4798282e-36
6.4799336e-36
6.4804564e-36
6.4824673e-36
6.4987347e-36
6.4846771e-36
6.4808659e-36
6.480025e-36
6.4798601e-36
6.4798282e-36
6.4798379e-36
6.4799433e-36
6.4804662e-36
6.4824772e-36
6.4988207e-36
6.4847747e-36
6.4809691e-36
6.4801299e-36
6.4799654e-36
6.4799336e-36
6.4799433e-36
6.4800488e-36
6.4805718e-36
6.4825831e-36
6.4992552e-36
6.4852683e-36
6.481485e-36
6.4806513e-36
6.4804879e-36
6.4804564e-36
6.4804662e-36
6.4805718e-36
6.4810953e-36
6.483108e-36
6.5009409e-36
6.4872083e-36
6.4834827e-36
6.4826601e-36
6.4824986e-36
6.4824673e-36
6.4824772e-36
6.4825831e-36
6.483108e-36
6.4851277e-36
1.6568188e-35
1.6533363e-35
1.6523841e-35
1.6521736e-35
1.6521322e-35
1.6521239e-35
1.6521253e-35
1.6521464e-35
1.6522532e-35
1.6526815e-35
1.6533363e-35
1.6498749e-35
1.6489277e-35
1.6487181e-35
1.6486769e-35
1.6486688e-35
1.6486707e-35
1.6486947e-35
1.6488164e-35
1.6493092e-35
1.6523841e-35
1.6489277e-35
1.6479821e-35
1.6477729e-35
1.6477318e-35
1.6477238e-35
1.6477259e-35
1.6477513e-35
1.6478787e-35
1.6483862e-35
1.6521736e-35
1.6487181e-35
1.6477729e-35
1.6475639e-35
1.6475228e-35
1.6475148e-35
1.6475171e-35
1.6475429e-35
1.6476717e-35
1.6481819e-35
1.6521322e-35
1.6486769e-35
1.6477318e-35
1.6475228e-35
1.6474817e-35
1.6474737e-35
1.647476e-35
1.647502e-35
1.647631e-35
1.6481417e-35
1.6521239e-35
1.6486688e-35
1.6477238e-35
1.6475148e-35
1.6474737e-35
1.6474657e-35
1.6474681e-35
1.647494e-35
1.6476232e-35
1.6481339e-35
1.6521253e-35
1.6486707e-35
1.6477259e-35
1.6475171e-35
1.647476e-35
1.6474681e-35
1.6474704e-35
1.6474964e-35
1.6476256e-35
1.6481364e-35
1.6521464e-35
1.6486947e-35
1.6477513e-35
1.6475429e-35
1.647502e-35
1.647494e-35
1.6474964e-35
1.6475224e-35
1.6476516e-35
1.6481625e-35
1.6522532e-35
1.6488164e-35
1.6478787e-35
1.6476717e-35
1.647631e-35
1.6476232e-35
1.6476256e-35
1.6476516e-35
1.6477809e-35
1.6482921e-35
1.6526815e-35
1.6493092e-35
1.6483862e-35
1.6481819e-35
1.6481417e-35
1.6481339e-35
1.6481364e-35
1.6481625e-35
1.6482921e-35
1.6488051e-35
4.0432354e-35
4.0350114e-35
4.0327542e-35
4.0322542e-35
4.0321557e-35
4.032136e-35
4.0321392e-35
4.0321884e-35
4.0324375e-35
4.0334425e-35
4.0350114e-35
4.0268365e-35
4.0245909e-35
4.0240933e-35
4.0239952e-35
4.0239758e-35
4.0239802e-35
4.0240365e-35
4.0243219e-35
4.0254837e-35
4.0327542e-35
4.0245909e-35
4.0223492e-35
4.0218525e-35
4.0217546e-35
4.0217354e-35
4.0217405e-35
4.0218002e-35
4.0220994e-35
4.0232966e-35
4.0322542e-35
4.0240933e-35
4.0218525e-35
4.021356e-35
4.0212582e-35
4.0212391e-35
4.0212444e-35
4.0213051e-35
4.0216077e-35
4.0228117e-35
4.0321557e-35
4.0239952e-35
4.0217546e-35
4.0212582e-35
4.0211605e-35
4.0211414e-35
4.0211468e-35
4.0212078e-35
4.0215111e-35
4.0227162e-35
4.032136e-35
4.0239758e-35
4.0217354e-35
4.0212391e-35
4.0211414e-35
4.0211224e-35
4.0211278e-35
4.0211889e-35
4.0214923e-35
4.0226976e-35
4.0321392e-35
4.0239802e-35
4.0217405e-35
4.0212444e-35
4.0211468e-35
4.0211278e-35
4.0211334e-35
4.0211944e-35
4.0214979e-35
4.0227033e-35
4.0321884e-35
4.0240365e-35
4.0218002e-35
4.0213051e-35
4.0212078e-35
4.0211889e-35
4.0211944e-35
4.0212556e-35
4.0215591e-35
4.0227646e-35
4.0324375e-35
4.0243219e-35
4.0220994e-35
4.0216077e-35
4.0215111e-35
4.0214923e-35
4.0214979e-35
4.0215591e-35
4.0218629e-35
4.0230692e-35
4.0334425e-35
4.0254837e-35
4.0232966e-35
4.0228117e-35
4.0227162e-35
4.0226976e-35
4.0227033e-35
4.0227646e-35
4.0230692e-35
4.0242799e-35
9.9193337e-35
9.8998106e-35
9.8944387e-35
9.893247e-35
9.8930117e-35
9.8929646e-35
9.8929718e-35
9.8930868e-35
9.8936685e-35
9.8960089e-35
9.8998106e-35
9.8804026e-35
9.8750581e-35
9.8738719e-35
9.8736378e-35
9.8735914e-35
9.8736015e-35
9.8737339e-35
9.8744042e-35
9.8771272e-35
9.8944387e-35
9.8750581e-35
9.8697227e-35
9.8685386e-35
9.868305e-35
9.868259e-35
9.8682708e-35
9.8684115e-35
9.8691154e-35
9.8719249e-35
9.893247e-35
9.8738719e-35
9.8685386e-35
9.8673552e-35
9.8671217e-35
9.8670759e-35
9.8670884e-35
9.8672316e-35
9.8679437e-35
9.8707698e-35
9.8930117e-35
9.8736378e-35
9.868305e-35
9.8671217e-35
9.8668883e-35
9.8668426e-35
9.8668553e-35
9.8669992e-35
9.8677129e-35
9.8705419e-35
9.8929646e-35
9.8735914e-35
9.868259e-35
9.8670759e-35
9.8668426e-35
9.866797e-35
9.8668099e-35
9.8669539e-35
9.867668e-35
9.8704974e-35
9.8929718e-35
9.8736015e-35
9.8682708e-35
9.8670884e-35
9.8668553e-35
9.8668099e-35
9.8668227e-35
9.8669669e-35
9.8676811e-35
9.8705106e-35
9.8930868e-35
9.8737339e-35
9.8684115e-35
9.8672316e-35
9.8669992e-35
9.8669539e-35
9.8669669e-35
9.8671111e-35
9.8678254e-35
9.8706553e-35
9.8936685e-35
9.8744042e-35
9.8691154e-35
9.8679437e-35
9.8677129e-35
9.867668e-35
9.8676811e-35
9.8678254e-35
9.8685404e-35
9.8713722e-35
9.8960089e-35
9.8771272e-35
9.8719249e-35
9.8707698e-35
9.8705419e-35
9.8704974e-35
9.8705106e-35
9.8706553e-35
9.8713722e-35
9.8742139e-35
2.4656655e-34
2.4609712e-34
2.4596768e-34
2.4593892e-34
2.4593323e-34
2.4593209e-34
2.4593225e-34
2.4593498e-34
2.4594872e-34
2.4600374e-34
2.4609712e-34
2.4563044e-34
2.4550164e-34
2.4547302e-34
2.4546736e-34
2.4546623e-34
2.4546647e-34
2.4546962e-34
2.4548555e-34
2.4555003e-34
2.4596768e-34
2.4550164e-34
2.4537307e-34
2.4534449e-34
2.4533884e-34
2.4533773e-34
2.45338e-34
2.4534136e-34
2.4535812e-34
2.4542474e-34
2.4593892e-34
2.4547302e-34
2.4534449e-34
2.4531593e-34
2.4531028e-34
2.4530917e-34
2.4530947e-34
2.4531289e-34
2.4532985e-34
2.4539688e-34
2.4593323e-34
2.4546736e-34
2.4533884e-34
2.4531028e-34
2.4530464e-34
2.4530354e-34
2.4530384e-34
2.4530727e-34
2.4532427e-34
2.4539137e-34
2.4593209e-34
2.4546623e-34
2.4533773e-34
2.4530917e-34
2.4530354e-34
2.4530243e-34
2.4530273e-34
2.4530617e-34
2.4532318e-34
2.4539029e-34
2.4593225e-34
2.4546647e-34
2.45338e-34
2.4530947e-34
2.4530384e-34
2.4530273e-34
2.4530304e-34
2.4530648e-34
2.4532349e-34
2.453906e-34
2.4593498e-34
2.4546962e-34
2.4534136e-34
2.4531289e-34
2.4530727e-34
2.4530617e-34
2.4530648e-34
2.4530992e-34
2.4532694e-34
2.4539406e-34
2.4594872e-34
2.4548555e-34
2.4535812e-34
2.4532985e-34
2.4532427e-34
2.4532318e-34
2.4532349e-34
2.4532694e-34
2.4534397e-34
2.4541114e-34
2.4600374e-34
2.4555003e-34
2.4542474e-34
2.4539688e-34
2.4539137e-34
2.4539029e-34
2.453906e-34
2.4539406e-34
2.4541114e-34
2.4547853e-34
6.2185674e-34
6.2071197e-34
6.2039565e-34
6.2032527e-34
6.2031133e-34
6.2030852e-34
6.203089e-34
6.2031544e-34
6.2034835e-34
6.2047942e-34
6.2071197e-34
6.1957382e-34
6.1925907e-34
6.1918901e-34
6.1917514e-34
6.1917237e-34
6.1917293e-34
6.1918054e-34
6.1921894e-34
6.1937374e-34
6.2039565e-34
6.1925907e-34
6.1894484e-34
6.1887491e-34
6.1886106e-34
6.1885832e-34
6.1885898e-34
6.1886712e-34
6.1890758e-34
6.1906774e-34
6.2032527e-34
6.1918901e-34
6.1887491e-34
6.1880501e-34
6.1879117e-34
6.1878844e-34
6.1878915e-34
6.1879743e-34
6.1883841e-34
6.189996e-34
6.2031133e-34
6.1917514e-34
6.1886106e-34
6.1879117e-34
6.1877734e-34
6.1877462e-34
6.1877534e-34
6.1878366e-34
6.1882474e-34
6.189861e-34
6.2030852e-34
6.1917237e-34
6.1885832e-34
6.1878844e-34
6.1877462e-34
6.187719e-34
6.1877263e-34
6.1878096e-34
6.1882206e-34
6.1898345e-34
6.203089e-34
6.1917293e-34
6.1885898e-34
6.1878915e-34
6.1877534e-34
6.1877263e-34
6.1877336e-34
6.187817e-34
6.1882281e-34
6.189842e-34
6.2031544e-34
6.1918054e-34
6.1886712e-34
6.1879743e-34
6.1878366e-34
6.1878096e-34
6.187817e-34
6.1879004e-34
6.1883116e-34
6.1899258e-34
6.2034835e-34
6.1921894e-34
6.1890758e-34
6.1883841e-34
6.1882474e-34
6.1882206e-34
6.1882281e-34
6.1883116e-34
6.1887231e-34
6.1903383e-34
6.2047942e-34
6.1937374e-34
6.1906774e-34
6.189996e-34
6.189861e-34
6.1898345e-34
6.189842e-34
6.1899258e-34
6.1903383e-34
6.1919591e-34
1.5917687e-33
1.5889366e-33
1.5881524e-33
1.5879777e-33
1.5879431e-33
1.5879361e-33
1.5879369e-33
1.5879529e-33
1.5880328e-33
1.5883496e-33
1.5889366e-33
1.5861206e-33
1.5853403e-33
1.5851664e-33
1.5851319e-33
1.585125e-33
1.5851264e-33
1.585145e-33
1.5852389e-33
1.585616e-33
1.5881524e-33
1.5853403e-33
1.5845613e-33
1.5843877e-33
1.5843533e-33
1.5843464e-33
1.5843481e-33
1.584368e-33
1.5844672e-33
1.5848579e-33
1.5879777e-33
1.5851664e-33
1.5843877e-33
1.5842142e-33
1.5841798e-33
1.584173e-33
1.5841747e-33
1.584195e-33
1.5842955e-33
1.5846889e-33
1.5879431e-33
1.5851319e-33
1.5843533e-33
1.5841798e-33
1.5841454e-33
1.5841386e-33
1.5841403e-33
1.5841608e-33
1.5842615e-33
1.5846553e-33
1.5879361e-33
1.585125e-33
1.5843464e-33
1.584173e-33
1.5841386e-33
1.5841318e-33
1.5841336e-33
1.5841541e-33
1.5842549e-33
1.5846487e-33
1.5879369e-33
1.5851264e-33
1.5843481e-33
1.5841747e-33
1.5841403e-33
1.5841336e-33
1.5841354e-33
1.5841559e-33
1.5842567e-33
1.5846506e-33
1.5879529e-33
1.585145e-33
1.584368e-33
1.584195e-33
1.5841608e-33
1.5841541e-33
1.5841559e-33
1.5841764e-33
1.5842772e-33
1.5846711e-33
1.5880328e-33
1.5852389e-33
1.5844672e-33
1.5842955e-33
1.5842615e-33
1.5842549e-33
1.5842567e-33
1.5842772e-33
1.5843781e-33
1.5847723e-33
1.5883496e-33
1.585616e-33
1.5848579e-33
1.5846889e-33
1.5846553e-33
1.5846487e-33
1.5846506e-33
1.5846711e-33
1.5847723e-33
1.5851678e-33
4.1357117e-33
4.1286029e-33
4.1266307e-33
4.1261907e-33
4.1261033e-33
4.1260856e-33
4.1260876e-33
4.1261271e-33
4.1263242e-33
4.1271008e-33
4.1286029e-33
4.1215343e-33
4.1195717e-33
4.1191337e-33
4.1190467e-33
4.1190292e-33
4.1190325e-33
4.1190789e-33
4.119312e-33
4.1202444e-33
4.1266307e-33
4.1195717e-33
4.1176124e-33
4.1171751e-33
4.1170882e-33
4.1170709e-33
4.1170749e-33
4.1171247e-33
4.1173714e-33
4.1183389e-33
4.1261907e-33
4.1191337e-33
4.1171751e-33
4.116738e-33
4.1166512e-33
4.116634e-33
4.1166382e-33
4.116689e-33
4.116939e-33
4.1179133e-33
4.1261033e-33
4.1190467e-33
4.1170882e-33
4.1166512e-33
4.1165645e-33
4.1165473e-33
4.1165516e-33
4.1166027e-33
4.1168533e-33
4.1178288e-33
4.1260856e-33
4.1190292e-33
4.1170709e-33
4.116634e-33
4.1165473e-33
4.1165302e-33
4.1165345e-33
4.1165857e-33
4.1168365e-33
4.1178121e-33
4.1260876e-33
4.1190325e-33
4.1170749e-33
4.1166382e-33
4.1165516e-33
4.1165345e-33
4.1165389e-33
4.1165901e-33
4.1168409e-33
4.1178166e-33
4.1261271e-33
4.1190789e-33
4.1171247e-33
4.116689e-33
4.1166027e-33
4.1165857e-33
4.1165901e-33
4.1166413e-33
4.1168922e-33
4.117868e-33
4.1263242e-33
4.119312e-33
4.1173714e-33
4.116939e-33
4.1168533e-33
4.1168365e-33
4.1168409e-33
4.1168922e-33
4.1171433e-33
4.1181197e-33
4.1271008e-33
4.1202444e-33
4.1183389e-33
4.1179133e-33
4.1178288e-33
4.1178121e-33
4.1178166e-33
4.117868e-33
4.1181197e-33
4.1190994e-33
1.0907678e-32
1.0889573e-32
1.0884541e-32
1.0883416e-32
1.0883193e-32
1.0883147e-32
1.0883152e-32
1.0883251e-32
1.0883744e-32
1.0885676e-32
1.0889573e-32
1.087157e-32
1.0866562e-32
1.0865442e-32
1.0865219e-32
1.0865175e-32
1.0865183e-32
1.08653e-32
1.0865887e-32
1.0868227e-32
1.0884541e-32
1.0866562e-32
1.0861561e-32
1.0860444e-32
1.0860222e-32
1.0860177e-32
1.0860187e-32
1.0860313e-32
1.0860936e-32
1.0863368e-32
1.0883416e-32
1.0865442e-32
1.0860444e-32
1.0859327e-32
1.0859105e-32
1.0859061e-32
1.0859071e-32
1.08592e-32
1.0859831e-32
1.0862281e-32
1.0883193e-32
1.0865219e-32
1.0860222e-32
1.0859105e-32
1.0858883e-32
1.0858839e-32
1.085885e-32
1.0858979e-32
1.0859612e-32
1.0862065e-32
1.0883147e-32
1.0865175e-32
1.0860177e-32
1.0859061e-32
1.0858839e-32
1.0858795e-32
1.0858806e-32
1.0858935e-32
1.0859569e-32
1.0862022e-32
1.0883152e-32
1.0865183e-32
1.0860187e-32
1.0859071e-32
1.085885e-32
1.0858806e-32
1.0858817e-32
1.0858946e-32
1.085958e-32
1.0862033e-32
1.0883251e-32
1.08653e-32
1.0860313e-32
1.08592e-32
1.0858979e-32
1.0858935e-32
1.0858946e-32
1.0859076e-32
1.085971e-32
1.0862164e-32
1.0883744e-32
1.0865887e-32
1.0860936e-32
1.0859831e-32
1.0859612e-32
1.0859569e-32
1.085958e-32
1.085971e-32
1.0860344e-32
1.0862799e-32
1.0885676e-32
1.0868227e-32
1.0863368e-32
1.0862281e-32
1.0862065e-32
1.0862022e-32
1.0862033e-32
1.0862164e-32
1.0862799e-32
1.0865263e-32
2.9204603e-32
2.9157816e-32
2.9144786e-32
2.9141871e-32
2.914129e-32
2.9141172e-32
2.9141184e-32
2.9141436e-32
2.9142688e-32
2.9147567e-32
2.9157816e-32
2.9111289e-32
2.9098321e-32
2.9095419e-32
2.9094841e-32
2.9094724e-32
2.9094744e-32
2.9095045e-32
2.9096547e-32
2.9102509e-32
2.9144786e-32
2.9098321e-32
2.9085374e-32
2.9082476e-32
2.9081899e-32
2.9081784e-32
2.9081809e-32
2.9082133e-32
2.9083729e-32
2.9089935e-32
2.9141871e-32
2.9095419e-32
2.9082476e-32
2.907958e-32
2.9079004e-32
2.9078889e-32
2.9078916e-32
2.9079247e-32
2.9080866e-32
2.9087119e-32
2.914129e-32
2.9094841e-32
2.9081899e-32
2.9079004e-32
2.9078427e-32
2.9078313e-32
2.907834e-32
2.9078673e-32
2.9080297e-32
2.9086558e-32
2.9141172e-32
2.9094724e-32
2.9081784e-32
2.9078889e-32
2.9078313e-32
2.9078198e-32
2.9078226e-32
2.9078559e-32
2.9080184e-32
2.9086446e-32
2.9141184e-32
2.9094744e-32
2.9081809e-32
2.9078916e-32
2.907834e-32
2.9078226e-32
2.9078254e-32
2.9078588e-32
2.9080213e-32
2.9086476e-32
2.9141436e-32
2.9095045e-32
2.9082133e-32
2.9079247e-32
2.9078673e-32
2.9078559e-32
2.9078588e-32
2.9078921e-32
2.9080547e-32
2.908681e-32
2.9142688e-32
2.9096547e-32
2.9083729e-32
2.9080866e-32
2.9080297e-32
2.9080184e-32
2.9080213e-32
2.9080547e-32
2.9082174e-32
2.9088441e-32
2.9147567e-32
2.9102509e-32
2.9089935e-32
2.9087119e-32
2.9086558e-32
2.9086446e-32
2.9086476e-32
2.908681e-32
2.9088441e-32
2.9094728e-32
7.938308e-32
7.9260391e-32
7.9226159e-32
7.9218492e-32
7.9216962e-32
7.9216649e-32
7.9216679e-32
7.921733e-32
7.9220557e-32
7.9233056e-32
7.9260391e-32
7.9138379e-32
7.9104307e-32
7.9096672e-32
7.9095148e-32
7.909484e-32
7.9094892e-32
7.9095674e-32
7.9099574e-32
7.9114994e-32
7.9226159e-32
7.9104307e-32
7.907029e-32
7.9062667e-32
7.9061147e-32
7.9060841e-32
7.9060906e-32
7.9061752e-32
7.9065905e-32
7.9081984e-32
7.9218492e-32
7.9096672e-32
7.9062667e-32
7.9055049e-32
7.905353e-32
7.9053226e-32
7.9053295e-32
7.9054159e-32
7.9058374e-32
7.907458e-32
7.9216962e-32
7.9095148e-32
7.9061147e-32
7.905353e-32
7.9052011e-32
7.9051708e-32
7.9051779e-32
7.9052648e-32
7.9056876e-32
7.9073102e-32
7.9216649e-32
7.909484e-32
7.9060841e-32
7.9053226e-32
7.9051708e-32
7.9051405e-32
7.9051478e-32
7.9052348e-32
7.9056578e-32
7.9072808e-32
7.9216679e-32
7.9094892e-32
7.9060906e-32
7.9053295e-32
7.9051779e-32
7.9051478e-32
7.9051551e-32
7.9052421e-32
7.9056652e-32
7.9072883e-32
7.921733e-32
7.9095674e-32
7.9061752e-32
7.9054159e-32
7.9052648e-32
7.9052348e-32
7.9052421e-32
7.9053292e-32
7.9057524e-32
7.9073757e-32
7.9220557e-32
7.9099574e-32
7.9065905e-32
7.9058374e-32
7.9056876e-32
7.9056578e-32
7.9056652e-32
7.9057524e-32
7.906176e-32
7.9078002e-32
7.9233056e-32
7.9114994e-32
7.9081984e-32
7.907458e-32
7.9073102e-32
7.9072808e-32
7.9072883e-32
7.9073757e-32
7.9078002e-32
7.9094296e-32
2.1906773e-31
2.1874126e-31
2.1865001e-31
2.1862954e-31
2.1862545e-31
2.1862461e-31
2.1862468e-31
2.1862639e-31
2.1863483e-31
2.1866734e-31
2.1874126e-31
2.1841657e-31
2.1832574e-31
2.1830536e-31
2.1830129e-31
2.1830046e-31
2.183006e-31
2.1830266e-31
2.1831294e-31
2.1835343e-31
2.1865001e-31
2.1832574e-31
2.1823505e-31
2.182147e-31
2.1821064e-31
2.1820982e-31
2.1820999e-31
2.1821223e-31
2.182232e-31
2.1826549e-31
2.1862954e-31
2.1830536e-31
2.182147e-31
2.1819437e-31
2.181903e-31
2.1818949e-31
2.1818967e-31
2.1819196e-31
2.182031e-31
2.1824574e-31
2.1862545e-31
2.1830129e-31
2.1821064e-31
2.181903e-31
2.1818624e-31
2.1818543e-31
2.1818562e-31
2.1818792e-31
2.181991e-31
2.182418e-31
2.1862461e-31
2.1830046e-31
2.1820982e-31
2.1818949e-31
2.1818543e-31
2.1818462e-31
2.1818481e-31
2.1818712e-31
2.181983e-31
2.1824101e-31
2.1862468e-31
2.183006e-31
2.1820999e-31
2.1818967e-31
2.1818562e-31
2.1818481e-31
2.18185e-31
2.1818731e-31
2.181985e-31
2.1824121e-31
2.1862639e-31
2.1830266e-31
2.1821223e-31
2.1819196e-31
2.1818792e-31
2.1818712e-31
2.1818731e-31
2.1818962e-31
2.1820081e-31
2.1824352e-31
2.1863483e-31
2.1831294e-31
2.182232e-31
2.182031e-31
2.181991e-31
2.181983e-31
2.181985e-31
2.1820081e-31
2.18212e-31
2.1825474e-31
2.1866734e-31
2.1835343e-31
2.1826549e-31
2.1824574e-31
2.182418e-31
2.1824101e-31
2.1824121e-31
2.1824352e-31
2.1825474e-31
2.1829762e-31
6.1378206e-31
6.1290052e-31
6.1265366e-31
6.1259823e-31
6.1258714e-31
6.1258486e-31
6.1258504e-31
6.1258959e-31
6.12612e-31
6.1269779e-31
6.1290052e-31
6.1202375e-31
6.1177802e-31
6.1172282e-31
6.1171177e-31
6.1170952e-31
6.1170988e-31
6.1171542e-31
6.1174293e-31
6.1185089e-31
6.1265366e-31
6.1177802e-31
6.1153268e-31
6.1147757e-31
6.1146654e-31
6.1146432e-31
6.1146477e-31
6.1147079e-31
6.1150022e-31
6.1161318e-31
6.1259823e-31
6.1172282e-31
6.1147757e-31
6.1142248e-31
6.1141147e-31
6.1140925e-31
6.1140974e-31
6.114159e-31
6.114458e-31
6.1155972e-31
6.1258714e-31
6.1171177e-31
6.1146654e-31
6.1141147e-31
6.1140045e-31
6.1139825e-31
6.1139875e-31
6.1140494e-31
6.1143494e-31
6.1154902e-31
6.1258486e-31
6.1170952e-31
6.1146432e-31
6.1140925e-31
6.1139825e-31
6.1139604e-31
6.1139655e-31
6.1140276e-31
6.1143277e-31
6.1154688e-31
6.1258504e-31
6.1170988e-31
6.1146477e-31
6.1140974e-31
6.1139875e-31
6.1139655e-31
6.1139707e-31
6.1140327e-31
6.1143329e-31
6.1154741e-31
6.1258959e-31
6.1171542e-31
6.1147079e-31
6.114159e-31
6.1140494e-31
6.1140276e-31
6.1140327e-31
6.1140949e-31
6.1143951e-31
6.1155364e-31
6.12612e-31
6.1174293e-31
6.1150022e-31
6.114458e-31
6.1143494e-31
6.1143277e-31
6.1143329e-31
6.1143951e-31
6.1146956e-31
6.1158376e-31
6.1269779e-31
6.1185089e-31
6.1161318e-31
6.1155972e-31
6.1154902e-31
6.1154688e-31
6.1154741e-31
6.1155364e-31
6.1158376e-31
6.1169829e-31
1.7459903e-30
1.7435748e-30
1.7428973e-30
1.7427449e-30
1.7427144e-30
1.7427081e-30
1.7427086e-30
1.7427209e-30
1.7427813e-30
1.7430111e-30
1.7435748e-30
1.7411723e-30
1.7404978e-30
1.7403461e-30
1.7403157e-30
1.7403095e-30
1.7403104e-30
1.7403255e-30
1.7404002e-30
1.7406925e-30
1.7428973e-30
1.7404978e-30
1.7398243e-30
1.7396728e-30
1.7396425e-30
1.7396364e-30
1.7396376e-30
1.739654e-30
1.7397342e-30
1.7400405e-30
1.7427449e-30
1.7403461e-30
1.7396728e-30
1.7395215e-30
1.7394911e-30
1.739485e-30
1.7394863e-30
1.7395032e-30
1.7395846e-30
1.7398937e-30
1.7427144e-30
1.7403157e-30
1.7396425e-30
1.7394911e-30
1.7394608e-30
1.7394547e-30
1.7394561e-30
1.739473e-30
1.7395547e-30
1.7398642e-30
1.7427081e-30
1.7403095e-30
1.7396364e-30
1.739485e-30
1.7394547e-30
1.7394486e-30
1.73945e-30
1.739467e-30
1.7395488e-30
1.7398583e-30
1.7427086e-30
1.7403104e-30
1.7396376e-30
1.7394863e-30
1.7394561e-30
1.73945e-30
1.7394514e-30
1.7394684e-30
1.7395502e-30
1.7398598e-30
1.7427209e-30
1.7403255e-30
1.739654e-30
1.7395032e-30
1.739473e-30
1.739467e-30
1.7394684e-30
1.7394854e-30
1.7395672e-30
1.7398768e-30
1.7427813e-30
1.7404002e-30
1.7397342e-30
1.7395846e-30
1.7395547e-30
1.7395488e-30
1.7395502e-30
1.7395672e-30
1.7396491e-30
1.7399589e-30
1.7430111e-30
1.7406925e-30
1.7400405e-30
1.7398937e-30
1.7398642e-30
1.7398583e-30
1.7398598e-30
1.7398768e-30
1.7399589e-30
1.7402696e-30
5.0426949e-30
5.0359787e-30
5.0340915e-30
5.0336667e-30
5.0335814e-30
5.0335638e-30
5.033565e-30
5.0335987e-30
5.0337639e-30
5.0343888e-30
5.0359787e-30
5.0292982e-30
5.0274194e-30
5.0269963e-30
5.0269114e-30
5.026894e-30
5.0268966e-30
5.0269383e-30
5.0271445e-30
5.0279479e-30
5.0340915e-30
5.0274194e-30
5.0255435e-30
5.0251211e-30
5.0250363e-30
5.0250192e-30
5.0250225e-30
5.0250681e-30
5.0252897e-30
5.0261332e-30
5.0336667e-30
5.0269963e-30
5.0251211e-30
5.0246989e-30
5.0246142e-30
5.0245971e-30
5.0246007e-30
5.0246474e-30
5.0248728e-30
5.0257241e-30
5.0335814e-30
5.0269114e-30
5.0250363e-30
5.0246142e-30
5.0245295e-30
5.0245125e-30
5.0245163e-30
5.0245632e-30
5.0247894e-30
5.0256419e-30
5.0335638e-30
5.026894e-30
5.0250192e-30
5.0245971e-30
5.0245125e-30
5.0244955e-30
5.0244993e-30
5.0245463e-30
5.0247727e-30
5.0256254e-30
5.033565e-30
5.0268966e-30
5.0250225e-30
5.0246007e-30
5.0245163e-30
5.0244993e-30
5.0245032e-30
5.0245502e-30
5.0247766e-30
5.0256294e-30
5.0335987e-30
5.0269383e-30
5.0250681e-30
5.0246474e-30
5.0245632e-30
5.0245463e-30
5.0245502e-30
5.0245973e-30
5.0248237e-30
5.0256766e-30
5.0337639e-30
5.0271445e-30
5.0252897e-30
5.0248728e-30
5.0247894e-30
5.0247727e-30
5.0247766e-30
5.0248237e-30
5.0250503e-30
5.0259037e-30
5.0343888e-30
5.0279479e-30
5.0261332e-30
5.0257241e-30
5.0256419e-30
5.0256254e-30
5.0256294e-30
5.0256766e-30
5.0259037e-30
5.0267596e-30
1.4786747e-29
1.4767798e-29
1.4762464e-29
1.4761262e-29
1.4761021e-29
1.476097e-29
1.4760974e-29
1.4761068e-29
1.4761526e-29
1.4763251e-29
1.4767798e-29
1.4748949e-29
1.4743639e-29
1.4742441e-29
1.4742201e-29
1.4742151e-29
1.4742159e-29
1.4742276e-29
1.4742853e-29
1.4745095e-29
1.4762464e-29
1.4743639e-29
1.4738337e-29
1.4737142e-29
1.4736901e-29
1.4736853e-29
1.4736862e-29
1.473699e-29
1.4737612e-29
1.4739971e-29
1.4761262e-29
1.4742441e-29
1.4737142e-29
1.4735947e-29
1.4735707e-29
1.4735658e-29
1.4735669e-29
1.47358e-29
1.4736433e-29
1.4738814e-29
1.4761021e-29
1.4742201e-29
1.4736901e-29
1.4735707e-29
1.4735467e-29
1.4735419e-29
1.4735429e-29
1.4735561e-29
1.4736197e-29
1.4738582e-29
1.476097e-29
1.4742151e-29
1.4736853e-29
1.4735658e-29
1.4735419e-29
1.473537e-29
1.4735381e-29
1.4735513e-29
1.4736149e-29
1.4738535e-29
1.4760974e-29
1.4742159e-29
1.4736862e-29
1.4735669e-29
1.4735429e-29
1.4735381e-29
1.4735392e-29
1.4735524e-29
1.473616e-29
1.4738546e-29
1.4761068e-29
1.4742276e-29
1.473699e-29
1.47358e-29
1.4735561e-29
1.4735513e-29
1.4735524e-29
1.4735657e-29
1.4736293e-29
1.4738679e-29
1.4761526e-29
1.4742853e-29
1.4737612e-29
1.4736433e-29
1.4736197e-29
1.4736149e-29
1.473616e-29
1.4736293e-29
1.473693e-29
1.4739317e-29
1.4763251e-29
1.4745095e-29
1.4739971e-29
1.4738814e-29
1.4738582e-29
1.4738535e-29
1.4738546e-29
1.4738679e-29
1.4739317e-29
1.4741711e-29
4.4021187e-29
4.3966941e-29
4.3951647e-29
4.3948197e-29
4.3947502e-29
4.3947358e-29
4.3947366e-29
4.3947632e-29
4.3948925e-29
4.3953756e-29
4.3966941e-29
4.3912978e-29
4.3897751e-29
4.3894314e-29
4.3893622e-29
4.389348e-29
4.38935e-29
4.3893834e-29
4.3895476e-29
4.390183e-29
4.3951647e-29
4.3897751e-29
4.3882547e-29
4.3879116e-29
4.3878425e-29
4.3878285e-29
4.3878312e-29
4.3878678e-29
4.3880452e-29
4.3887148e-29
4.3948197e-29
4.3894314e-29
4.3879116e-29
4.3875686e-29
4.3874996e-29
4.3874856e-29
4.3874885e-29
4.3875261e-29
4.3877067e-29
4.388383e-29
4.3947502e-29
4.3893622e-29
4.3878425e-29
4.3874996e-29
4.3874306e-29
4.3874167e-29
4.3874197e-29
4.3874575e-29
4.3876388e-29
4.3883161e-29
4.3947358e-29
4.389348e-29
4.3878285e-29
4.3874856e-29
4.3874167e-29
4.3874028e-29
4.3874058e-29
4.3874437e-29
4.3876251e-29
4.3883026e-29
4.3947366e-29
4.38935e-29
4.3878312e-29
4.3874885e-29
4.3874197e-29
4.3874058e-29
4.3874089e-29
4.3874468e-29
4.3876283e-29
4.3883058e-29
4.3947632e-29
4.3893834e-29
4.3878678e-29
4.3875261e-29
4.3874575e-29
4.3874437e-29
4.3874468e-29
4.3874848e-29
4.3876663e-29
4.3883439e-29
4.3948925e-29
4.3895476e-29
4.3880452e-29
4.3877067e-29
4.3876388e-29
4.3876251e-29
4.3876283e-29
4.3876663e-29
4.3878479e-29
4.3885259e-29
4.3953756e-29
4.390183e-29
4.3887148e-29
4.388383e-29
4.3883161e-29
4.3883026e-29
4.3883058e-29
4.3883439e-29
4.3885259e-29
4.3892058e-29
1.3304976e-28
1.3289219e-28
1.328477e-28
1.3283765e-28
1.3283563e-28
1.328352e-28
1.3283523e-28
1.3283599e-28
1.3283969e-28
1.3285343e-28
1.3289219e-28
1.3273545e-28
1.3269115e-28
1.3268114e-28
1.3267912e-28
1.326787e-28
1.3267876e-28
1.3267973e-28
1.3268447e-28
1.3270275e-28
1.328477e-28
1.3269115e-28
1.3264691e-28
1.3263692e-28
1.326349e-28
1.3263449e-28
1.3263457e-28
1.3263563e-28
1.3264077e-28
1.3266007e-28
1.3283765e-28
1.3268114e-28
1.3263692e-28
1.3262693e-28
1.3262492e-28
1.3262451e-28
1.3262459e-28
1.3262568e-28
1.3263091e-28
1.3265041e-28
1.3283563e-28
1.3267912e-28
1.326349e-28
1.3262492e-28
1.326229e-28
1.326225e-28
1.3262258e-28
1.3262368e-28
1.3262893e-28
1.3264847e-28
1.328352e-28
1.326787e-28
1.3263449e-28
1.3262451e-28
1.326225e-28
1.3262209e-28
1.3262218e-28
1.3262328e-28
1.3262853e-28
1.3264807e-28
1.3283523e-28
1.3267876e-28
1.3263457e-28
1.3262459e-28
1.3262258e-28
1.3262218e-28
1.3262227e-28
1.3262337e-28
1.3262862e-28
1.3264816e-28
1.3283599e-28
1.3267973e-28
1.3263563e-28
1.3262568e-28
1.3262368e-28
1.3262328e-28
1.3262337e-28
1.3262447e-28
1.3262973e-28
1.3264927e-28
1.3283969e-28
1.3268447e-28
1.3264077e-28
1.3263091e-28
1.3262893e-28
1.3262853e-28
1.3262862e-28
1.3262973e-28
1.3263499e-28
1.3265454e-28
1.3285343e-28
1.3270275e-28
1.3266007e-28
1.3265041e-28
1.3264847e-28
1.3264807e-28
1.3264816e-28
1.3264927e-28
1.3265454e-28
1.3267415e-28
4.0823222e-28
4.0776792e-28
4.076366e-28
4.0760691e-28
4.0760091e-28
4.0759966e-28
4.0759972e-28
4.0760195e-28
4.0761269e-28
4.0765233e-28
4.0776792e-28
4.07306e-28
4.0717524e-28
4.0714566e-28
4.0713969e-28
4.0713846e-28
4.0713863e-28
4.0714146e-28
4.0715536e-28
4.0720877e-28
4.076366e-28
4.0717524e-28
4.0704468e-28
4.0701515e-28
4.0700919e-28
4.0700797e-28
4.070082e-28
4.0701133e-28
4.0702642e-28
4.0708292e-28
4.0760691e-28
4.0714566e-28
4.0701515e-28
4.0698563e-28
4.0697968e-28
4.0697846e-28
4.0697871e-28
4.0698193e-28
4.0699731e-28
4.0705441e-28
4.0760091e-28
4.0713969e-28
4.0700919e-28
4.0697968e-28
4.0697373e-28
4.0697252e-28
4.0697277e-28
4.0697601e-28
4.0699145e-28
4.0704865e-28
4.0759966e-28
4.0713846e-28
4.0700797e-28
4.0697846e-28
4.0697252e-28
4.0697131e-28
4.0697157e-28
4.0697482e-28
4.0699027e-28
4.0704748e-28
4.0759972e-28
4.0713863e-28
4.070082e-28
4.0697871e-28
4.0697277e-28
4.0697157e-28
4.0697184e-28
4.0697508e-28
4.0699053e-28
4.0704775e-28
4.0760195e-28
4.0714146e-28
4.0701133e-28
4.0698193e-28
4.0697601e-28
4.0697482e-28
4.0697508e-28
4.0697833e-28
4.0699379e-28
4.0705101e-28
4.0761269e-28
4.0715536e-28
4.0702642e-28
4.0699731e-28
4.0699145e-28
4.0699027e-28
4.0699053e-28
4.0699379e-28
4.0700925e-28
4.0706651e-28
4.0765233e-28
4.0720877e-28
4.0708292e-28
4.0705441e-28
4.0704865e-28
4.0704748e-28
4.0704775e-28
4.0705101e-28
4.0706651e-28
4.0712391e-28
1.2714879e-27
1.2701e-27
1.2697068e-27
1.2696178e-27
1.2695998e-27
1.2695961e-27
1.2695962e-27
1.2696028e-27
1.2696345e-27
1.2697506e-27
1.2701e-27
1.2687191e-27
1.2683276e-27
1.2682389e-27
1.268221e-27
1.2682173e-27
1.2682178e-27
1.2682263e-27
1.2682676e-27
1.268426e-27
1.2697068e-27
1.2683276e-27
1.2679367e-27
1.2678482e-27
1.2678303e-27
1.2678266e-27
1.2678273e-27
1.2678367e-27
1.2678817e-27
1.2680496e-27
1.2696178e-27
1.2682389e-27
1.2678482e-27
1.2677597e-27
1.2677418e-27
1.2677382e-27
1.2677389e-27
1.2677485e-27
1.2677944e-27
1.2679642e-27
1.2695998e-27
1.268221e-27
1.2678303e-27
1.2677418e-27
1.267724e-27
1.2677203e-27
1.2677211e-27
1.2677308e-27
1.2677769e-27
1.2679469e-27
1.2695961e-27
1.2682173e-27
1.2678266e-27
1.2677382e-27
1.2677203e-27
1.2677167e-27
1.2677175e-27
1.2677272e-27
1.2677733e-27
1.2679434e-27
1.2695962e-27
1.2682178e-27
1.2678273e-27
1.2677389e-27
1.2677211e-27
1.2677175e-27
1.2677183e-27
1.267728e-27
1.2677741e-27
1.2679442e-27
1.2696028e-27
1.2682263e-27
1.2678367e-27
1.2677485e-27
1.2677308e-27
1.2677272e-27
1.267728e-27
1.2677377e-27
1.2677838e-27
1.267954e-27
1.2696345e-27
1.2682676e-27
1.2678817e-27
1.2677944e-27
1.2677769e-27
1.2677733e-27
1.2677741e-27
1.2677838e-27
1.26783e-27
1.2680002e-27
1.2697506e-27
1.268426e-27
1.2680496e-27
1.2679642e-27
1.2679469e-27
1.2679434e-27
1.2679442e-27