/*--------------------------------*- C++ -*----------------------------------*\
| =========                 |                                                 |
| \\      /  F ield         | OpenFOAM: The Open Source CFD Toolbox           |
|  \\    /   O peration     | Version:  dev                                   |
|   \\  /    A nd           | Web:      www.OpenFOAM.org                      |
|    \\/     M anipulation  |                                                 |
\*---------------------------------------------------------------------------*/
FoamFile
{
    version     2.0;
    format      ascii;
    class       volScalarField;
    location    "41.995";
    object      A_0;
}
// * * * * * * * * * * * * * * * * * * * * * * * * * * * * * * * * * * * * * //

dimensions      [0 0 0 0 1 0 0];

internalField   nonuniform List<scalar> 
10000
(
1.6284537e-36
1.6247655e-36
1.6237947e-36
1.623582e-36
1.6235403e-36
1.6235321e-36
1.6235336e-36
1.6235553e-36
1.6236652e-36
1.6240723e-36
1.6247655e-36
1.6211002e-36
1.6201346e-36
1.619923e-36
1.6198816e-36
1.6198734e-36
1.6198754e-36
1.6199e-36
1.6200246e-36
1.620495e-36
1.6237947e-36
1.6201346e-36
1.6191708e-36
1.6189595e-36
1.6189182e-36
1.6189101e-36
1.6189124e-36
1.6189384e-36
1.6190685e-36
1.6195533e-36
1.623582e-36
1.619923e-36
1.6189595e-36
1.6187484e-36
1.6187071e-36
1.618699e-36
1.6187014e-36
1.6187278e-36
1.6188593e-36
1.6193469e-36
1.6235403e-36
1.6198816e-36
1.6189182e-36
1.6187071e-36
1.6186658e-36
1.6186578e-36
1.6186602e-36
1.6186867e-36
1.6188185e-36
1.6193065e-36
1.6235321e-36
1.6198734e-36
1.6189101e-36
1.618699e-36
1.6186578e-36
1.6186498e-36
1.6186522e-36
1.6186787e-36
1.6188106e-36
1.6192987e-36
1.6235336e-36
1.6198754e-36
1.6189124e-36
1.6187014e-36
1.6186602e-36
1.6186522e-36
1.6186546e-36
1.6186812e-36
1.6188131e-36
1.6193012e-36
1.6235553e-36
1.6199e-36
1.6189384e-36
1.6187278e-36
1.6186867e-36
1.6186787e-36
1.6186812e-36
1.6187078e-36
1.6188397e-36
1.6193278e-36
1.6236652e-36
1.6200246e-36
1.6190685e-36
1.6188593e-36
1.6188185e-36
1.6188106e-36
1.6188131e-36
1.6188397e-36
1.6189717e-36
1.6194602e-36
1.6240723e-36
1.620495e-36
1.6195533e-36
1.6193469e-36
1.6193065e-36
1.6192987e-36
1.6193012e-36
1.6193278e-36
1.6194602e-36
1.6199504e-36
6.1551529e-36
6.1417791e-36
6.1381693e-36
6.1373764e-36
6.1372211e-36
6.1371903e-36
6.1371956e-36
6.137276e-36
6.1376842e-36
6.1392737e-36
6.1417791e-36
6.1284868e-36
6.1248962e-36
6.1241072e-36
6.1239527e-36
6.1239223e-36
6.1239295e-36
6.1240208e-36
6.1244845e-36
6.1263141e-36
6.1381693e-36
6.1248962e-36
6.1213119e-36
6.1205244e-36
6.1203702e-36
6.12034e-36
6.1203483e-36
6.1204447e-36
6.1209295e-36
6.1228134e-36
6.1373764e-36
6.1241072e-36
6.1205244e-36
6.1197372e-36
6.1195831e-36
6.1195531e-36
6.1195618e-36
6.1196598e-36
6.1201497e-36
6.1220439e-36
6.1372211e-36
6.1239527e-36
6.1203702e-36
6.1195831e-36
6.1194291e-36
6.1193991e-36
6.119408e-36
6.1195064e-36
6.1199973e-36
6.1218933e-36
6.1371903e-36
6.1239223e-36
6.12034e-36
6.1195531e-36
6.1193991e-36
6.1193692e-36
6.1193782e-36
6.1194767e-36
6.1199678e-36
6.1218641e-36
6.1371956e-36
6.1239295e-36
6.1203483e-36
6.1195618e-36
6.119408e-36
6.1193782e-36
6.1193871e-36
6.1194857e-36
6.1199769e-36
6.1218733e-36
6.137276e-36
6.1240208e-36
6.1204447e-36
6.1196598e-36
6.1195064e-36
6.1194767e-36
6.1194857e-36
6.1195843e-36
6.1200756e-36
6.1219722e-36
6.1376842e-36
6.1244845e-36
6.1209295e-36
6.1201497e-36
6.1199973e-36
6.1199678e-36
6.1199769e-36
6.1200756e-36
6.1205674e-36
6.1224653e-36
6.1392737e-36
6.1263141e-36
6.1228134e-36
6.1220439e-36
6.1218933e-36
6.1218641e-36
6.1218733e-36
6.1219722e-36
6.1224653e-36
6.1243699e-36
1.5654373e-35
1.5621493e-35
1.5612542e-35
1.5610571e-35
1.5610185e-35
1.5610108e-35
1.561012e-35
1.5610318e-35
1.5611321e-35
1.5615362e-35
1.5621493e-35
1.5588811e-35
1.5579907e-35
1.5577946e-35
1.5577561e-35
1.5577485e-35
1.5577503e-35
1.5577727e-35
1.5578872e-35
1.5583522e-35
1.5612542e-35
1.5579907e-35
1.5571018e-35
1.556906e-35
1.5568677e-35
1.5568601e-35
1.5568621e-35
1.5568859e-35
1.5570057e-35
1.5574844e-35
1.5610571e-35
1.5577946e-35
1.556906e-35
1.5567104e-35
1.5566721e-35
1.5566646e-35
1.5566667e-35
1.5566908e-35
1.5568119e-35
1.5572933e-35
1.5610185e-35
1.5577561e-35
1.5568677e-35
1.5566721e-35
1.5566337e-35
1.5566262e-35
1.5566284e-35
1.5566527e-35
1.556774e-35
1.5572558e-35
1.5610108e-35
1.5577485e-35
1.5568601e-35
1.5566646e-35
1.5566262e-35
1.5566188e-35
1.556621e-35
1.5566452e-35
1.5567666e-35
1.5572485e-35
1.561012e-35
1.5577503e-35
1.5568621e-35
1.5566667e-35
1.5566284e-35
1.556621e-35
1.5566232e-35
1.5566475e-35
1.5567688e-35
1.5572508e-35
1.5610318e-35
1.5577727e-35
1.5568859e-35
1.5566908e-35
1.5566527e-35
1.5566452e-35
1.5566475e-35
1.5566718e-35
1.5567932e-35
1.5572752e-35
1.5611321e-35
1.5578872e-35
1.5570057e-35
1.5568119e-35
1.556774e-35
1.5567666e-35
1.5567688e-35
1.5567932e-35
1.5569147e-35
1.557397e-35
1.5615362e-35
1.5583522e-35
1.5574844e-35
1.5572933e-35
1.5572558e-35
1.5572485e-35
1.5572508e-35
1.5572752e-35
1.557397e-35
1.5578811e-35
3.822527e-35
3.8147577e-35
3.8126344e-35
3.8121662e-35
3.8120742e-35
3.8120559e-35
3.8120588e-35
3.8121048e-35
3.812339e-35
3.8132878e-35
3.8147577e-35
3.8070347e-35
3.8049224e-35
3.8044564e-35
3.8043649e-35
3.8043468e-35
3.8043508e-35
3.8044035e-35
3.804672e-35
3.8057688e-35
3.8126344e-35
3.8049224e-35
3.8028137e-35
3.8023486e-35
3.8022573e-35
3.8022393e-35
3.802244e-35
3.8022999e-35
3.8025813e-35
3.8037115e-35
3.8121662e-35
3.8044564e-35
3.8023486e-35
3.8018838e-35
3.8017925e-35
3.8017746e-35
3.8017795e-35
3.8018363e-35
3.8021209e-35
3.8032575e-35
3.8120742e-35
3.8043649e-35
3.8022573e-35
3.8017925e-35
3.8017012e-35
3.8016834e-35
3.8016884e-35
3.8017455e-35
3.8020307e-35
3.8031684e-35
3.8120559e-35
3.8043468e-35
3.8022393e-35
3.8017746e-35
3.8016834e-35
3.8016656e-35
3.8016706e-35
3.8017278e-35
3.8020131e-35
3.803151e-35
3.8120588e-35
3.8043508e-35
3.802244e-35
3.8017795e-35
3.8016884e-35
3.8016706e-35
3.8016757e-35
3.8017329e-35
3.8020183e-35
3.8031562e-35
3.8121048e-35
3.8044035e-35
3.8022999e-35
3.8018363e-35
3.8017455e-35
3.8017278e-35
3.8017329e-35
3.8017901e-35
3.8020755e-35
3.8032136e-35
3.812339e-35
3.804672e-35
3.8025813e-35
3.8021209e-35
3.8020307e-35
3.8020131e-35
3.8020183e-35
3.8020755e-35
3.8023612e-35
3.8035001e-35
3.8132878e-35
3.8057688e-35
3.8037115e-35
3.8032575e-35
3.8031684e-35
3.803151e-35
3.8031562e-35
3.8032136e-35
3.8035001e-35
3.8046429e-35
9.383814e-35
9.3653585e-35
9.3603024e-35
9.3591857e-35
9.358966e-35
9.3589219e-35
9.3589285e-35
9.3590362e-35
9.3595835e-35
9.3617941e-35
9.3653585e-35
9.347012e-35
9.3419817e-35
9.3408703e-35
9.3406516e-35
9.3406081e-35
9.3406175e-35
9.3407415e-35
9.3413724e-35
9.3439448e-35
9.3603024e-35
9.3419817e-35
9.3369598e-35
9.3358505e-35
9.3356322e-35
9.3355891e-35
9.3356001e-35
9.3357319e-35
9.3363942e-35
9.3390483e-35
9.3591857e-35
9.3408703e-35
9.3358505e-35
9.3347416e-35
9.3345236e-35
9.3344807e-35
9.3344922e-35
9.3346263e-35
9.3352963e-35
9.337966e-35
9.358966e-35
9.3406516e-35
9.3356322e-35
9.3345236e-35
9.3343056e-35
9.3342628e-35
9.3342745e-35
9.3344092e-35
9.3350808e-35
9.3377531e-35
9.3589219e-35
9.3406081e-35
9.3355891e-35
9.3344807e-35
9.3342628e-35
9.3342201e-35
9.334232e-35
9.3343668e-35
9.3350387e-35
9.3377114e-35
9.3589285e-35
9.3406175e-35
9.3356001e-35
9.3344922e-35
9.3342745e-35
9.334232e-35
9.3342439e-35
9.3343788e-35
9.3350508e-35
9.3377236e-35
9.3590362e-35
9.3407415e-35
9.3357319e-35
9.3346263e-35
9.3344092e-35
9.3343668e-35
9.3343788e-35
9.3345139e-35
9.335186e-35
9.3378592e-35
9.3595835e-35
9.3413724e-35
9.3363942e-35
9.3352963e-35
9.3350808e-35
9.3350387e-35
9.3350508e-35
9.335186e-35
9.3358588e-35
9.3385337e-35
9.3617941e-35
9.3439448e-35
9.3390483e-35
9.337966e-35
9.3377531e-35
9.3377114e-35
9.3377236e-35
9.3378592e-35
9.3385337e-35
9.341218e-35
2.3340648e-34
2.3296243e-34
2.3284052e-34
2.3281355e-34
2.3280824e-34
2.3280717e-34
2.3280732e-34
2.3280987e-34
2.3282281e-34
2.328748e-34
2.3296243e-34
2.3252099e-34
2.3239969e-34
2.3237285e-34
2.3236756e-34
2.323665e-34
2.3236672e-34
2.3236968e-34
2.3238468e-34
2.3244563e-34
2.3284052e-34
2.3239969e-34
2.3227859e-34
2.322518e-34
2.3224652e-34
2.3224547e-34
2.3224573e-34
2.3224888e-34
2.3226466e-34
2.3232763e-34
2.3281355e-34
2.3237285e-34
2.322518e-34
2.3222502e-34
2.3221975e-34
2.3221871e-34
2.3221898e-34
2.3222218e-34
2.3223815e-34
2.3230151e-34
2.3280824e-34
2.3236756e-34
2.3224652e-34
2.3221975e-34
2.3221447e-34
2.3221343e-34
2.3221371e-34
2.3221693e-34
2.3223294e-34
2.3229636e-34
2.3280717e-34
2.323665e-34
2.3224547e-34
2.3221871e-34
2.3221343e-34
2.322124e-34
2.3221268e-34
2.322159e-34
2.3223192e-34
2.3229535e-34
2.3280732e-34
2.3236672e-34
2.3224573e-34
2.3221898e-34
2.3221371e-34
2.3221268e-34
2.3221296e-34
2.3221619e-34
2.322322e-34
2.3229564e-34
2.3280987e-34
2.3236968e-34
2.3224888e-34
2.3222218e-34
2.3221693e-34
2.322159e-34
2.3221619e-34
2.3221941e-34
2.3223544e-34
2.3229888e-34
2.3282281e-34
2.3238468e-34
2.3226466e-34
2.3223815e-34
2.3223294e-34
2.3223192e-34
2.322322e-34
2.3223544e-34
2.3225147e-34
2.3231495e-34
2.328748e-34
2.3244563e-34
2.3232763e-34
2.3230151e-34
2.3229636e-34
2.3229535e-34
2.3229564e-34
2.3229888e-34
2.3231495e-34
2.3237866e-34
5.8905432e-34
5.8797075e-34
5.8767264e-34
5.8760661e-34
5.8759357e-34
5.8759094e-34
5.8759129e-34
5.8759742e-34
5.8762842e-34
5.8775238e-34
5.8797075e-34
5.8689345e-34
5.8659682e-34
5.865311e-34
5.8651812e-34
5.8651553e-34
5.8651605e-34
5.8652319e-34
5.8655937e-34
5.867058e-34
5.8767264e-34
5.8659682e-34
5.8630069e-34
5.8623508e-34
5.8622213e-34
5.8621956e-34
5.8622017e-34
5.862278e-34
5.8626593e-34
5.8641742e-34
5.8760661e-34
5.865311e-34
5.8623508e-34
5.861695e-34
5.8615656e-34
5.86154e-34
5.8615466e-34
5.8616242e-34
5.8620103e-34
5.8635349e-34
5.8759357e-34
5.8651812e-34
5.8622213e-34
5.8615656e-34
5.8614363e-34
5.8614108e-34
5.8614174e-34
5.8614955e-34
5.8618824e-34
5.8634086e-34
5.8759094e-34
5.8651553e-34
5.8621956e-34
5.86154e-34
5.8614108e-34
5.8613853e-34
5.861392e-34
5.8614702e-34
5.8618574e-34
5.8633838e-34
5.8759129e-34
5.8651605e-34
5.8622017e-34
5.8615466e-34
5.8614174e-34
5.861392e-34
5.8613988e-34
5.861477e-34
5.8618642e-34
5.8633907e-34
5.8759742e-34
5.8652319e-34
5.862278e-34
5.8616242e-34
5.8614955e-34
5.8614702e-34
5.861477e-34
5.8615552e-34
5.8619426e-34
5.8634693e-34
5.8762842e-34
5.8655937e-34
5.8626593e-34
5.8620103e-34
5.8618824e-34
5.8618574e-34
5.8618642e-34
5.8619426e-34
5.8623302e-34
5.8638579e-34
5.8775238e-34
5.867058e-34
5.8641742e-34
5.8635349e-34
5.8634086e-34
5.8633838e-34
5.8633907e-34
5.8634693e-34
5.8638579e-34
5.8653908e-34
1.5088121e-33
1.5061296e-33
1.5053901e-33
1.5052261e-33
1.5051937e-33
1.5051871e-33
1.5051879e-33
1.5052029e-33
1.5052783e-33
1.505578e-33
1.5061296e-33
1.5034625e-33
1.5027267e-33
1.5025634e-33
1.5025311e-33
1.5025246e-33
1.5025259e-33
1.5025434e-33
1.5026319e-33
1.5029889e-33
1.5053901e-33
1.5027267e-33
1.501992e-33
1.501829e-33
1.5017968e-33
1.5017904e-33
1.5017919e-33
1.5018106e-33
1.5019041e-33
1.5022739e-33
1.5052261e-33
1.5025634e-33
1.501829e-33
1.5016661e-33
1.5016339e-33
1.5016275e-33
1.5016291e-33
1.5016482e-33
1.5017429e-33
1.5021152e-33
1.5051937e-33
1.5025311e-33
1.5017968e-33
1.5016339e-33
1.5016017e-33
1.5015954e-33
1.501597e-33
1.5016162e-33
1.5017111e-33
1.5020838e-33
1.5051871e-33
1.5025246e-33
1.5017904e-33
1.5016275e-33
1.5015954e-33
1.501589e-33
1.5015907e-33
1.5016099e-33
1.5017049e-33
1.5020776e-33
1.5051879e-33
1.5025259e-33
1.5017919e-33
1.5016291e-33
1.501597e-33
1.5015907e-33
1.5015923e-33
1.5016115e-33
1.5017066e-33
1.5020793e-33
1.5052029e-33
1.5025434e-33
1.5018106e-33
1.5016482e-33
1.5016162e-33
1.5016099e-33
1.5016115e-33
1.5016308e-33
1.5017258e-33
1.5020986e-33
1.5052783e-33
1.5026319e-33
1.5019041e-33
1.5017429e-33
1.5017111e-33
1.5017049e-33
1.5017066e-33
1.5017258e-33
1.5018209e-33
1.502194e-33
1.505578e-33
1.5029889e-33
1.5022739e-33
1.5021152e-33
1.5020838e-33
1.5020776e-33
1.5020793e-33
1.5020986e-33
1.502194e-33
1.5025683e-33
3.9228303e-33
3.9160925e-33
3.9142314e-33
3.9138181e-33
3.9137362e-33
3.9137196e-33
3.9137215e-33
3.9137585e-33
3.9139444e-33
3.9146798e-33
3.9160925e-33
3.909393e-33
3.907541e-33
3.9071295e-33
3.907048e-33
3.9070316e-33
3.9070346e-33
3.9070782e-33
3.9072982e-33
3.9081813e-33
3.9142314e-33
3.907541e-33
3.905692e-33
3.9052812e-33
3.9051999e-33
3.9051836e-33
3.9051873e-33
3.9052341e-33
3.9054668e-33
3.9063831e-33
3.9138181e-33
3.9071295e-33
3.9052812e-33
3.9048706e-33
3.9047893e-33
3.9047732e-33
3.9047771e-33
3.9048248e-33
3.9050606e-33
3.9059833e-33
3.9137362e-33
3.907048e-33
3.9051999e-33
3.9047893e-33
3.9047081e-33
3.904692e-33
3.904696e-33
3.9047439e-33
3.9049803e-33
3.9059041e-33
3.9137196e-33
3.9070316e-33
3.9051836e-33
3.9047732e-33
3.904692e-33
3.9046759e-33
3.9046799e-33
3.9047279e-33
3.9049645e-33
3.9058885e-33
3.9137215e-33
3.9070346e-33
3.9051873e-33
3.9047771e-33
3.904696e-33
3.9046799e-33
3.904684e-33
3.9047321e-33
3.9049687e-33
3.9058927e-33
3.9137585e-33
3.9070782e-33
3.9052341e-33
3.9048248e-33
3.9047439e-33
3.9047279e-33
3.9047321e-33
3.9047801e-33
3.9050168e-33
3.9059409e-33
3.9139444e-33
3.9072982e-33
3.9054668e-33
3.9050606e-33
3.9049803e-33
3.9049645e-33
3.9049687e-33
3.9050168e-33
3.9052536e-33
3.9061783e-33
3.9146798e-33
3.9081813e-33
3.9063831e-33
3.9059833e-33
3.9059041e-33
3.9058885e-33
3.9058927e-33
3.9059409e-33
3.9061783e-33
3.9071061e-33
1.0353315e-32
1.0336144e-32
1.0331392e-32
1.0330335e-32
1.0330125e-32
1.0330082e-32
1.0330087e-32
1.033018e-32
1.0330645e-32
1.0332476e-32
1.0336144e-32
1.0319069e-32
1.031434e-32
1.0313287e-32
1.0313079e-32
1.0313037e-32
1.0313044e-32
1.0313154e-32
1.0313709e-32
1.0315927e-32
1.0331392e-32
1.031434e-32
1.0309618e-32
1.0308567e-32
1.0308359e-32
1.0308317e-32
1.0308327e-32
1.0308445e-32
1.0309033e-32
1.0311338e-32
1.0330335e-32
1.0313287e-32
1.0308567e-32
1.0307517e-32
1.0307309e-32
1.0307268e-32
1.0307278e-32
1.0307399e-32
1.0307995e-32
1.0310316e-32
1.0330125e-32
1.0313079e-32
1.0308359e-32
1.0307309e-32
1.0307101e-32
1.030706e-32
1.030707e-32
1.0307191e-32
1.0307789e-32
1.0310113e-32
1.0330082e-32
1.0313037e-32
1.0308317e-32
1.0307268e-32
1.030706e-32
1.0307019e-32
1.0307029e-32
1.030715e-32
1.0307748e-32
1.0310073e-32
1.0330087e-32
1.0313044e-32
1.0308327e-32
1.0307278e-32
1.030707e-32
1.0307029e-32
1.0307039e-32
1.0307161e-32
1.0307759e-32
1.0310084e-32
1.033018e-32
1.0313154e-32
1.0308445e-32
1.0307399e-32
1.0307191e-32
1.030715e-32
1.0307161e-32
1.0307283e-32
1.0307881e-32
1.0310206e-32
1.0330645e-32
1.0313709e-32
1.0309033e-32
1.0307995e-32
1.0307789e-32
1.0307748e-32
1.0307759e-32
1.0307881e-32
1.030848e-32
1.0310806e-32
1.0332476e-32
1.0315927e-32
1.0311338e-32
1.0310316e-32
1.0310113e-32
1.0310073e-32
1.0310084e-32
1.0310206e-32
1.0310806e-32
1.0313141e-32
2.7739595e-32
2.7695189e-32
2.7682877e-32
2.7680135e-32
2.767959e-32
2.7679479e-32
2.767949e-32
2.7679727e-32
2.7680909e-32
2.7685535e-32
2.7695189e-32
2.7651031e-32
2.7638777e-32
2.7636047e-32
2.7635505e-32
2.7635395e-32
2.7635414e-32
2.7635696e-32
2.7637115e-32
2.764277e-32
2.7682877e-32
2.7638777e-32
2.7626542e-32
2.7623817e-32
2.7623276e-32
2.7623167e-32
2.7623191e-32
2.7623495e-32
2.7625003e-32
2.7630889e-32
2.7680135e-32
2.7636047e-32
2.7623817e-32
2.7621093e-32
2.7620552e-32
2.7620444e-32
2.7620469e-32
2.762078e-32
2.7622309e-32
2.762824e-32
2.767959e-32
2.7635505e-32
2.7623276e-32
2.7620552e-32
2.7620012e-32
2.7619904e-32
2.7619929e-32
2.7620242e-32
2.7621776e-32
2.7627713e-32
2.7679479e-32
2.7635395e-32
2.7623167e-32
2.7620444e-32
2.7619904e-32
2.7619796e-32
2.7619822e-32
2.7620135e-32
2.762167e-32
2.7627608e-32
2.767949e-32
2.7635414e-32
2.7623191e-32
2.7620469e-32
2.7619929e-32
2.7619822e-32
2.7619848e-32
2.7620162e-32
2.7621696e-32
2.7627635e-32
2.7679727e-32
2.7635696e-32
2.7623495e-32
2.762078e-32
2.7620242e-32
2.7620135e-32
2.7620162e-32
2.7620475e-32
2.762201e-32
2.762795e-32
2.7680909e-32
2.7637115e-32
2.7625003e-32
2.7622309e-32
2.7621776e-32
2.762167e-32
2.7621696e-32
2.762201e-32
2.7623547e-32
2.762949e-32
2.7685535e-32
2.764277e-32
2.7630889e-32
2.762824e-32
2.7627713e-32
2.7627608e-32
2.7627635e-32
2.762795e-32
2.762949e-32
2.7635452e-32
7.5453989e-32
7.5337464e-32
7.5305095e-32
7.5297877e-32
7.5296441e-32
7.5296147e-32
7.5296174e-32
7.5296786e-32
7.5299836e-32
7.5311695e-32
7.5337464e-32
7.5221583e-32
7.5189365e-32
7.5182178e-32
7.5180748e-32
7.5180458e-32
7.5180506e-32
7.5181242e-32
7.5184929e-32
7.5199564e-32
7.5305095e-32
7.5189365e-32
7.5157198e-32
7.5150023e-32
7.5148596e-32
7.5148309e-32
7.5148369e-32
7.5149164e-32
7.515309e-32
7.5168349e-32
7.5297877e-32
7.5182178e-32
7.5150023e-32
7.5142852e-32
7.5141426e-32
7.514114e-32
7.5141205e-32
7.5142017e-32
7.5146001e-32
7.516138e-32
7.5296441e-32
7.5180748e-32
7.5148596e-32
7.5141426e-32
7.514e-32
7.5139715e-32
7.5139782e-32
7.5140598e-32
7.5144594e-32
7.5159992e-32
7.5296147e-32
7.5180458e-32
7.5148309e-32
7.514114e-32
7.5139715e-32
7.5139431e-32
7.5139498e-32
7.5140316e-32
7.5144314e-32
7.5159716e-32
7.5296174e-32
7.5180506e-32
7.5148369e-32
7.5141205e-32
7.5139782e-32
7.5139498e-32
7.5139566e-32
7.5140384e-32
7.5144383e-32
7.5159786e-32
7.5296786e-32
7.5181242e-32
7.5149164e-32
7.5142017e-32
7.5140598e-32
7.5140316e-32
7.5140384e-32
7.5141203e-32
7.5145203e-32
7.5160607e-32
7.5299836e-32
7.5184929e-32
7.515309e-32
7.5146001e-32
7.5144594e-32
7.5144314e-32
7.5144383e-32
7.5145203e-32
7.5149207e-32
7.516462e-32
7.5311695e-32
7.5199564e-32
7.5168349e-32
7.516138e-32
7.5159992e-32
7.5159716e-32
7.5159786e-32
7.5160607e-32
7.516462e-32
7.5180082e-32
2.0837321e-31
2.0806293e-31
2.0797657e-31
2.079573e-31
2.0795345e-31
2.0795266e-31
2.0795273e-31
2.0795434e-31
2.0796232e-31
2.0799318e-31
2.0806293e-31
2.0775434e-31
2.0766839e-31
2.0764919e-31
2.0764536e-31
2.0764458e-31
2.0764471e-31
2.0764665e-31
2.0765638e-31
2.0769484e-31
2.0797657e-31
2.0766839e-31
2.0758257e-31
2.075634e-31
2.0755958e-31
2.0755881e-31
2.0755897e-31
2.0756108e-31
2.0757146e-31
2.0761162e-31
2.079573e-31
2.0764919e-31
2.075634e-31
2.0754425e-31
2.0754043e-31
2.0753966e-31
2.0753983e-31
2.0754199e-31
2.0755253e-31
2.0759302e-31
2.0795345e-31
2.0764536e-31
2.0755958e-31
2.0754043e-31
2.0753662e-31
2.0753585e-31
2.0753603e-31
2.0753819e-31
2.0754876e-31
2.0758931e-31
2.0795266e-31
2.0764458e-31
2.0755881e-31
2.0753966e-31
2.0753585e-31
2.0753509e-31
2.0753527e-31
2.0753744e-31
2.0754801e-31
2.0758857e-31
2.0795273e-31
2.0764471e-31
2.0755897e-31
2.0753983e-31
2.0753603e-31
2.0753527e-31
2.0753545e-31
2.0753762e-31
2.075482e-31
2.0758875e-31
2.0795434e-31
2.0764665e-31
2.0756108e-31
2.0754199e-31
2.0753819e-31
2.0753744e-31
2.0753762e-31
2.0753979e-31
2.0755037e-31
2.0759093e-31
2.0796232e-31
2.0765638e-31
2.0757146e-31
2.0755253e-31
2.0754876e-31
2.0754801e-31
2.075482e-31
2.0755037e-31
2.0756096e-31
2.0760155e-31
2.0799318e-31
2.0769484e-31
2.0761162e-31
2.0759302e-31
2.0758931e-31
2.0758857e-31
2.0758875e-31
2.0759093e-31
2.0760155e-31
2.0764226e-31
5.8423912e-31
5.8340068e-31
5.8316693e-31
5.8311467e-31
5.8310424e-31
5.831021e-31
5.8310227e-31
5.8310655e-31
5.8312775e-31
5.8320926e-31
5.8340068e-31
5.8256678e-31
5.823341e-31
5.8228206e-31
5.8227168e-31
5.8226956e-31
5.8226989e-31
5.8227511e-31
5.8230115e-31
5.8240376e-31
5.8316693e-31
5.823341e-31
5.8210178e-31
5.8204983e-31
5.8203946e-31
5.8203737e-31
5.8203779e-31
5.8204346e-31
5.8207131e-31
5.8217866e-31
5.8311467e-31
5.8228206e-31
5.8204983e-31
5.819979e-31
5.8198755e-31
5.8198546e-31
5.8198591e-31
5.8199171e-31
5.8202001e-31
5.8212827e-31
5.8310424e-31
5.8227168e-31
5.8203946e-31
5.8198755e-31
5.8197719e-31
5.8197511e-31
5.8197558e-31
5.8198141e-31
5.820098e-31
5.8211821e-31
5.831021e-31
5.8226956e-31
5.8203737e-31
5.8198546e-31
5.8197511e-31
5.8197304e-31
5.8197351e-31
5.8197936e-31
5.8200776e-31
5.8211619e-31
5.8310227e-31
5.8226989e-31
5.8203779e-31
5.8198591e-31
5.8197558e-31
5.8197351e-31
5.8197399e-31
5.8197984e-31
5.8200825e-31
5.8211669e-31
5.8310655e-31
5.8227511e-31
5.8204346e-31
5.8199171e-31
5.8198141e-31
5.8197936e-31
5.8197984e-31
5.8198569e-31
5.8201411e-31
5.8212255e-31
5.8312775e-31
5.8230115e-31
5.8207131e-31
5.8202001e-31
5.820098e-31
5.8200776e-31
5.8200825e-31
5.8201411e-31
5.8204255e-31
5.8215106e-31
5.8320926e-31
5.8240376e-31
5.8217866e-31
5.8212827e-31
5.8211821e-31
5.8211619e-31
5.8211669e-31
5.8212255e-31
5.8215106e-31
5.822599e-31
1.6631636e-30
1.6608645e-30
1.6602224e-30
1.6600787e-30
1.66005e-30
1.6600441e-30
1.6600445e-30
1.6600561e-30
1.6601133e-30
1.6603318e-30
1.6608645e-30
1.6585778e-30
1.6579386e-30
1.6577955e-30
1.6577669e-30
1.6577611e-30
1.657762e-30
1.6577762e-30
1.657847e-30
1.658125e-30
1.6602224e-30
1.6579386e-30
1.6573005e-30
1.6571576e-30
1.657129e-30
1.6571232e-30
1.6571244e-30
1.6571399e-30
1.6572158e-30
1.6575071e-30
1.6600787e-30
1.6577955e-30
1.6571576e-30
1.6570148e-30
1.6569862e-30
1.6569805e-30
1.6569817e-30
1.6569976e-30
1.6570747e-30
1.6573686e-30
1.66005e-30
1.6577669e-30
1.657129e-30
1.6569862e-30
1.6569577e-30
1.656952e-30
1.6569532e-30
1.6569692e-30
1.6570466e-30
1.6573409e-30
1.6600441e-30
1.6577611e-30
1.6571232e-30
1.6569805e-30
1.656952e-30
1.6569463e-30
1.6569475e-30
1.6569635e-30
1.657041e-30
1.6573353e-30
1.6600445e-30
1.657762e-30
1.6571244e-30
1.6569817e-30
1.6569532e-30
1.6569475e-30
1.6569488e-30
1.6569648e-30
1.6570423e-30
1.6573367e-30
1.6600561e-30
1.6577762e-30
1.6571399e-30
1.6569976e-30
1.6569692e-30
1.6569635e-30
1.6569648e-30
1.6569808e-30
1.6570583e-30
1.6573527e-30
1.6601133e-30
1.657847e-30
1.6572158e-30
1.6570747e-30
1.6570466e-30
1.657041e-30
1.6570423e-30
1.6570583e-30
1.6571359e-30
1.6574305e-30
1.6603318e-30
1.658125e-30
1.6575071e-30
1.6573686e-30
1.6573409e-30
1.6573353e-30
1.6573367e-30
1.6573527e-30
1.6574305e-30
1.6577259e-30
4.8070231e-30
4.800626e-30
4.7988363e-30
4.7984353e-30
4.798355e-30
4.7983384e-30
4.7983395e-30
4.7983713e-30
4.7985279e-30
4.7991224e-30
4.800626e-30
4.7942629e-30
4.7924813e-30
4.7920819e-30
4.7920019e-30
4.7919855e-30
4.7919879e-30
4.7920273e-30
4.7922228e-30
4.7929874e-30
4.7988363e-30
4.7924813e-30
4.7907023e-30
4.7903036e-30
4.7902238e-30
4.7902076e-30
4.7902107e-30
4.7902537e-30
4.7904638e-30
4.7912665e-30
4.7984353e-30
4.7920819e-30
4.7903036e-30
4.789905e-30
4.7898253e-30
4.7898092e-30
4.7898126e-30
4.7898566e-30
4.7900702e-30
4.7908803e-30
4.798355e-30
4.7920019e-30
4.7902238e-30
4.7898253e-30
4.7897456e-30
4.7897295e-30
4.789733e-30
4.7897773e-30
4.7899917e-30
4.790803e-30
4.7983384e-30
4.7919855e-30
4.7902076e-30
4.7898092e-30
4.7897295e-30
4.7897135e-30
4.789717e-30
4.7897614e-30
4.7899759e-30
4.7907874e-30
4.7983395e-30
4.7919879e-30
4.7902107e-30
4.7898126e-30
4.789733e-30
4.789717e-30
4.7897206e-30
4.789765e-30
4.7899795e-30
4.7907911e-30
4.7983713e-30
4.7920273e-30
4.7902537e-30
4.7898566e-30
4.7897773e-30
4.7897614e-30
4.789765e-30
4.7898094e-30
4.790024e-30
4.7908357e-30
4.7985279e-30
4.7922228e-30
4.7904638e-30
4.7900702e-30
4.7899917e-30
4.7899759e-30
4.7899795e-30
4.790024e-30
4.7902388e-30
4.7910509e-30
4.7991224e-30
4.7929874e-30
4.7912665e-30
4.7908803e-30
4.790803e-30
4.7907874e-30
4.7907911e-30
4.7908357e-30
4.7910509e-30
4.7918653e-30
1.4106205e-29
1.4088143e-29
1.4083082e-29
1.4081946e-29
1.4081719e-29
1.4081672e-29
1.4081674e-29
1.4081763e-29
1.4082198e-29
1.408384e-29
1.4088143e-29
1.4070177e-29
1.4065138e-29
1.4064007e-29
1.406378e-29
1.4063733e-29
1.406374e-29
1.406385e-29
1.4064398e-29
1.4066534e-29
1.4083082e-29
1.4065138e-29
1.4060106e-29
1.4058977e-29
1.4058751e-29
1.4058705e-29
1.4058713e-29
1.4058834e-29
1.4059425e-29
1.4061671e-29
1.4081946e-29
1.4064007e-29
1.4058977e-29
1.4057848e-29
1.4057622e-29
1.4057576e-29
1.4057586e-29
1.405771e-29
1.4058311e-29
1.4060578e-29
1.4081719e-29
1.406378e-29
1.4058751e-29
1.4057622e-29
1.4057396e-29
1.4057351e-29
1.405736e-29
1.4057485e-29
1.4058088e-29
1.4060359e-29
1.4081672e-29
1.4063733e-29
1.4058705e-29
1.4057576e-29
1.4057351e-29
1.4057305e-29
1.4057315e-29
1.405744e-29
1.4058043e-29
1.4060315e-29
1.4081674e-29
1.406374e-29
1.4058713e-29
1.4057586e-29
1.405736e-29
1.4057315e-29
1.4057325e-29
1.405745e-29
1.4058053e-29
1.4060325e-29
1.4081763e-29
1.406385e-29
1.4058834e-29
1.405771e-29
1.4057485e-29
1.405744e-29
1.405745e-29
1.4057575e-29
1.4058179e-29
1.4060451e-29
1.4082198e-29
1.4064398e-29
1.4059425e-29
1.4058311e-29
1.4058088e-29
1.4058043e-29
1.4058053e-29
1.4058179e-29
1.4058782e-29
1.4061056e-29
1.408384e-29
1.4066534e-29
1.4061671e-29
1.4060578e-29
1.4060359e-29
1.4060315e-29
1.4060325e-29
1.4060451e-29
1.4061056e-29
1.4063335e-29
4.2026868e-29
4.1975122e-29
4.1960597e-29
4.1957335e-29
4.195668e-29
4.1956544e-29
4.1956552e-29
4.1956803e-29
4.1958029e-29
4.1962632e-29
4.1975122e-29
4.1923646e-29
4.1909185e-29
4.1905936e-29
4.1905284e-29
4.190515e-29
4.1905168e-29
4.1905483e-29
4.1907043e-29
4.1913099e-29
4.1960597e-29
4.1909185e-29
4.1894747e-29
4.1891502e-29
4.1890851e-29
4.1890719e-29
4.1890743e-29
4.1891089e-29
4.1892773e-29
4.1899156e-29
4.1957335e-29
4.1905936e-29
4.1891502e-29
4.188826e-29
4.1887609e-29
4.1887477e-29
4.1887504e-29
4.1887859e-29
4.1889573e-29
4.1896018e-29
4.195668e-29
4.1905284e-29
4.1890851e-29
4.1887609e-29
4.1886959e-29
4.1886828e-29
4.1886855e-29
4.1887213e-29
4.1888933e-29
4.1895388e-29
4.1956544e-29
4.190515e-29
4.1890719e-29
4.1887477e-29
4.1886828e-29
4.1886696e-29
4.1886724e-29
4.1887082e-29
4.1888804e-29
4.1895261e-29
4.1956552e-29
4.1905168e-29
4.1890743e-29
4.1887504e-29
4.1886855e-29
4.1886724e-29
4.1886753e-29
4.1887111e-29
4.1888833e-29
4.189529e-29
4.1956803e-29
4.1905483e-29
4.1891089e-29
4.1887859e-29
4.1887213e-29
4.1887082e-29
4.1887111e-29
4.188747e-29
4.1889192e-29
4.189565e-29
4.1958029e-29
4.1907043e-29
4.1892773e-29
4.1889573e-29
4.1888933e-29
4.1888804e-29
4.1888833e-29
4.1889192e-29
4.1890915e-29
4.1897377e-29
4.1962632e-29
4.1913099e-29
4.1899156e-29
4.1896018e-29
4.1895388e-29
4.1895261e-29
4.189529e-29
4.189565e-29
4.1897377e-29
4.1903857e-29
1.2711906e-28
1.2696865e-28
1.2692636e-28
1.2691685e-28
1.2691494e-28
1.2691454e-28
1.2691456e-28
1.2691528e-28
1.2691879e-28
1.2693189e-28
1.2696865e-28
1.2681901e-28
1.2677691e-28
1.2676744e-28
1.2676553e-28
1.2676514e-28
1.2676519e-28
1.2676611e-28
1.2677061e-28
1.2678805e-28
1.2692636e-28
1.2677691e-28
1.2673487e-28
1.2672541e-28
1.2672351e-28
1.2672312e-28
1.2672319e-28
1.267242e-28
1.2672908e-28
1.2674749e-28
1.2691685e-28
1.2676744e-28
1.2672541e-28
1.2671596e-28
1.2671406e-28
1.2671367e-28
1.2671375e-28
1.2671478e-28
1.2671975e-28
1.2673835e-28
1.2691494e-28
1.2676553e-28
1.2672351e-28
1.2671406e-28
1.2671216e-28
1.2671178e-28
1.2671186e-28
1.267129e-28
1.2671788e-28
1.2673651e-28
1.2691454e-28
1.2676514e-28
1.2672312e-28
1.2671367e-28
1.2671178e-28
1.2671139e-28
1.2671148e-28
1.2671252e-28
1.2671751e-28
1.2673614e-28
1.2691456e-28
1.2676519e-28
1.2672319e-28
1.2671375e-28
1.2671186e-28
1.2671148e-28
1.2671156e-28
1.267126e-28
1.2671759e-28
1.2673623e-28
1.2691528e-28
1.2676611e-28
1.267242e-28
1.2671478e-28
1.267129e-28
1.2671252e-28
1.267126e-28
1.2671364e-28
1.2671863e-28
1.2673727e-28
1.2691879e-28
1.2677061e-28
1.2672908e-28
1.2671975e-28
1.2671788e-28
1.2671751e-28
1.2671759e-28
1.2671863e-28
1.2672363e-28
1.2674228e-28
1.2693189e-28
1.2678805e-28
1.2674749e-28
1.2673835e-28
1.2673651e-28
1.2673614e-28
1.2673623e-28
1.2673727e-28
1.2674228e-28
1.2676098e-28
3.9033614e-28
3.8989256e-28
3.8976766e-28
3.8973954e-28
3.8973389e-28
3.897327e-28
3.8973276e-28
3.8973486e-28
3.8974507e-28
3.8978289e-28
3.8989256e-28
3.8945126e-28
3.8932689e-28
3.8929889e-28
3.8929325e-28
3.8929209e-28
3.8929224e-28
3.8929492e-28
3.8930814e-28
3.8935912e-28
3.8976766e-28
3.8932689e-28
3.8920272e-28
3.8917475e-28
3.8916913e-28
3.8916797e-28
3.8916818e-28
3.8917114e-28
3.8918549e-28
3.8923942e-28
3.8973954e-28
3.8929889e-28
3.8917475e-28
3.891468e-28
3.8914118e-28
3.8914003e-28
3.8914026e-28
3.8914331e-28
3.8915792e-28
3.8921242e-28
3.8973389e-28
3.8929325e-28
3.8916913e-28
3.8914118e-28
3.8913556e-28
3.8913442e-28
3.8913466e-28
3.8913772e-28
3.8915239e-28
3.8920698e-28
3.897327e-28
3.8929209e-28
3.8916797e-28
3.8914003e-28
3.8913442e-28
3.8913328e-28
3.8913352e-28
3.8913659e-28
3.8915127e-28
3.8920588e-28
3.8973276e-28
3.8929224e-28
3.8916818e-28
3.8914026e-28
3.8913466e-28
3.8913352e-28
3.8913377e-28
3.8913684e-28
3.8915152e-28
3.8920613e-28
3.8973486e-28
3.8929492e-28
3.8917114e-28
3.8914331e-28
3.8913772e-28
3.8913659e-28
3.8913684e-28
3.8913991e-28
3.891546e-28
3.8920922e-28
3.8974507e-28
3.8930814e-28
3.8918549e-28
3.8915792e-28
3.8915239e-28
3.8915127e-28
3.8915152e-28
3.891546e-28
3.891693e-28
3.8922395e-28
3.8978289e-28
3.8935912e-28
3.8923942e-28
3.8921242e-28
3.8920698e-28
3.8920588e-28
3.8920613e-28
3.8920922e-28
3.8922395e-28
3.8927874e-28
1.2166962e-27
1.2153692e-27
1.214995e-27
1.2149106e-27
1.2148936e-27
1.2148901e-27
1.2148902e-27
1.2148964e-27
1.2149266e-27
1.2150374e-27
1.2153692e-27
1.2140489e-27
1.2136763e-27
1.2135923e-27
1.2135753e-27
1.2135718e-27
1.2135723e-27
1.2135803e-27
1.2136197e-27
1.213771e-27
1.214995e-27
1.2136763e-27
1.2133042e-27
1.2132203e-27
1.2132034e-27
1.2132e-27
1.2132006e-27
1.2132094e-27
1.2132523e-27
1.2134126e-27
1.2149106e-27
1.2135923e-27
1.2132203e-27
1.2131365e-27
1.2131196e-27
1.2131161e-27
1.2131168e-27
1.2131259e-27
1.2131696e-27
1.2133317e-27
1.2148936e-27
1.2135753e-27
1.2132034e-27
1.2131196e-27
1.2131027e-27
1.2130993e-27
1.2131e-27
1.2131092e-27
1.213153e-27
1.2133154e-27
1.2148901e-27
1.2135718e-27
1.2132e-27
1.2131161e-27
1.2130993e-27
1.2130959e-27
1.2130966e-27
1.2131058e-27
1.2131496e-27
1.2133121e-27
1.2148902e-27
1.2135723e-27
1.2132006e-27
1.2131168e-27
1.2131e-27
1.2130966e-27
1.2130973e-27
1.2131065e-27
1.2131504e-27
1.2133129e-27
1.2148964e-27
1.2135803e-27
1.2132094e-27
1.2131259e-27
1.2131092e-27
1.2131058e-27
1.2131065e-27
1.2131157e-27
1.2131596e-27
1.2133221e-27
1.2149266e-27
1.2136197e-27
1.2132523e-27
1.2131696e-27
1.213153e-27
1.2131496e-27
1.2131504e-27
1.2131596e-27
1.2132035e-27
1.2133661e-27
1.2150374e-27
1.213771e-27
1.2134126e-27
1.2133317e-27
1.2133154e-27
1.2133121e-27
1.2133129e-27
1.2133221e-27