/*--------------------------------*- C++ -*----------------------------------*\
| =========                 |                                                 |
| \\      /  F ield         | OpenFOAM: The Open Source CFD Toolbox           |
|  \\    /   O peration     | Version:  dev                                   |
|   \\  /    A nd           | Web:      www.OpenFOAM.org                      |
|    \\/     M anipulation  |                                                 |
\*---------------------------------------------------------------------------*/
FoamFile
{
    version     2.0;
    format      ascii;
    class       volScalarField;
    location    "15";
    object      A;
}
// * * * * * * * * * * * * * * * * * * * * * * * * * * * * * * * * * * * * * //

dimensions      [0 0 0 0 1 0 0];

internalField   nonuniform List<scalar> 
10000
(
5.6052189e-61
5.604114e-61
5.6036692e-61
5.6035138e-61
5.6034677e-61
5.603456e-61
5.603454e-61
5.6034556e-61
5.6034625e-61
5.603487e-61
5.604114e-61
5.6030096e-61
5.602565e-61
5.6024097e-61
5.6023636e-61
5.602352e-61
5.6023502e-61
5.6023526e-61
5.6023626e-61
5.6023975e-61
5.6036692e-61
5.602565e-61
5.6021206e-61
5.6019653e-61
5.6019191e-61
5.6019076e-61
5.601906e-61
5.601909e-61
5.6019207e-61
5.6019586e-61
5.6035138e-61
5.6024097e-61
5.6019653e-61
5.60181e-61
5.6017639e-61
5.6017524e-61
5.6017508e-61
5.6017541e-61
5.6017664e-61
5.6018052e-61
5.6034677e-61
5.6023636e-61
5.6019191e-61
5.6017639e-61
5.6017178e-61
5.6017062e-61
5.6017047e-61
5.6017081e-61
5.6017206e-61
5.6017596e-61
5.603456e-61
5.602352e-61
5.6019076e-61
5.6017524e-61
5.6017062e-61
5.6016947e-61
5.6016932e-61
5.6016967e-61
5.6017091e-61
5.6017482e-61
5.603454e-61
5.6023502e-61
5.601906e-61
5.6017508e-61
5.6017047e-61
5.6016932e-61
5.6016917e-61
5.6016952e-61
5.6017076e-61
5.6017467e-61
5.6034556e-61
5.6023526e-61
5.601909e-61
5.6017541e-61
5.6017081e-61
5.6016967e-61
5.6016952e-61
5.6016986e-61
5.6017111e-61
5.6017502e-61
5.6034625e-61
5.6023626e-61
5.6019207e-61
5.6017664e-61
5.6017206e-61
5.6017091e-61
5.6017076e-61
5.6017111e-61
5.6017235e-61
5.6017626e-61
5.603487e-61
5.6023975e-61
5.6019586e-61
5.6018052e-61
5.6017596e-61
5.6017482e-61
5.6017467e-61
5.6017502e-61
5.6017626e-61
5.6018017e-61
3.1720065e-60
3.1713983e-60
3.1711513e-60
3.1710649e-60
3.1710392e-60
3.1710328e-60
3.1710316e-60
3.1710325e-60
3.1710364e-60
3.1710505e-60
3.1713983e-60
3.1707904e-60
3.1705435e-60
3.1704572e-60
3.1704315e-60
3.1704251e-60
3.1704241e-60
3.1704254e-60
3.170431e-60
3.1704509e-60
3.1711513e-60
3.1705435e-60
3.1702967e-60
3.1702104e-60
3.1701847e-60
3.1701783e-60
3.1701774e-60
3.1701791e-60
3.1701856e-60
3.1702072e-60
3.1710649e-60
3.1704572e-60
3.1702104e-60
3.1701241e-60
3.1700984e-60
3.170092e-60
3.1700911e-60
3.170093e-60
3.1700998e-60
3.1701219e-60
3.1710392e-60
3.1704315e-60
3.1701847e-60
3.1700984e-60
3.1700728e-60
3.1700664e-60
3.1700655e-60
3.1700674e-60
3.1700743e-60
3.1700966e-60
3.1710328e-60
3.1704251e-60
3.1701783e-60
3.170092e-60
3.1700664e-60
3.17006e-60
3.1700591e-60
3.170061e-60
3.170068e-60
3.1700903e-60
3.1710316e-60
3.1704241e-60
3.1701774e-60
3.1700911e-60
3.1700655e-60
3.1700591e-60
3.1700583e-60
3.1700602e-60
3.1700672e-60
3.1700894e-60
3.1710325e-60
3.1704254e-60
3.1701791e-60
3.170093e-60
3.1700674e-60
3.170061e-60
3.1700602e-60
3.1700621e-60
3.1700691e-60
3.1700914e-60
3.1710364e-60
3.170431e-60
3.1701856e-60
3.1700998e-60
3.1700743e-60
3.170068e-60
3.1700672e-60
3.1700691e-60
3.170076e-60
3.1700983e-60
3.1710505e-60
3.1704509e-60
3.1702072e-60
3.1701219e-60
3.1700966e-60
3.1700903e-60
3.1700894e-60
3.1700914e-60
3.1700983e-60
3.1701206e-60
1.4525786e-59
1.4523078e-59
1.4521974e-59
1.4521588e-59
1.4521473e-59
1.4521444e-59
1.4521439e-59
1.4521443e-59
1.452146e-59
1.4521523e-59
1.4523078e-59
1.4520371e-59
1.4519268e-59
1.4518882e-59
1.4518767e-59
1.4518739e-59
1.4518734e-59
1.451874e-59
1.4518765e-59
1.4518854e-59
1.4521974e-59
1.4519268e-59
1.4518166e-59
1.451778e-59
1.4517665e-59
1.4517636e-59
1.4517632e-59
1.451764e-59
1.4517669e-59
1.4517765e-59
1.4521588e-59
1.4518882e-59
1.451778e-59
1.4517394e-59
1.4517279e-59
1.451725e-59
1.4517246e-59
1.4517255e-59
1.4517285e-59
1.4517384e-59
1.4521473e-59
1.4518767e-59
1.4517665e-59
1.4517279e-59
1.4517164e-59
1.4517135e-59
1.4517132e-59
1.451714e-59
1.4517171e-59
1.4517271e-59
1.4521444e-59
1.4518739e-59
1.4517636e-59
1.451725e-59
1.4517135e-59
1.4517107e-59
1.4517103e-59
1.4517112e-59
1.4517143e-59
1.4517242e-59
1.4521439e-59
1.4518734e-59
1.4517632e-59
1.4517246e-59
1.4517132e-59
1.4517103e-59
1.4517099e-59
1.4517108e-59
1.4517139e-59
1.4517239e-59
1.4521443e-59
1.451874e-59
1.451764e-59
1.4517255e-59
1.451714e-59
1.4517112e-59
1.4517108e-59
1.4517117e-59
1.4517148e-59
1.4517247e-59
1.452146e-59
1.4518765e-59
1.4517669e-59
1.4517285e-59
1.4517171e-59
1.4517143e-59
1.4517139e-59
1.4517148e-59
1.4517179e-59
1.4517278e-59
1.4521523e-59
1.4518854e-59
1.4517765e-59
1.4517384e-59
1.4517271e-59
1.4517242e-59
1.4517239e-59
1.4517247e-59
1.4517278e-59
1.4517378e-59
6.7302834e-59
6.7290642e-59
6.7285661e-59
6.7283915e-59
6.7283396e-59
6.7283265e-59
6.7283242e-59
6.728326e-59
6.7283337e-59
6.728361e-59
6.7290642e-59
6.7278456e-59
6.7273477e-59
6.7271732e-59
6.7271213e-59
6.7271083e-59
6.7271063e-59
6.7271091e-59
6.7271203e-59
6.7271598e-59
6.7285661e-59
6.7273477e-59
6.7268499e-59
6.7266755e-59
6.7266236e-59
6.7266106e-59
6.7266088e-59
6.7266123e-59
6.7266254e-59
6.7266684e-59
6.7283915e-59
6.7271732e-59
6.7266755e-59
6.726501e-59
6.7264492e-59
6.7264362e-59
6.7264345e-59
6.7264383e-59
6.7264521e-59
6.7264961e-59
6.7283396e-59
6.7271213e-59
6.7266236e-59
6.7264492e-59
6.7263973e-59
6.7263843e-59
6.7263827e-59
6.7263866e-59
6.7264006e-59
6.7264449e-59
6.7283265e-59
6.7271083e-59
6.7266106e-59
6.7264362e-59
6.7263843e-59
6.7263714e-59
6.7263697e-59
6.7263737e-59
6.7263877e-59
6.7264321e-59
6.7283242e-59
6.7271063e-59
6.7266088e-59
6.7264345e-59
6.7263827e-59
6.7263697e-59
6.7263681e-59
6.726372e-59
6.7263861e-59
6.7264304e-59
6.728326e-59
6.7271091e-59
6.7266123e-59
6.7264383e-59
6.7263866e-59
6.7263737e-59
6.726372e-59
6.726376e-59
6.72639e-59
6.7264344e-59
6.7283337e-59
6.7271203e-59
6.7266254e-59
6.7264521e-59
6.7264006e-59
6.7263877e-59
6.7263861e-59
6.72639e-59
6.7264041e-59
6.7264485e-59
6.728361e-59
6.7271598e-59
6.7266684e-59
6.7264961e-59
6.7264449e-59
6.7264321e-59
6.7264304e-59
6.7264344e-59
6.7264485e-59
6.7264928e-59
3.1862255e-58
3.1856649e-58
3.1854352e-58
3.1853547e-58
3.1853307e-58
3.1853246e-58
3.1853236e-58
3.1853244e-58
3.1853279e-58
3.1853402e-58
3.1856649e-58
3.1851045e-58
3.184875e-58
3.1847945e-58
3.1847705e-58
3.1847645e-58
3.1847636e-58
3.1847649e-58
3.18477e-58
3.184788e-58
3.1854352e-58
3.184875e-58
3.1846455e-58
3.184565e-58
3.184541e-58
3.184535e-58
3.1845342e-58
3.1845358e-58
3.1845419e-58
3.1845615e-58
3.1853547e-58
3.1847945e-58
3.184565e-58
3.1844845e-58
3.1844605e-58
3.1844546e-58
3.1844538e-58
3.1844556e-58
3.1844619e-58
3.184482e-58
3.1853307e-58
3.1847705e-58
3.184541e-58
3.1844605e-58
3.1844366e-58
3.1844306e-58
3.1844299e-58
3.1844317e-58
3.1844382e-58
3.1844583e-58
3.1853246e-58
3.1847645e-58
3.184535e-58
3.1844546e-58
3.1844306e-58
3.1844246e-58
3.1844239e-58
3.1844257e-58
3.1844322e-58
3.1844524e-58
3.1853236e-58
3.1847636e-58
3.1845342e-58
3.1844538e-58
3.1844299e-58
3.1844239e-58
3.1844231e-58
3.184425e-58
3.1844315e-58
3.1844517e-58
3.1853244e-58
3.1847649e-58
3.1845358e-58
3.1844556e-58
3.1844317e-58
3.1844257e-58
3.184425e-58
3.1844268e-58
3.1844333e-58
3.1844535e-58
3.1853279e-58
3.18477e-58
3.1845419e-58
3.1844619e-58
3.1844382e-58
3.1844322e-58
3.1844315e-58
3.1844333e-58
3.1844398e-58
3.18446e-58
3.1853402e-58
3.184788e-58
3.1845615e-58
3.184482e-58
3.1844583e-58
3.1844524e-58
3.1844517e-58
3.1844535e-58
3.18446e-58
3.1844803e-58
1.5420037e-57
1.5417403e-57
1.5416321e-57
1.5415941e-57
1.5415828e-57
1.54158e-57
1.5415795e-57
1.5415799e-57
1.5415815e-57
1.5415872e-57
1.5417403e-57
1.541477e-57
1.5413689e-57
1.5413309e-57
1.5413196e-57
1.5413168e-57
1.5413164e-57
1.541317e-57
1.5413194e-57
1.5413277e-57
1.5416321e-57
1.5413689e-57
1.5412608e-57
1.5412228e-57
1.5412115e-57
1.5412087e-57
1.5412083e-57
1.5412091e-57
1.541212e-57
1.5412211e-57
1.5415941e-57
1.5413309e-57
1.5412228e-57
1.5411849e-57
1.5411736e-57
1.5411708e-57
1.5411704e-57
1.5411712e-57
1.5411743e-57
1.5411836e-57
1.5415828e-57
1.5413196e-57
1.5412115e-57
1.5411736e-57
1.5411623e-57
1.5411595e-57
1.5411591e-57
1.54116e-57
1.541163e-57
1.5411724e-57
1.54158e-57
1.5413168e-57
1.5412087e-57
1.5411708e-57
1.5411595e-57
1.5411566e-57
1.5411563e-57
1.5411572e-57
1.5411602e-57
1.5411697e-57
1.5415795e-57
1.5413164e-57
1.5412083e-57
1.5411704e-57
1.5411591e-57
1.5411563e-57
1.5411559e-57
1.5411568e-57
1.5411599e-57
1.5411693e-57
1.5415799e-57
1.541317e-57
1.5412091e-57
1.5411712e-57
1.54116e-57
1.5411572e-57
1.5411568e-57
1.5411577e-57
1.5411608e-57
1.5411702e-57
1.5415815e-57
1.5413194e-57
1.541212e-57
1.5411743e-57
1.541163e-57
1.5411602e-57
1.5411599e-57
1.5411608e-57
1.5411638e-57
1.5411733e-57
1.5415872e-57
1.5413277e-57
1.5412211e-57
1.5411836e-57
1.5411724e-57
1.5411697e-57
1.5411693e-57
1.5411702e-57
1.5411733e-57
1.5411827e-57
7.6292484e-57
7.6279838e-57
7.6274631e-57
7.6272801e-57
7.6272256e-57
7.6272119e-57
7.6272095e-57
7.6272114e-57
7.6272193e-57
7.6272457e-57
7.6279838e-57
7.6267197e-57
7.6261993e-57
7.6260164e-57
7.6259619e-57
7.6259482e-57
7.6259461e-57
7.6259491e-57
7.6259609e-57
7.6260005e-57
7.6274631e-57
7.6261993e-57
7.625679e-57
7.6254961e-57
7.6254416e-57
7.625428e-57
7.6254261e-57
7.6254299e-57
7.6254437e-57
7.6254872e-57
7.6272801e-57
7.6260164e-57
7.6254961e-57
7.6253132e-57
7.6252588e-57
7.6252452e-57
7.6252434e-57
7.6252475e-57
7.6252621e-57
7.6253067e-57
7.6272256e-57
7.6259619e-57
7.6254416e-57
7.6252588e-57
7.6252043e-57
7.6251907e-57
7.625189e-57
7.6251932e-57
7.6252081e-57
7.6252529e-57
7.6272119e-57
7.6259482e-57
7.625428e-57
7.6252452e-57
7.6251907e-57
7.6251772e-57
7.6251755e-57
7.6251797e-57
7.6251946e-57
7.6252395e-57
7.6272095e-57
7.6259461e-57
7.6254261e-57
7.6252434e-57
7.625189e-57
7.6251755e-57
7.6251738e-57
7.625178e-57
7.6251929e-57
7.6252378e-57
7.6272114e-57
7.6259491e-57
7.6254299e-57
7.6252475e-57
7.6251932e-57
7.6251797e-57
7.625178e-57
7.6251823e-57
7.6251972e-57
7.6252421e-57
7.6272193e-57
7.6259609e-57
7.6254437e-57
7.6252621e-57
7.6252081e-57
7.6251946e-57
7.6251929e-57
7.6251972e-57
7.6252121e-57
7.625257e-57
7.6272457e-57
7.6260005e-57
7.6254872e-57
7.6253067e-57
7.6252529e-57
7.6252395e-57
7.6252378e-57
7.6252421e-57
7.625257e-57
7.6253019e-57
3.858993e-56
3.8583726e-56
3.8581165e-56
3.8580264e-56
3.8579996e-56
3.8579928e-56
3.8579916e-56
3.8579926e-56
3.8579964e-56
3.8580091e-56
3.8583726e-56
3.8577524e-56
3.8574964e-56
3.8574064e-56
3.8573796e-56
3.8573728e-56
3.8573718e-56
3.8573733e-56
3.8573791e-56
3.8573983e-56
3.8581165e-56
3.8574964e-56
3.8572405e-56
3.8571505e-56
3.8571237e-56
3.857117e-56
3.8571161e-56
3.8571179e-56
3.8571248e-56
3.8571459e-56
3.8580264e-56
3.8574064e-56
3.8571505e-56
3.8570605e-56
3.8570337e-56
3.857027e-56
3.8570261e-56
3.8570281e-56
3.8570354e-56
3.8570571e-56
3.8579996e-56
3.8573796e-56
3.8571237e-56
3.8570337e-56
3.8570068e-56
3.8570002e-56
3.8569993e-56
3.8570014e-56
3.8570087e-56
3.8570306e-56
3.8579928e-56
3.8573728e-56
3.857117e-56
3.857027e-56
3.8570002e-56
3.8569935e-56
3.8569926e-56
3.8569947e-56
3.8570021e-56
3.857024e-56
3.8579916e-56
3.8573718e-56
3.8571161e-56
3.8570261e-56
3.8569993e-56
3.8569926e-56
3.8569918e-56
3.8569939e-56
3.8570013e-56
3.8570232e-56
3.8579926e-56
3.8573733e-56
3.8571179e-56
3.8570281e-56
3.8570014e-56
3.8569947e-56
3.8569939e-56
3.856996e-56
3.8570034e-56
3.8570253e-56
3.8579964e-56
3.8573791e-56
3.8571248e-56
3.8570354e-56
3.8570087e-56
3.8570021e-56
3.8570013e-56
3.8570034e-56
3.8570108e-56
3.8570327e-56
3.8580091e-56
3.8573983e-56
3.8571459e-56
3.8570571e-56
3.8570306e-56
3.857024e-56
3.8570232e-56
3.8570253e-56
3.8570327e-56
3.8570546e-56
1.9955625e-55
1.9952514e-55
1.9951227e-55
1.9950774e-55
1.9950639e-55
1.9950605e-55
1.9950599e-55
1.9950604e-55
1.9950623e-55
1.9950685e-55
1.9952514e-55
1.9949405e-55
1.9948118e-55
1.9947665e-55
1.994753e-55
1.9947496e-55
1.9947491e-55
1.9947499e-55
1.9947528e-55
1.9947624e-55
1.9951227e-55
1.9948118e-55
1.9946832e-55
1.994638e-55
1.9946245e-55
1.9946211e-55
1.9946206e-55
1.9946216e-55
1.994625e-55
1.9946356e-55
1.9950774e-55
1.9947665e-55
1.994638e-55
1.9945927e-55
1.9945792e-55
1.9945758e-55
1.9945754e-55
1.9945764e-55
1.9945801e-55
1.9945909e-55
1.9950639e-55
1.994753e-55
1.9946245e-55
1.9945792e-55
1.9945657e-55
1.9945623e-55
1.9945619e-55
1.994563e-55
1.9945667e-55
1.9945776e-55
1.9950605e-55
1.9947496e-55
1.9946211e-55
1.9945758e-55
1.9945623e-55
1.9945589e-55
1.9945585e-55
1.9945596e-55
1.9945633e-55
1.9945743e-55
1.9950599e-55
1.9947491e-55
1.9946206e-55
1.9945754e-55
1.9945619e-55
1.9945585e-55
1.9945581e-55
1.9945592e-55
1.9945629e-55
1.9945738e-55
1.9950604e-55
1.9947499e-55
1.9946216e-55
1.9945764e-55
1.994563e-55
1.9945596e-55
1.9945592e-55
1.9945603e-55
1.994564e-55
1.9945749e-55
1.9950623e-55
1.9947528e-55
1.994625e-55
1.9945801e-55
1.9945667e-55
1.9945633e-55
1.9945629e-55
1.994564e-55
1.9945677e-55
1.9945786e-55
1.9950685e-55
1.9947624e-55
1.9946356e-55
1.9945909e-55
1.9945776e-55
1.9945743e-55
1.9945738e-55
1.9945749e-55
1.9945786e-55
1.9945896e-55
1.0550034e-54
1.0548441e-54
1.054778e-54
1.0547547e-54
1.0547477e-54
1.054746e-54
1.0547457e-54
1.0547459e-54
1.0547469e-54
1.05475e-54
1.0548441e-54
1.0546848e-54
1.0546187e-54
1.0545954e-54
1.0545885e-54
1.0545868e-54
1.0545865e-54
1.0545869e-54
1.0545884e-54
1.0545933e-54
1.054778e-54
1.0546187e-54
1.0545527e-54
1.0545294e-54
1.0545225e-54
1.0545207e-54
1.0545205e-54
1.054521e-54
1.0545228e-54
1.0545282e-54
1.0547547e-54
1.0545954e-54
1.0545294e-54
1.0545061e-54
1.0544992e-54
1.0544975e-54
1.0544972e-54
1.0544978e-54
1.0544997e-54
1.0545052e-54
1.0547477e-54
1.0545885e-54
1.0545225e-54
1.0544992e-54
1.0544923e-54
1.0544905e-54
1.0544903e-54
1.0544909e-54
1.0544928e-54
1.0544983e-54
1.054746e-54
1.0545868e-54
1.0545207e-54
1.0544975e-54
1.0544905e-54
1.0544888e-54
1.0544886e-54
1.0544891e-54
1.0544911e-54
1.0544966e-54
1.0547457e-54
1.0545865e-54
1.0545205e-54
1.0544972e-54
1.0544903e-54
1.0544886e-54
1.0544884e-54
1.0544889e-54
1.0544909e-54
1.0544964e-54
1.0547459e-54
1.0545869e-54
1.054521e-54
1.0544978e-54
1.0544909e-54
1.0544891e-54
1.0544889e-54
1.0544895e-54
1.0544914e-54
1.054497e-54
1.0547469e-54
1.0545884e-54
1.0545228e-54
1.0544997e-54
1.0544928e-54
1.0544911e-54
1.0544909e-54
1.0544914e-54
1.0544933e-54
1.0544989e-54
1.05475e-54
1.0545933e-54
1.0545282e-54
1.0545052e-54
1.0544983e-54
1.0544966e-54
1.0544964e-54
1.054497e-54
1.0544989e-54
1.0545045e-54
5.7020692e-54
5.7012349e-54
5.7008883e-54
5.700766e-54
5.7007295e-54
5.7007203e-54
5.7007187e-54
5.70072e-54
5.7007252e-54
5.7007412e-54
5.7012349e-54
5.7004011e-54
5.7000546e-54
5.6999324e-54
5.6998959e-54
5.6998867e-54
5.6998853e-54
5.6998874e-54
5.6998954e-54
5.6999207e-54
5.7008883e-54
5.7000546e-54
5.6997081e-54
5.6995859e-54
5.6995495e-54
5.6995403e-54
5.6995391e-54
5.6995418e-54
5.6995512e-54
5.6995792e-54
5.700766e-54
5.6999324e-54
5.6995859e-54
5.6994637e-54
5.6994273e-54
5.6994182e-54
5.699417e-54
5.6994199e-54
5.6994298e-54
5.6994587e-54
5.7007295e-54
5.6998959e-54
5.6995495e-54
5.6994273e-54
5.6993908e-54
5.6993817e-54
5.6993806e-54
5.6993836e-54
5.6993937e-54
5.6994227e-54
5.7007203e-54
5.6998867e-54
5.6995403e-54
5.6994182e-54
5.6993817e-54
5.6993726e-54
5.6993715e-54
5.6993745e-54
5.6993846e-54
5.6994137e-54
5.7007187e-54
5.6998853e-54
5.6995391e-54
5.699417e-54
5.6993806e-54
5.6993715e-54
5.6993704e-54
5.6993734e-54
5.6993836e-54
5.6994127e-54
5.70072e-54
5.6998874e-54
5.6995418e-54
5.6994199e-54
5.6993836e-54
5.6993745e-54
5.6993734e-54
5.6993764e-54
5.6993866e-54
5.6994157e-54
5.7007252e-54
5.6998954e-54
5.6995512e-54
5.6994298e-54
5.6993937e-54
5.6993846e-54
5.6993836e-54
5.6993866e-54
5.6993967e-54
5.6994258e-54
5.7007412e-54
5.6999207e-54
5.6995792e-54
5.6994587e-54
5.6994227e-54
5.6994137e-54
5.6994127e-54
5.6994157e-54
5.6994258e-54
5.6994549e-54
3.1505662e-53
3.15012e-53
3.1499341e-53
3.1498685e-53
3.1498489e-53
3.149844e-53
3.1498432e-53
3.1498439e-53
3.1498467e-53
3.149855e-53
3.15012e-53
3.149674e-53
3.1494882e-53
3.1494226e-53
3.1494031e-53
3.1493981e-53
3.1493974e-53
3.1493985e-53
3.1494028e-53
3.1494163e-53
3.1499341e-53
3.1494882e-53
3.1493025e-53
3.1492369e-53
3.1492174e-53
3.1492125e-53
3.1492118e-53
3.1492133e-53
3.1492183e-53
3.1492333e-53
3.1498685e-53
3.1494226e-53
3.1492369e-53
3.1491714e-53
3.1491518e-53
3.1491469e-53
3.1491463e-53
3.1491479e-53
3.1491533e-53
3.1491686e-53
3.1498489e-53
3.1494031e-53
3.1492174e-53
3.1491518e-53
3.1491322e-53
3.1491274e-53
3.1491268e-53
3.1491284e-53
3.1491338e-53
3.1491493e-53
3.149844e-53
3.1493981e-53
3.1492125e-53
3.1491469e-53
3.1491274e-53
3.1491225e-53
3.1491219e-53
3.1491235e-53
3.149129e-53
3.1491445e-53
3.1498432e-53
3.1493974e-53
3.1492118e-53
3.1491463e-53
3.1491268e-53
3.1491219e-53
3.1491213e-53
3.1491229e-53
3.1491284e-53
3.149144e-53
3.1498439e-53
3.1493985e-53
3.1492133e-53
3.1491479e-53
3.1491284e-53
3.1491235e-53
3.1491229e-53
3.1491246e-53
3.14913e-53
3.1491456e-53
3.1498467e-53
3.1494028e-53
3.1492183e-53
3.1491533e-53
3.1491338e-53
3.149129e-53
3.1491284e-53
3.14913e-53
3.1491355e-53
3.1491511e-53
3.149855e-53
3.1494163e-53
3.1492333e-53
3.1491686e-53
3.1491493e-53
3.1491445e-53
3.149144e-53
3.1491456e-53
3.1491511e-53
3.1491666e-53
1.7795248e-52
1.779281e-52
1.7791792e-52
1.7791433e-52
1.7791325e-52
1.7791298e-52
1.7791294e-52
1.7791298e-52
1.7791313e-52
1.7791358e-52
1.779281e-52
1.7790373e-52
1.7789355e-52
1.7788996e-52
1.7788889e-52
1.7788862e-52
1.7788858e-52
1.7788864e-52
1.7788888e-52
1.7788961e-52
1.7791792e-52
1.7789355e-52
1.7788338e-52
1.7787979e-52
1.7787872e-52
1.7787845e-52
1.7787841e-52
1.7787849e-52
1.7787877e-52
1.7787959e-52
1.7791433e-52
1.7788996e-52
1.7787979e-52
1.778762e-52
1.7787512e-52
1.7787486e-52
1.7787482e-52
1.7787491e-52
1.7787521e-52
1.7787605e-52
1.7791325e-52
1.7788889e-52
1.7787872e-52
1.7787512e-52
1.7787405e-52
1.7787378e-52
1.7787375e-52
1.7787384e-52
1.7787414e-52
1.7787499e-52
1.7791298e-52
1.7788862e-52
1.7787845e-52
1.7787486e-52
1.7787378e-52
1.7787352e-52
1.7787349e-52
1.7787357e-52
1.7787388e-52
1.7787472e-52
1.7791294e-52
1.7788858e-52
1.7787841e-52
1.7787482e-52
1.7787375e-52
1.7787349e-52
1.7787345e-52
1.7787354e-52
1.7787385e-52
1.7787469e-52
1.7791298e-52
1.7788864e-52
1.7787849e-52
1.7787491e-52
1.7787384e-52
1.7787357e-52
1.7787354e-52
1.7787363e-52
1.7787394e-52
1.7787478e-52
1.7791313e-52
1.7788888e-52
1.7787877e-52
1.7787521e-52
1.7787414e-52
1.7787388e-52
1.7787385e-52
1.7787394e-52
1.7787424e-52
1.7787509e-52
1.7791358e-52
1.7788961e-52
1.7787959e-52
1.7787605e-52
1.7787499e-52
1.7787472e-52
1.7787469e-52
1.7787478e-52
1.7787509e-52
1.7787593e-52
1.0274361e-51
1.0273e-51
1.0272431e-51
1.0272229e-51
1.0272169e-51
1.0272154e-51
1.0272151e-51
1.0272154e-51
1.0272162e-51
1.0272187e-51
1.0273e-51
1.0271639e-51
1.027107e-51
1.0270869e-51
1.0270809e-51
1.0270794e-51
1.0270791e-51
1.0270795e-51
1.0270808e-51
1.0270849e-51
1.0272431e-51
1.027107e-51
1.0270501e-51
1.02703e-51
1.027024e-51
1.0270225e-51
1.0270223e-51
1.0270227e-51
1.0270243e-51
1.0270289e-51
1.0272229e-51
1.0270869e-51
1.02703e-51
1.0270099e-51
1.0270039e-51
1.0270024e-51
1.0270022e-51
1.0270027e-51
1.0270043e-51
1.027009e-51
1.0272169e-51
1.0270809e-51
1.027024e-51
1.0270039e-51
1.0269979e-51
1.0269964e-51
1.0269962e-51
1.0269967e-51
1.0269984e-51
1.0270031e-51
1.0272154e-51
1.0270794e-51
1.0270225e-51
1.0270024e-51
1.0269964e-51
1.0269949e-51
1.0269947e-51
1.0269952e-51
1.0269969e-51
1.0270016e-51
1.0272151e-51
1.0270791e-51
1.0270223e-51
1.0270022e-51
1.0269962e-51
1.0269947e-51
1.0269945e-51
1.026995e-51
1.0269967e-51
1.0270015e-51
1.0272154e-51
1.0270795e-51
1.0270227e-51
1.0270027e-51
1.0269967e-51
1.0269952e-51
1.026995e-51
1.0269955e-51
1.0269972e-51
1.027002e-51
1.0272162e-51
1.0270808e-51
1.0270243e-51
1.0270043e-51
1.0269984e-51
1.0269969e-51
1.0269967e-51
1.0269972e-51
1.0269989e-51
1.0270037e-51
1.0272187e-51
1.0270849e-51
1.0270289e-51
1.027009e-51
1.0270031e-51
1.0270016e-51
1.0270015e-51
1.027002e-51
1.0270037e-51
1.0270084e-51
6.0633259e-51
6.0625495e-51
6.0622242e-51
6.0621091e-51
6.0620747e-51
6.062066e-51
6.0620645e-51
6.0620658e-51
6.0620707e-51
6.0620845e-51
6.0625495e-51
6.0617736e-51
6.0614484e-51
6.0613332e-51
6.0612988e-51
6.0612902e-51
6.0612889e-51
6.061291e-51
6.0612987e-51
6.0613219e-51
6.0622242e-51
6.0614484e-51
6.0611232e-51
6.0610081e-51
6.0609737e-51
6.0609651e-51
6.060964e-51
6.0609666e-51
6.0609757e-51
6.0610017e-51
6.0621091e-51
6.0613332e-51
6.0610081e-51
6.060893e-51
6.0608587e-51
6.0608501e-51
6.0608491e-51
6.0608519e-51
6.0608616e-51
6.0608883e-51
6.0620747e-51
6.0612988e-51
6.0609737e-51
6.0608587e-51
6.0608243e-51
6.0608157e-51
6.0608147e-51
6.0608177e-51
6.0608275e-51
6.0608544e-51
6.062066e-51
6.0612902e-51
6.0609651e-51
6.0608501e-51
6.0608157e-51
6.0608072e-51
6.0608062e-51
6.0608091e-51
6.060819e-51
6.060846e-51
6.0620645e-51
6.0612889e-51
6.060964e-51
6.0608491e-51
6.0608147e-51
6.0608062e-51
6.0608052e-51
6.0608081e-51
6.060818e-51
6.060845e-51
6.0620658e-51
6.061291e-51
6.0609666e-51
6.0608519e-51
6.0608177e-51
6.0608091e-51
6.0608081e-51
6.0608111e-51
6.060821e-51
6.060848e-51
6.0620707e-51
6.0612987e-51
6.0609757e-51
6.0608616e-51
6.0608275e-51
6.060819e-51
6.060818e-51
6.060821e-51
6.0608308e-51
6.0608578e-51
6.0620845e-51
6.0613219e-51
6.0610017e-51
6.0608883e-51
6.0608544e-51
6.060846e-51
6.060845e-51
6.060848e-51
6.0608578e-51
6.0608848e-51
3.6570933e-50
3.6566411e-50
3.6564512e-50
3.6563839e-50
3.6563638e-50
3.6563587e-50
3.6563579e-50
3.6563587e-50
3.6563615e-50
3.6563694e-50
3.6566411e-50
3.656189e-50
3.6559992e-50
3.655932e-50
3.6559119e-50
3.6559068e-50
3.6559061e-50
3.6559073e-50
3.6559118e-50
3.6559253e-50
3.6564512e-50
3.6559992e-50
3.6558094e-50
3.6557422e-50
3.6557221e-50
3.6557171e-50
3.6557165e-50
3.655718e-50
3.6557234e-50
3.6557385e-50
3.6563839e-50
3.655932e-50
3.6557422e-50
3.655675e-50
3.6556549e-50
3.6556499e-50
3.6556493e-50
3.655651e-50
3.6556567e-50
3.6556723e-50
3.6563638e-50
3.6559119e-50
3.6557221e-50
3.6556549e-50
3.6556348e-50
3.6556298e-50
3.6556292e-50
3.655631e-50
3.6556368e-50
3.6556525e-50
3.6563587e-50
3.6559068e-50
3.6557171e-50
3.6556499e-50
3.6556298e-50
3.6556248e-50
3.6556242e-50
3.655626e-50
3.6556318e-50
3.6556475e-50
3.6563579e-50
3.6559061e-50
3.6557165e-50
3.6556493e-50
3.6556292e-50
3.6556242e-50
3.6556237e-50
3.6556254e-50
3.6556312e-50
3.655647e-50
3.6563587e-50
3.6559073e-50
3.655718e-50
3.655651e-50
3.655631e-50
3.655626e-50
3.6556254e-50
3.6556272e-50
3.655633e-50
3.6556488e-50
3.6563615e-50
3.6559118e-50
3.6557234e-50
3.6556567e-50
3.6556368e-50
3.6556318e-50
3.6556312e-50
3.655633e-50
3.6556388e-50
3.6556546e-50
3.6563694e-50
3.6559253e-50
3.6557385e-50
3.6556723e-50
3.6556525e-50
3.6556475e-50
3.655647e-50
3.6556488e-50
3.6556546e-50
3.6556703e-50
2.2541742e-49
2.2539052e-49
2.253792e-49
2.2537519e-49
2.2537399e-49
2.2537369e-49
2.2537363e-49
2.2537368e-49
2.2537385e-49
2.2537432e-49
2.2539052e-49
2.2536363e-49
2.2535231e-49
2.253483e-49
2.253471e-49
2.253468e-49
2.2534676e-49
2.2534683e-49
2.253471e-49
2.2534791e-49
2.253792e-49
2.2535231e-49
2.25341e-49
2.2533699e-49
2.2533579e-49
2.2533549e-49
2.2533545e-49
2.2533555e-49
2.2533587e-49
2.2533677e-49
2.2537519e-49
2.253483e-49
2.2533699e-49
2.2533298e-49
2.2533178e-49
2.2533148e-49
2.2533145e-49
2.2533155e-49
2.2533189e-49
2.2533282e-49
2.2537399e-49
2.253471e-49
2.2533579e-49
2.2533178e-49
2.2533058e-49
2.2533028e-49
2.2533025e-49
2.2533036e-49
2.253307e-49
2.2533164e-49
2.2537369e-49
2.253468e-49
2.2533549e-49
2.2533148e-49
2.2533028e-49
2.2532998e-49
2.2532995e-49
2.2533006e-49
2.2533041e-49
2.2533135e-49
2.2537363e-49
2.2534676e-49
2.2533545e-49
2.2533145e-49
2.2533025e-49
2.2532995e-49
2.2532992e-49
2.2533002e-49
2.2533037e-49
2.2533131e-49
2.2537368e-49
2.2534683e-49
2.2533555e-49
2.2533155e-49
2.2533036e-49
2.2533006e-49
2.2533002e-49
2.2533013e-49
2.2533048e-49
2.2533142e-49
2.2537385e-49
2.253471e-49
2.2533587e-49
2.2533189e-49
2.253307e-49
2.2533041e-49
2.2533037e-49
2.2533048e-49
2.2533083e-49
2.2533177e-49
2.2537432e-49
2.2534791e-49
2.2533677e-49
2.2533282e-49
2.2533164e-49
2.2533135e-49
2.2533131e-49
2.2533142e-49
2.2533177e-49
2.2533271e-49
1.4197628e-48
1.4195993e-48
1.4195304e-48
1.419506e-48
1.4194987e-48
1.4194968e-48
1.4194965e-48
1.4194968e-48
1.4194979e-48
1.4195006e-48
1.4195993e-48
1.4194359e-48
1.4193671e-48
1.4193426e-48
1.4193353e-48
1.4193335e-48
1.4193332e-48
1.4193337e-48
1.4193354e-48
1.4193402e-48
1.4195304e-48
1.4193671e-48
1.4192982e-48
1.4192738e-48
1.4192665e-48
1.4192647e-48
1.4192644e-48
1.419265e-48
1.419267e-48
1.4192725e-48
1.419506e-48
1.4193426e-48
1.4192738e-48
1.4192494e-48
1.4192421e-48
1.4192402e-48
1.41924e-48
1.4192407e-48
1.4192428e-48
1.4192484e-48
1.4194987e-48
1.4193353e-48
1.4192665e-48
1.4192421e-48
1.4192348e-48
1.4192329e-48
1.4192327e-48
1.4192334e-48
1.4192355e-48
1.4192412e-48
1.4194968e-48
1.4193335e-48
1.4192647e-48
1.4192402e-48
1.4192329e-48
1.4192311e-48
1.4192309e-48
1.4192316e-48
1.4192337e-48
1.4192395e-48
1.4194965e-48
1.4193332e-48
1.4192644e-48
1.41924e-48
1.4192327e-48
1.4192309e-48
1.4192307e-48
1.4192314e-48
1.4192335e-48
1.4192393e-48
1.4194968e-48
1.4193337e-48
1.419265e-48
1.4192407e-48
1.4192334e-48
1.4192316e-48
1.4192314e-48
1.419232e-48
1.4192342e-48
1.4192399e-48
1.4194979e-48
1.4193354e-48
1.419267e-48
1.4192428e-48
1.4192355e-48
1.4192337e-48
1.4192335e-48
1.4192342e-48
1.4192363e-48
1.4192421e-48
1.4195006e-48
1.4193402e-48
1.4192725e-48
1.4192484e-48
1.4192412e-48
1.4192395e-48
1.4192393e-48
1.4192399e-48
1.4192421e-48
1.4192478e-48
9.1361771e-48
9.1351633e-48
9.1347352e-48
9.1345832e-48
9.1345377e-48
9.1345262e-48
9.1345243e-48
9.1345262e-48
9.1345327e-48
9.1345498e-48
9.1351633e-48
9.1341499e-48
9.133722e-48
9.13357e-48
9.1335246e-48
9.1335132e-48
9.1335115e-48
9.1335144e-48
9.1335248e-48
9.1335552e-48
9.1347352e-48
9.133722e-48
9.1332941e-48
9.1331422e-48
9.1330967e-48
9.1330854e-48
9.133084e-48
9.1330877e-48
9.1331002e-48
9.1331344e-48
9.1345832e-48
9.13357e-48
9.1331422e-48
9.1329903e-48
9.1329449e-48
9.1329335e-48
9.1329323e-48
9.1329363e-48
9.1329495e-48
9.1329849e-48
9.1345377e-48
9.1335246e-48
9.1330967e-48
9.1329449e-48
9.1328994e-48
9.1328881e-48
9.1328869e-48
9.132891e-48
9.1329045e-48
9.1329401e-48
9.1345262e-48
9.1335132e-48
9.1330854e-48
9.1329335e-48
9.1328881e-48
9.1328768e-48
9.1328756e-48
9.1328797e-48
9.1328933e-48
9.132929e-48
9.1345243e-48
9.1335115e-48
9.133084e-48
9.1329323e-48
9.1328869e-48
9.1328756e-48
9.1328744e-48
9.1328785e-48
9.1328921e-48
9.1329278e-48
9.1345262e-48
9.1335144e-48
9.1330877e-48
9.1329363e-48
9.132891e-48
9.1328797e-48
9.1328785e-48
9.1328827e-48
9.1328962e-48
9.1329319e-48
9.1345327e-48
9.1335248e-48
9.1331002e-48
9.1329495e-48
9.1329045e-48
9.1328933e-48
9.1328921e-48
9.1328962e-48
9.1329098e-48
9.1329455e-48
9.1345498e-48
9.1335552e-48
9.1331344e-48
9.1329849e-48
9.1329401e-48
9.132929e-48
9.1329278e-48
9.1329319e-48
9.1329455e-48
9.1329812e-48
6.0057878e-47
6.0051458e-47
6.0048743e-47
6.0047778e-47
6.0047489e-47
6.0047416e-47
6.0047404e-47
6.0047416e-47
6.0047457e-47
6.0047565e-47
6.0051458e-47
6.0045041e-47
6.0042327e-47
6.0041362e-47
6.0041074e-47
6.0041001e-47
6.0040991e-47
6.004101e-47
6.0041077e-47
6.004127e-47
6.0048743e-47
6.0042327e-47
6.0039613e-47
6.0038649e-47
6.003836e-47
6.0038288e-47
6.0038279e-47
6.0038303e-47
6.0038383e-47
6.0038601e-47
6.0047778e-47
6.0041362e-47
6.0038649e-47
6.0037684e-47
6.0037396e-47
6.0037324e-47
6.0037316e-47
6.0037342e-47
6.0037427e-47
6.0037652e-47
6.0047489e-47
6.0041074e-47
6.003836e-47
6.0037396e-47
6.0037107e-47
6.0037036e-47
6.0037028e-47
6.0037055e-47
6.0037141e-47
6.0037368e-47
6.0047416e-47
6.0041001e-47
6.0038288e-47
6.0037324e-47
6.0037036e-47
6.0036964e-47
6.0036956e-47
6.0036983e-47
6.003707e-47
6.0037297e-47
6.0047404e-47
6.0040991e-47
6.0038279e-47
6.0037316e-47
6.0037028e-47
6.0036956e-47
6.0036949e-47
6.0036975e-47
6.0037062e-47
6.003729e-47
6.0047416e-47
6.004101e-47
6.0038303e-47
6.0037342e-47
6.0037055e-47
6.0036983e-47
6.0036975e-47
6.0037002e-47
6.0037089e-47
6.0037317e-47
6.0047457e-47
6.0041077e-47
6.0038383e-47
6.0037427e-47
6.0037141e-47
6.003707e-47
6.0037062e-47
6.0037089e-47
6.0037176e-47
6.0037404e-47
6.0047565e-47
6.004127e-47
6.0038601e-47
6.0037652e-47
6.0037368e-47
6.0037297e-47
6.003729e-47
6.0037317e-47
6.0037404e-47
6.0037631e-47
4.0323753e-46
4.0319605e-46
4.0317847e-46
4.0317222e-46
4.0317035e-46
4.0316987e-46
4.031698e-46
4.0316987e-46
4.0317014e-46
4.0317083e-46
4.0319605e-46
4.0315458e-46
4.0313701e-46
4.0313076e-46
4.0312889e-46
4.0312842e-46
4.0312835e-46
4.0312848e-46
4.0312891e-46
4.0313016e-46
4.0317847e-46
4.0313701e-46
4.0311944e-46
4.0311319e-46
4.0311132e-46
4.0311085e-46
4.031108e-46
4.0311095e-46
4.0311148e-46
4.031129e-46
4.0317222e-46
4.0313076e-46
4.0311319e-46
4.0310694e-46
4.0310507e-46
4.0310461e-46
4.0310456e-46
4.0310473e-46
4.0310528e-46
4.0310675e-46
4.0317035e-46
4.0312889e-46
4.0311132e-46
4.0310507e-46
4.031032e-46
4.0310274e-46
4.0310269e-46
4.0310287e-46
4.0310343e-46
4.0310491e-46
4.0316987e-46
4.0312842e-46
4.0311085e-46
4.0310461e-46
4.0310274e-46
4.0310227e-46
4.0310223e-46
4.031024e-46
4.0310297e-46
4.0310445e-46
4.031698e-46
4.0312835e-46
4.031108e-46
4.0310456e-46
4.0310269e-46
4.0310223e-46
4.0310218e-46
4.0310235e-46
4.0310292e-46
4.031044e-46
4.0316987e-46
4.0312848e-46
4.0311095e-46
4.0310473e-46
4.0310287e-46
4.031024e-46
4.0310235e-46
4.0310253e-46
4.031031e-46
4.0310458e-46
4.0317014e-46
4.0312891e-46
4.0311148e-46
4.0310528e-46
4.0310343e-46
4.0310297e-46
4.0310292e-46
4.031031e-46
4.0310367e-46
4.0310515e-46
4.0317083e-46
4.0313016e-46
4.031129e-46
4.0310675e-46
4.0310491e-46
4.0310445e-46
4.031044e-46
4.0310458e-46
4.0310515e-46
4.0310663e-46
2.7647655e-45