/*--------------------------------*- C++ -*----------------------------------*\
| =========                 |                                                 |
| \\      /  F ield         | OpenFOAM: The Open Source CFD Toolbox           |
|  \\    /   O peration     | Version:  dev                                   |
|   \\  /    A nd           | Web:      www.OpenFOAM.org                      |
|    \\/     M anipulation  |                                                 |
\*---------------------------------------------------------------------------*/
FoamFile
{
    version     2.0;
    format      ascii;
    class       volScalarField;
    location    "15";
    object      A_0;
}
// * * * * * * * * * * * * * * * * * * * * * * * * * * * * * * * * * * * * * //

dimensions      [0 0 0 0 1 0 0];

internalField   nonuniform List<scalar> 
10000
(
5.4938541e-61
5.4927705e-61
5.4923344e-61
5.4921821e-61
5.4921369e-61
5.4921254e-61
5.4921234e-61
5.492125e-61
5.4921318e-61
5.4921558e-61
5.4927705e-61
5.4916875e-61
5.4912516e-61
5.4910994e-61
5.4910541e-61
5.4910428e-61
5.491041e-61
5.4910434e-61
5.4910532e-61
5.4910874e-61
5.4923344e-61
5.4912516e-61
5.4908158e-61
5.4906636e-61
5.4906184e-61
5.490607e-61
5.4906054e-61
5.4906084e-61
5.4906198e-61
5.490657e-61
5.4921821e-61
5.4910994e-61
5.4906636e-61
5.4905114e-61
5.4904662e-61
5.4904549e-61
5.4904534e-61
5.4904566e-61
5.4904686e-61
5.4905066e-61
5.4921369e-61
5.4910541e-61
5.4906184e-61
5.4904662e-61
5.490421e-61
5.4904097e-61
5.4904082e-61
5.4904115e-61
5.4904237e-61
5.4904619e-61
5.4921254e-61
5.4910428e-61
5.490607e-61
5.4904549e-61
5.4904097e-61
5.4903984e-61
5.4903969e-61
5.4904003e-61
5.4904125e-61
5.4904508e-61
5.4921234e-61
5.491041e-61
5.4906054e-61
5.4904534e-61
5.4904082e-61
5.4903969e-61
5.4903955e-61
5.4903988e-61
5.490411e-61
5.4904494e-61
5.492125e-61
5.4910434e-61
5.4906084e-61
5.4904566e-61
5.4904115e-61
5.4904003e-61
5.4903988e-61
5.4904022e-61
5.4904144e-61
5.4904527e-61
5.4921318e-61
5.4910532e-61
5.4906198e-61
5.4904686e-61
5.4904237e-61
5.4904125e-61
5.490411e-61
5.4904144e-61
5.4904266e-61
5.4904649e-61
5.4921558e-61
5.4910874e-61
5.490657e-61
5.4905066e-61
5.4904619e-61
5.4904508e-61
5.4904494e-61
5.4904527e-61
5.4904649e-61
5.4905033e-61
3.1095361e-60
3.1089395e-60
3.1086973e-60
3.1086126e-60
3.1085874e-60
3.1085811e-60
3.10858e-60
3.1085808e-60
3.1085846e-60
3.1085984e-60
3.1089395e-60
3.1083433e-60
3.1081012e-60
3.1080165e-60
3.1079914e-60
3.1079851e-60
3.1079841e-60
3.1079854e-60
3.1079909e-60
3.1080104e-60
3.1086973e-60
3.1081012e-60
3.1078591e-60
3.1077745e-60
3.1077493e-60
3.107743e-60
3.1077421e-60
3.1077438e-60
3.1077502e-60
3.1077714e-60
3.1086126e-60
3.1080165e-60
3.1077745e-60
3.1076898e-60
3.1076647e-60
3.1076584e-60
3.1076576e-60
3.1076594e-60
3.1076661e-60
3.1076878e-60
3.1085874e-60
3.1079914e-60
3.1077493e-60
3.1076647e-60
3.1076396e-60
3.1076333e-60
3.1076325e-60
3.1076343e-60
3.1076411e-60
3.1076629e-60
3.1085811e-60
3.1079851e-60
3.107743e-60
3.1076584e-60
3.1076333e-60
3.107627e-60
3.1076262e-60
3.1076281e-60
3.1076349e-60
3.1076567e-60
3.10858e-60
3.1079841e-60
3.1077421e-60
3.1076576e-60
3.1076325e-60
3.1076262e-60
3.1076254e-60
3.1076273e-60
3.1076341e-60
3.1076559e-60
3.1085808e-60
3.1079854e-60
3.1077438e-60
3.1076594e-60
3.1076343e-60
3.1076281e-60
3.1076273e-60
3.1076291e-60
3.107636e-60
3.1076578e-60
3.1085846e-60
3.1079909e-60
3.1077502e-60
3.1076661e-60
3.1076411e-60
3.1076349e-60
3.1076341e-60
3.107636e-60
3.1076428e-60
3.1076646e-60
3.1085984e-60
3.1080104e-60
3.1077714e-60
3.1076878e-60
3.1076629e-60
3.1076567e-60
3.1076559e-60
3.1076578e-60
3.1076646e-60
3.1076865e-60
1.4243041e-59
1.4240384e-59
1.4239302e-59
1.4238923e-59
1.423881e-59
1.4238782e-59
1.4238777e-59
1.4238781e-59
1.4238797e-59
1.4238858e-59
1.4240384e-59
1.4237729e-59
1.4236647e-59
1.4236268e-59
1.4236155e-59
1.4236127e-59
1.4236123e-59
1.4236129e-59
1.4236153e-59
1.423624e-59
1.4239302e-59
1.4236647e-59
1.4235565e-59
1.4235186e-59
1.4235074e-59
1.4235046e-59
1.4235042e-59
1.4235049e-59
1.4235078e-59
1.4235172e-59
1.4238923e-59
1.4236268e-59
1.4235186e-59
1.4234808e-59
1.4234695e-59
1.4234667e-59
1.4234664e-59
1.4234672e-59
1.4234702e-59
1.4234798e-59
1.423881e-59
1.4236155e-59
1.4235074e-59
1.4234695e-59
1.4234583e-59
1.4234555e-59
1.4234551e-59
1.423456e-59
1.423459e-59
1.4234687e-59
1.4238782e-59
1.4236127e-59
1.4235046e-59
1.4234667e-59
1.4234555e-59
1.4234527e-59
1.4234523e-59
1.4234532e-59
1.4234562e-59
1.4234659e-59
1.4238777e-59
1.4236123e-59
1.4235042e-59
1.4234664e-59
1.4234551e-59
1.4234523e-59
1.423452e-59
1.4234528e-59
1.4234559e-59
1.4234656e-59
1.4238781e-59
1.4236129e-59
1.4235049e-59
1.4234672e-59
1.423456e-59
1.4234532e-59
1.4234528e-59
1.4234536e-59
1.4234567e-59
1.4234664e-59
1.4238797e-59
1.4236153e-59
1.4235078e-59
1.4234702e-59
1.423459e-59
1.4234562e-59
1.4234559e-59
1.4234567e-59
1.4234598e-59
1.4234695e-59
1.4238858e-59
1.423624e-59
1.4235172e-59
1.4234798e-59
1.4234687e-59
1.4234659e-59
1.4234656e-59
1.4234664e-59
1.4234695e-59
1.4234792e-59
6.6008816e-59
6.5996852e-59
6.5991964e-59
6.5990252e-59
6.5989743e-59
6.5989614e-59
6.5989592e-59
6.598961e-59
6.5989685e-59
6.5989953e-59
6.5996852e-59
6.5984894e-59
6.5980009e-59
6.5978297e-59
6.5977788e-59
6.597766e-59
6.597764e-59
6.5977668e-59
6.5977778e-59
6.5978165e-59
6.5991964e-59
6.5980009e-59
6.5975124e-59
6.5973413e-59
6.5972904e-59
6.5972777e-59
6.5972759e-59
6.5972794e-59
6.5972922e-59
6.5973344e-59
6.5990252e-59
6.5978297e-59
6.5973413e-59
6.5971702e-59
6.5971193e-59
6.5971066e-59
6.597105e-59
6.5971087e-59
6.5971222e-59
6.5971654e-59
6.5989743e-59
6.5977788e-59
6.5972904e-59
6.5971193e-59
6.5970685e-59
6.5970558e-59
6.5970541e-59
6.597058e-59
6.5970717e-59
6.5971151e-59
6.5989614e-59
6.597766e-59
6.5972777e-59
6.5971066e-59
6.5970558e-59
6.5970431e-59
6.5970415e-59
6.5970453e-59
6.5970591e-59
6.5971026e-59
6.5989592e-59
6.597764e-59
6.5972759e-59
6.597105e-59
6.5970541e-59
6.5970415e-59
6.5970398e-59
6.5970437e-59
6.5970575e-59
6.597101e-59
6.598961e-59
6.5977668e-59
6.5972794e-59
6.5971087e-59
6.597058e-59
6.5970453e-59
6.5970437e-59
6.5970475e-59
6.5970614e-59
6.5971049e-59
6.5989685e-59
6.5977778e-59
6.5972922e-59
6.5971222e-59
6.5970717e-59
6.5970591e-59
6.5970575e-59
6.5970614e-59
6.5970752e-59
6.5971187e-59
6.5989953e-59
6.5978165e-59
6.5973344e-59
6.5971654e-59
6.5971151e-59
6.5971026e-59
6.597101e-59
6.5971049e-59
6.5971187e-59
6.5971622e-59
3.1257323e-58
3.1251821e-58
3.1249567e-58
3.1248777e-58
3.1248541e-58
3.1248482e-58
3.1248472e-58
3.124848e-58
3.1248514e-58
3.1248635e-58
3.1251821e-58
3.1246321e-58
3.1244068e-58
3.1243278e-58
3.1243043e-58
3.1242984e-58
3.1242975e-58
3.1242988e-58
3.1243038e-58
3.1243214e-58
3.1249567e-58
3.1244068e-58
3.1241816e-58
3.1241026e-58
3.1240791e-58
3.1240732e-58
3.1240724e-58
3.124074e-58
3.1240799e-58
3.1240992e-58
3.1248777e-58
3.1243278e-58
3.1241026e-58
3.1240236e-58
3.1240001e-58
3.1239943e-58
3.1239935e-58
3.1239952e-58
3.1240015e-58
3.1240212e-58
3.1248541e-58
3.1243043e-58
3.1240791e-58
3.1240001e-58
3.1239766e-58
3.1239708e-58
3.12397e-58
3.1239718e-58
3.1239782e-58
3.123998e-58
3.1248482e-58
3.1242984e-58
3.1240732e-58
3.1239943e-58
3.1239708e-58
3.1239649e-58
3.1239642e-58
3.123966e-58
3.1239723e-58
3.1239922e-58
3.1248472e-58
3.1242975e-58
3.1240724e-58
3.1239935e-58
3.12397e-58
3.1239642e-58
3.1239634e-58
3.1239652e-58
3.1239716e-58
3.1239914e-58
3.124848e-58
3.1242988e-58
3.124074e-58
3.1239952e-58
3.1239718e-58
3.123966e-58
3.1239652e-58
3.123967e-58
3.1239734e-58
3.1239932e-58
3.1248514e-58
3.1243038e-58
3.1240799e-58
3.1240015e-58
3.1239782e-58
3.1239723e-58
3.1239716e-58
3.1239734e-58
3.1239798e-58
3.1239996e-58
3.1248635e-58
3.1243214e-58
3.1240992e-58
3.1240212e-58
3.123998e-58
3.1239922e-58
3.1239914e-58
3.1239932e-58
3.1239996e-58
3.1240195e-58
1.5131024e-57
1.5128438e-57
1.5127376e-57
1.5127003e-57
1.5126892e-57
1.5126864e-57
1.512686e-57
1.5126863e-57
1.512688e-57
1.5126935e-57
1.5128438e-57
1.5125853e-57
1.5124792e-57
1.5124419e-57
1.5124308e-57
1.512428e-57
1.5124276e-57
1.5124282e-57
1.5124306e-57
1.5124388e-57
1.5127376e-57
1.5124792e-57
1.5123731e-57
1.5123358e-57
1.5123247e-57
1.5123219e-57
1.5123216e-57
1.5123223e-57
1.5123251e-57
1.5123341e-57
1.5127003e-57
1.5124419e-57
1.5123358e-57
1.5122986e-57
1.5122875e-57
1.5122847e-57
1.5122843e-57
1.5122852e-57
1.5122881e-57
1.5122973e-57
1.5126892e-57
1.5124308e-57
1.5123247e-57
1.5122875e-57
1.5122764e-57
1.5122736e-57
1.5122733e-57
1.5122741e-57
1.5122771e-57
1.5122864e-57
1.5126864e-57
1.512428e-57
1.5123219e-57
1.5122847e-57
1.5122736e-57
1.5122709e-57
1.5122705e-57
1.5122714e-57
1.5122744e-57
1.5122836e-57
1.512686e-57
1.5124276e-57
1.5123216e-57
1.5122843e-57
1.5122733e-57
1.5122705e-57
1.5122702e-57
1.512271e-57
1.512274e-57
1.5122833e-57
1.5126863e-57
1.5124282e-57
1.5123223e-57
1.5122852e-57
1.5122741e-57
1.5122714e-57
1.512271e-57
1.5122719e-57
1.5122749e-57
1.5122841e-57
1.512688e-57
1.5124306e-57
1.5123251e-57
1.5122881e-57
1.5122771e-57
1.5122744e-57
1.512274e-57
1.5122749e-57
1.5122779e-57
1.5122872e-57
1.5126935e-57
1.5124388e-57
1.5123341e-57
1.5122973e-57
1.5122864e-57
1.5122836e-57
1.5122833e-57
1.5122841e-57
1.5122872e-57
1.5122964e-57
7.4881268e-57
7.4868849e-57
7.4863737e-57
7.4861941e-57
7.4861406e-57
7.4861271e-57
7.4861247e-57
7.4861266e-57
7.4861343e-57
7.4861602e-57
7.4868849e-57
7.4856436e-57
7.4851326e-57
7.484953e-57
7.4848996e-57
7.4848861e-57
7.4848841e-57
7.484887e-57
7.4848986e-57
7.4849374e-57
7.4863737e-57
7.4851326e-57
7.4846217e-57
7.4844422e-57
7.4843887e-57
7.4843753e-57
7.4843735e-57
7.4843772e-57
7.4843908e-57
7.4844335e-57
7.4861941e-57
7.484953e-57
7.4844422e-57
7.4842627e-57
7.4842092e-57
7.4841959e-57
7.4841941e-57
7.4841982e-57
7.4842125e-57
7.4842562e-57
7.4861406e-57
7.4848996e-57
7.4843887e-57
7.4842092e-57
7.4841558e-57
7.4841424e-57
7.4841408e-57
7.4841449e-57
7.4841594e-57
7.4842035e-57
7.4861271e-57
7.4848861e-57
7.4843753e-57
7.4841959e-57
7.4841424e-57
7.4841291e-57
7.4841274e-57
7.4841316e-57
7.4841462e-57
7.4841903e-57
7.4861247e-57
7.4848841e-57
7.4843735e-57
7.4841941e-57
7.4841408e-57
7.4841274e-57
7.4841258e-57
7.4841299e-57
7.4841446e-57
7.4841887e-57
7.4861266e-57
7.484887e-57
7.4843772e-57
7.4841982e-57
7.4841449e-57
7.4841316e-57
7.4841299e-57
7.4841341e-57
7.4841487e-57
7.4841928e-57
7.4861343e-57
7.4848986e-57
7.4843908e-57
7.4842125e-57
7.4841594e-57
7.4841462e-57
7.4841446e-57
7.4841487e-57
7.4841634e-57
7.4842075e-57
7.4861602e-57
7.4849374e-57
7.4844335e-57
7.4842562e-57
7.4842035e-57
7.4841903e-57
7.4841887e-57
7.4841928e-57
7.4842075e-57
7.4842516e-57
3.788566e-56
3.7879565e-56
3.787705e-56
3.7876166e-56
3.7875902e-56
3.7875835e-56
3.7875824e-56
3.7875833e-56
3.7875871e-56
3.7875995e-56
3.7879565e-56
3.7873473e-56
3.7870959e-56
3.7870075e-56
3.7869812e-56
3.7869746e-56
3.7869735e-56
3.786975e-56
3.7869807e-56
3.7869996e-56
3.787705e-56
3.7870959e-56
3.7868446e-56
3.7867562e-56
3.7867299e-56
3.7867233e-56
3.7867224e-56
3.7867242e-56
3.7867309e-56
3.7867517e-56
3.7876166e-56
3.7870075e-56
3.7867562e-56
3.7866678e-56
3.7866415e-56
3.7866349e-56
3.7866341e-56
3.7866361e-56
3.7866432e-56
3.7866645e-56
3.7875902e-56
3.7869812e-56
3.7867299e-56
3.7866415e-56
3.7866152e-56
3.7866086e-56
3.7866078e-56
3.7866098e-56
3.786617e-56
3.7866385e-56
3.7875835e-56
3.7869746e-56
3.7867233e-56
3.7866349e-56
3.7866086e-56
3.786602e-56
3.7866012e-56
3.7866033e-56
3.7866105e-56
3.786632e-56
3.7875824e-56
3.7869735e-56
3.7867224e-56
3.7866341e-56
3.7866078e-56
3.7866012e-56
3.7866004e-56
3.7866025e-56
3.7866097e-56
3.7866312e-56
3.7875833e-56
3.786975e-56
3.7867242e-56
3.7866361e-56
3.7866098e-56
3.7866033e-56
3.7866025e-56
3.7866045e-56
3.7866118e-56
3.7866333e-56
3.7875871e-56
3.7869807e-56
3.7867309e-56
3.7866432e-56
3.786617e-56
3.7866105e-56
3.7866097e-56
3.7866118e-56
3.786619e-56
3.7866405e-56
3.7875995e-56
3.7869996e-56
3.7867517e-56
3.7866645e-56
3.7866385e-56
3.786632e-56
3.7866312e-56
3.7866333e-56
3.7866405e-56
3.786662e-56
1.9596409e-55
1.9593352e-55
1.9592088e-55
1.9591643e-55
1.959151e-55
1.9591477e-55
1.9591471e-55
1.9591476e-55
1.9591495e-55
1.9591556e-55
1.9593352e-55
1.9590297e-55
1.9589034e-55
1.9588589e-55
1.9588456e-55
1.9588423e-55
1.9588418e-55
1.9588425e-55
1.9588454e-55
1.9588548e-55
1.9592088e-55
1.9589034e-55
1.958777e-55
1.9587326e-55
1.9587193e-55
1.958716e-55
1.9587155e-55
1.9587165e-55
1.9587199e-55
1.9587302e-55
1.9591643e-55
1.9588589e-55
1.9587326e-55
1.9586881e-55
1.9586748e-55
1.9586715e-55
1.9586711e-55
1.9586721e-55
1.9586757e-55
1.9586864e-55
1.959151e-55
1.9588456e-55
1.9587193e-55
1.9586748e-55
1.9586616e-55
1.9586583e-55
1.9586579e-55
1.9586589e-55
1.9586626e-55
1.9586733e-55
1.9591477e-55
1.9588423e-55
1.958716e-55
1.9586715e-55
1.9586583e-55
1.958655e-55
1.9586546e-55
1.9586556e-55
1.9586593e-55
1.95867e-55
1.9591471e-55
1.9588418e-55
1.9587155e-55
1.9586711e-55
1.9586579e-55
1.9586546e-55
1.9586542e-55
1.9586552e-55
1.9586589e-55
1.9586696e-55
1.9591476e-55
1.9588425e-55
1.9587165e-55
1.9586721e-55
1.9586589e-55
1.9586556e-55
1.9586552e-55
1.9586563e-55
1.9586599e-55
1.9586707e-55
1.9591495e-55
1.9588454e-55
1.9587199e-55
1.9586757e-55
1.9586626e-55
1.9586593e-55
1.9586589e-55
1.9586599e-55
1.9586636e-55
1.9586743e-55
1.9591556e-55
1.9588548e-55
1.9587302e-55
1.9586864e-55
1.9586733e-55
1.95867e-55
1.9586696e-55
1.9586707e-55
1.9586743e-55
1.9586851e-55
1.0362778e-54
1.0361212e-54
1.0360563e-54
1.0360334e-54
1.0360266e-54
1.0360248e-54
1.0360245e-54
1.0360248e-54
1.0360258e-54
1.0360288e-54
1.0361212e-54
1.0359646e-54
1.0358997e-54
1.0358769e-54
1.03587e-54
1.0358683e-54
1.0358681e-54
1.0358685e-54
1.0358699e-54
1.0358747e-54
1.0360563e-54
1.0358997e-54
1.0358348e-54
1.035812e-54
1.0358052e-54
1.0358035e-54
1.0358032e-54
1.0358037e-54
1.0358055e-54
1.0358108e-54
1.0360334e-54
1.0358769e-54
1.035812e-54
1.0357891e-54
1.0357823e-54
1.0357806e-54
1.0357804e-54
1.0357809e-54
1.0357828e-54
1.0357882e-54
1.0360266e-54
1.03587e-54
1.0358052e-54
1.0357823e-54
1.0357755e-54
1.0357738e-54
1.0357736e-54
1.0357741e-54
1.035776e-54
1.0357815e-54
1.0360248e-54
1.0358683e-54
1.0358035e-54
1.0357806e-54
1.0357738e-54
1.0357721e-54
1.0357719e-54
1.0357724e-54
1.0357743e-54
1.0357798e-54
1.0360245e-54
1.0358681e-54
1.0358032e-54
1.0357804e-54
1.0357736e-54
1.0357719e-54
1.0357717e-54
1.0357722e-54
1.0357741e-54
1.0357796e-54
1.0360248e-54
1.0358685e-54
1.0358037e-54
1.0357809e-54
1.0357741e-54
1.0357724e-54
1.0357722e-54
1.0357728e-54
1.0357747e-54
1.0357801e-54
1.0360258e-54
1.0358699e-54
1.0358055e-54
1.0357828e-54
1.035776e-54
1.0357743e-54
1.0357741e-54
1.0357747e-54
1.0357766e-54
1.035782e-54
1.0360288e-54
1.0358747e-54
1.0358108e-54
1.0357882e-54
1.0357815e-54
1.0357798e-54
1.0357796e-54
1.0357801e-54
1.035782e-54
1.0357875e-54
5.6023059e-54
5.6014859e-54
5.6011452e-54
5.601025e-54
5.6009891e-54
5.6009801e-54
5.6009785e-54
5.6009798e-54
5.6009849e-54
5.6010006e-54
5.6014859e-54
5.6006662e-54
5.6003256e-54
5.6002055e-54
5.6001696e-54
5.6001606e-54
5.6001593e-54
5.6001614e-54
5.6001692e-54
5.6001941e-54
5.6011452e-54
5.6003256e-54
5.5999851e-54
5.599865e-54
5.5998292e-54
5.5998202e-54
5.599819e-54
5.5998216e-54
5.5998308e-54
5.5998584e-54
5.601025e-54
5.6002055e-54
5.599865e-54
5.5997449e-54
5.5997091e-54
5.5997001e-54
5.599699e-54
5.5997018e-54
5.5997116e-54
5.59974e-54
5.6009891e-54
5.6001696e-54
5.5998292e-54
5.5997091e-54
5.5996733e-54
5.5996643e-54
5.5996633e-54
5.5996662e-54
5.5996761e-54
5.5997046e-54
5.6009801e-54
5.6001606e-54
5.5998202e-54
5.5997001e-54
5.5996643e-54
5.5996554e-54
5.5996543e-54
5.5996573e-54
5.5996672e-54
5.5996958e-54
5.6009785e-54
5.6001593e-54
5.599819e-54
5.599699e-54
5.5996633e-54
5.5996543e-54
5.5996533e-54
5.5996562e-54
5.5996662e-54
5.5996948e-54
5.6009798e-54
5.6001614e-54
5.5998216e-54
5.5997018e-54
5.5996662e-54
5.5996573e-54
5.5996562e-54
5.5996591e-54
5.5996691e-54
5.5996977e-54
5.6009849e-54
5.6001692e-54
5.5998308e-54
5.5997116e-54
5.5996761e-54
5.5996672e-54
5.5996662e-54
5.5996691e-54
5.5996791e-54
5.5997077e-54
5.6010006e-54
5.6001941e-54
5.5998584e-54
5.59974e-54
5.5997046e-54
5.5996958e-54
5.5996948e-54
5.5996977e-54
5.5997077e-54
5.5997363e-54
3.0962484e-53
3.0958096e-53
3.095627e-53
3.0955625e-53
3.0955432e-53
3.0955384e-53
3.0955375e-53
3.0955382e-53
3.095541e-53
3.0955492e-53
3.0958096e-53
3.0953711e-53
3.0951885e-53
3.095124e-53
3.0951048e-53
3.0951e-53
3.0950992e-53
3.0951004e-53
3.0951046e-53
3.0951178e-53
3.095627e-53
3.0951885e-53
3.0950059e-53
3.0949415e-53
3.0949222e-53
3.0949174e-53
3.0949168e-53
3.0949182e-53
3.0949232e-53
3.0949379e-53
3.0955625e-53
3.095124e-53
3.0949415e-53
3.094877e-53
3.0948578e-53
3.094853e-53
3.0948524e-53
3.0948539e-53
3.0948592e-53
3.0948743e-53
3.0955432e-53
3.0951048e-53
3.0949222e-53
3.0948578e-53
3.0948386e-53
3.0948338e-53
3.0948332e-53
3.0948348e-53
3.0948401e-53
3.0948554e-53
3.0955384e-53
3.0951e-53
3.0949174e-53
3.094853e-53
3.0948338e-53
3.094829e-53
3.0948284e-53
3.09483e-53
3.0948354e-53
3.0948506e-53
3.0955375e-53
3.0950992e-53
3.0949168e-53
3.0948524e-53
3.0948332e-53
3.0948284e-53
3.0948278e-53
3.0948294e-53
3.0948348e-53
3.0948501e-53
3.0955382e-53
3.0951004e-53
3.0949182e-53
3.0948539e-53
3.0948348e-53
3.09483e-53
3.0948294e-53
3.094831e-53
3.0948364e-53
3.0948517e-53
3.095541e-53
3.0951046e-53
3.0949232e-53
3.0948592e-53
3.0948401e-53
3.0948354e-53
3.0948348e-53
3.0948364e-53
3.0948418e-53
3.0948571e-53
3.0955492e-53
3.0951178e-53
3.0949379e-53
3.0948743e-53
3.0948554e-53
3.0948506e-53
3.0948501e-53
3.0948517e-53
3.0948571e-53
3.0948723e-53
1.7493025e-52
1.7490626e-52
1.7489626e-52
1.7489272e-52
1.7489167e-52
1.748914e-52
1.7489136e-52
1.7489139e-52
1.7489154e-52
1.7489199e-52
1.7490626e-52
1.7488229e-52
1.7487229e-52
1.7486876e-52
1.748677e-52
1.7486744e-52
1.748674e-52
1.7486746e-52
1.7486769e-52
1.7486841e-52
1.7489626e-52
1.7487229e-52
1.7486229e-52
1.7485876e-52
1.748577e-52
1.7485744e-52
1.748574e-52
1.7485748e-52
1.7485776e-52
1.7485856e-52
1.7489272e-52
1.7486876e-52
1.7485876e-52
1.7485522e-52
1.7485417e-52
1.748539e-52
1.7485387e-52
1.7485396e-52
1.7485425e-52
1.7485508e-52
1.7489167e-52
1.748677e-52
1.748577e-52
1.7485417e-52
1.7485311e-52
1.7485285e-52
1.7485282e-52
1.7485291e-52
1.748532e-52
1.7485404e-52
1.748914e-52
1.7486744e-52
1.7485744e-52
1.748539e-52
1.7485285e-52
1.7485259e-52
1.7485256e-52
1.7485265e-52
1.7485294e-52
1.7485378e-52
1.7489136e-52
1.748674e-52
1.748574e-52
1.7485387e-52
1.7485282e-52
1.7485256e-52
1.7485253e-52
1.7485261e-52
1.7485291e-52
1.7485375e-52
1.7489139e-52
1.7486746e-52
1.7485748e-52
1.7485396e-52
1.7485291e-52
1.7485265e-52
1.7485261e-52
1.748527e-52
1.74853e-52
1.7485383e-52
1.7489154e-52
1.7486769e-52
1.7485776e-52
1.7485425e-52
1.748532e-52
1.7485294e-52
1.7485291e-52
1.74853e-52
1.748533e-52
1.7485413e-52
1.7489199e-52
1.7486841e-52
1.7485856e-52
1.7485508e-52
1.7485404e-52
1.7485378e-52
1.7485375e-52
1.7485383e-52
1.7485413e-52
1.7485497e-52
1.010253e-51
1.0101191e-51
1.0100631e-51
1.0100433e-51
1.0100374e-51
1.0100359e-51
1.0100356e-51
1.0100359e-51
1.0100367e-51
1.0100391e-51
1.0101191e-51
1.0099852e-51
1.0099293e-51
1.0099095e-51
1.0099036e-51
1.0099021e-51
1.0099019e-51
1.0099022e-51
1.0099035e-51
1.0099075e-51
1.0100631e-51
1.0099293e-51
1.0098733e-51
1.0098535e-51
1.0098476e-51
1.0098461e-51
1.0098459e-51
1.0098464e-51
1.0098479e-51
1.0098524e-51
1.0100433e-51
1.0099095e-51
1.0098535e-51
1.0098337e-51
1.0098278e-51
1.0098263e-51
1.0098262e-51
1.0098266e-51
1.0098283e-51
1.0098329e-51
1.0100374e-51
1.0099036e-51
1.0098476e-51
1.0098278e-51
1.0098219e-51
1.0098204e-51
1.0098203e-51
1.0098208e-51
1.0098224e-51
1.0098271e-51
1.0100359e-51
1.0099021e-51
1.0098461e-51
1.0098263e-51
1.0098204e-51
1.009819e-51
1.0098188e-51
1.0098193e-51
1.009821e-51
1.0098256e-51
1.0100356e-51
1.0099019e-51
1.0098459e-51
1.0098262e-51
1.0098203e-51
1.0098188e-51
1.0098186e-51
1.0098191e-51
1.0098208e-51
1.0098254e-51
1.0100359e-51
1.0099022e-51
1.0098464e-51
1.0098266e-51
1.0098208e-51
1.0098193e-51
1.0098191e-51
1.0098196e-51
1.0098213e-51
1.009826e-51
1.0100367e-51
1.0099035e-51
1.0098479e-51
1.0098283e-51
1.0098224e-51
1.009821e-51
1.0098208e-51
1.0098213e-51
1.009823e-51
1.0098276e-51
1.0100391e-51
1.0099075e-51
1.0098524e-51
1.0098329e-51
1.0098271e-51
1.0098256e-51
1.0098254e-51
1.009826e-51
1.0098276e-51
1.0098323e-51
5.9635039e-51
5.9627399e-51
5.9624198e-51
5.9623065e-51
5.9622727e-51
5.9622641e-51
5.9622627e-51
5.962264e-51
5.9622688e-51
5.9622824e-51
5.9627399e-51
5.9619763e-51
5.9616563e-51
5.9615431e-51
5.9615092e-51
5.9615007e-51
5.9614995e-51
5.9615015e-51
5.961509e-51
5.9615319e-51
5.9624198e-51
5.9616563e-51
5.9613364e-51
5.9612232e-51
5.9611893e-51
5.9611809e-51
5.9611798e-51
5.9611824e-51
5.9611913e-51
5.9612169e-51
5.9623065e-51
5.9615431e-51
5.9612232e-51
5.96111e-51
5.9610761e-51
5.9610677e-51
5.9610667e-51
5.9610695e-51
5.961079e-51
5.9611053e-51
5.9622727e-51
5.9615092e-51
5.9611893e-51
5.9610761e-51
5.9610423e-51
5.9610339e-51
5.9610329e-51
5.9610358e-51
5.9610455e-51
5.961072e-51
5.9622641e-51
5.9615007e-51
5.9611809e-51
5.9610677e-51
5.9610339e-51
5.9610255e-51
5.9610245e-51
5.9610274e-51
5.9610371e-51
5.9610637e-51
5.9622627e-51
5.9614995e-51
5.9611798e-51
5.9610667e-51
5.9610329e-51
5.9610245e-51
5.9610236e-51
5.9610265e-51
5.9610362e-51
5.9610627e-51
5.962264e-51
5.9615015e-51
5.9611824e-51
5.9610695e-51
5.9610358e-51
5.9610274e-51
5.9610265e-51
5.9610294e-51
5.9610391e-51
5.9610656e-51
5.9622688e-51
5.961509e-51
5.9611913e-51
5.961079e-51
5.9610455e-51
5.9610371e-51
5.9610362e-51
5.9610391e-51
5.9610488e-51
5.9610753e-51
5.9622824e-51
5.9615319e-51
5.9612169e-51
5.9611053e-51
5.961072e-51
5.9610637e-51
5.9610627e-51
5.9610656e-51
5.9610753e-51
5.9611019e-51
3.5978468e-50
3.5974017e-50
3.5972148e-50
3.5971486e-50
3.5971288e-50
3.5971238e-50
3.597123e-50
3.5971238e-50
3.5971266e-50
3.5971344e-50
3.5974017e-50
3.5969567e-50
3.5967699e-50
3.5967038e-50
3.596684e-50
3.596679e-50
3.5966783e-50
3.5966795e-50
3.5966839e-50
3.5966972e-50
3.5972148e-50
3.5967699e-50
3.5965832e-50
3.596517e-50
3.5964972e-50
3.5964923e-50
3.5964917e-50
3.5964932e-50
3.5964985e-50
3.5965134e-50
3.5971486e-50
3.5967038e-50
3.596517e-50
3.5964509e-50
3.5964311e-50
3.5964262e-50
3.5964256e-50
3.5964273e-50
3.5964328e-50
3.5964482e-50
3.5971288e-50
3.596684e-50
3.5964972e-50
3.5964311e-50
3.5964113e-50
3.5964064e-50
3.5964059e-50
3.5964076e-50
3.5964132e-50
3.5964287e-50
3.5971238e-50
3.596679e-50
3.5964923e-50
3.5964262e-50
3.5964064e-50
3.5964015e-50
3.5964009e-50
3.5964027e-50
3.5964084e-50
3.5964239e-50
3.597123e-50
3.5966783e-50
3.5964917e-50
3.5964256e-50
3.5964059e-50
3.5964009e-50
3.5964004e-50
3.5964021e-50
3.5964078e-50
3.5964233e-50
3.5971238e-50
3.5966795e-50
3.5964932e-50
3.5964273e-50
3.5964076e-50
3.5964027e-50
3.5964021e-50
3.5964038e-50
3.5964095e-50
3.5964251e-50
3.5971266e-50
3.5966839e-50
3.5964985e-50
3.5964328e-50
3.5964132e-50
3.5964084e-50
3.5964078e-50
3.5964095e-50
3.5964153e-50
3.5964308e-50
3.5971344e-50
3.5966972e-50
3.5965134e-50
3.5964482e-50
3.5964287e-50
3.5964239e-50
3.5964233e-50
3.5964251e-50
3.5964308e-50
3.5964463e-50
2.2182521e-49
2.2179872e-49
2.2178758e-49
2.2178363e-49
2.2178245e-49
2.2178215e-49
2.217821e-49
2.2178215e-49
2.2178232e-49
2.2178278e-49
2.2179872e-49
2.2177225e-49
2.2176111e-49
2.2175716e-49
2.2175598e-49
2.2175568e-49
2.2175564e-49
2.2175571e-49
2.2175598e-49
2.2175677e-49
2.2178758e-49
2.2176111e-49
2.2174997e-49
2.2174602e-49
2.2174484e-49
2.2174455e-49
2.2174451e-49
2.217446e-49
2.2174492e-49
2.2174581e-49
2.2178363e-49
2.2175716e-49
2.2174602e-49
2.2174208e-49
2.217409e-49
2.217406e-49
2.2174057e-49
2.2174067e-49
2.2174101e-49
2.2174192e-49
2.2178245e-49
2.2175598e-49
2.2174484e-49
2.217409e-49
2.2173972e-49
2.2173942e-49
2.2173939e-49
2.2173949e-49
2.2173984e-49
2.2174076e-49
2.2178215e-49
2.2175568e-49
2.2174455e-49
2.217406e-49
2.2173942e-49
2.2173913e-49
2.217391e-49
2.217392e-49
2.2173955e-49
2.2174047e-49
2.217821e-49
2.2175564e-49
2.2174451e-49
2.2174057e-49
2.2173939e-49
2.217391e-49
2.2173906e-49
2.2173917e-49
2.2173951e-49
2.2174044e-49
2.2178215e-49
2.2175571e-49
2.217446e-49
2.2174067e-49
2.2173949e-49
2.217392e-49
2.2173917e-49
2.2173927e-49
2.2173962e-49
2.2174054e-49
2.2178232e-49
2.2175598e-49
2.2174492e-49
2.2174101e-49
2.2173984e-49
2.2173955e-49
2.2173951e-49
2.2173962e-49
2.2173996e-49
2.2174089e-49
2.2178278e-49
2.2175677e-49
2.2174581e-49
2.2174192e-49
2.2174076e-49
2.2174047e-49
2.2174044e-49
2.2174054e-49
2.2174089e-49
2.2174181e-49
1.3975159e-48
1.3973549e-48
1.3972871e-48
1.397263e-48
1.3972558e-48
1.397254e-48
1.3972537e-48
1.397254e-48
1.397255e-48
1.3972577e-48
1.3973549e-48
1.397194e-48
1.3971262e-48
1.3971021e-48
1.3970949e-48
1.3970931e-48
1.3970929e-48
1.3970933e-48
1.3970949e-48
1.3970998e-48
1.3972871e-48
1.3971262e-48
1.3970584e-48
1.3970343e-48
1.3970271e-48
1.3970253e-48
1.3970251e-48
1.3970257e-48
1.3970276e-48
1.3970331e-48
1.397263e-48
1.3971021e-48
1.3970343e-48
1.3970103e-48
1.3970031e-48
1.3970013e-48
1.3970011e-48
1.3970017e-48
1.3970038e-48
1.3970094e-48
1.3972558e-48
1.3970949e-48
1.3970271e-48
1.3970031e-48
1.3969959e-48
1.3969941e-48
1.3969939e-48
1.3969946e-48
1.3969967e-48
1.3970023e-48
1.397254e-48
1.3970931e-48
1.3970253e-48
1.3970013e-48
1.3969941e-48
1.3969923e-48
1.3969921e-48
1.3969928e-48
1.3969949e-48
1.3970005e-48
1.3972537e-48
1.3970929e-48
1.3970251e-48
1.3970011e-48
1.3969939e-48
1.3969921e-48
1.3969919e-48
1.3969926e-48
1.3969947e-48
1.3970003e-48
1.397254e-48
1.3970933e-48
1.3970257e-48
1.3970017e-48
1.3969946e-48
1.3969928e-48
1.3969926e-48
1.3969932e-48
1.3969953e-48
1.397001e-48
1.397255e-48
1.3970949e-48
1.3970276e-48
1.3970038e-48
1.3969967e-48
1.3969949e-48
1.3969947e-48
1.3969953e-48
1.3969975e-48
1.3970031e-48
1.3972577e-48
1.3970998e-48
1.3970331e-48
1.3970094e-48
1.3970023e-48
1.3970005e-48
1.3970003e-48
1.397001e-48
1.3970031e-48
1.3970087e-48
8.9954676e-48
8.9944688e-48
8.9940472e-48
8.9938975e-48
8.9938527e-48
8.9938414e-48
8.9938396e-48
8.9938413e-48
8.9938478e-48
8.9938646e-48
8.9944688e-48
8.9934705e-48
8.993049e-48
8.9928994e-48
8.9928546e-48
8.9928434e-48
8.9928418e-48
8.9928447e-48
8.9928549e-48
8.9928848e-48
8.9940472e-48
8.993049e-48
8.9926276e-48
8.992478e-48
8.9924332e-48
8.9924221e-48
8.9924207e-48
8.9924243e-48
8.9924366e-48
8.9924703e-48
8.9938975e-48
8.9928994e-48
8.992478e-48
8.9923284e-48
8.9922837e-48
8.9922725e-48
8.9922713e-48
8.9922752e-48
8.9922882e-48
8.992323e-48
8.9938527e-48
8.9928546e-48
8.9924332e-48
8.9922837e-48
8.9922389e-48
8.9922278e-48
8.9922266e-48
8.9922306e-48
8.9922439e-48
8.992279e-48
8.9938414e-48
8.9928434e-48
8.9924221e-48
8.9922725e-48
8.9922278e-48
8.9922167e-48
8.9922155e-48
8.9922195e-48
8.9922329e-48
8.992268e-48
8.9938396e-48
8.9928418e-48
8.9924207e-48
8.9922713e-48
8.9922266e-48
8.9922155e-48
8.9922143e-48
8.9922184e-48
8.9922317e-48
8.9922669e-48
8.9938413e-48
8.9928447e-48
8.9924243e-48
8.9922752e-48
8.9922306e-48
8.9922195e-48
8.9922184e-48
8.9922224e-48
8.9922358e-48
8.9922709e-48
8.9938478e-48
8.9928549e-48
8.9924366e-48
8.9922882e-48
8.9922439e-48
8.9922329e-48
8.9922317e-48
8.9922358e-48
8.9922491e-48
8.9922843e-48
8.9938646e-48
8.9928848e-48
8.9924703e-48
8.992323e-48
8.992279e-48
8.992268e-48
8.9922669e-48
8.9922709e-48
8.9922843e-48
8.9923195e-48
5.9149107e-47
5.9142781e-47
5.9140106e-47
5.9139156e-47
5.9138871e-47
5.9138799e-47
5.9138788e-47
5.9138799e-47
5.913884e-47
5.9138946e-47
5.9142781e-47
5.9136458e-47
5.9133784e-47
5.9132834e-47
5.913255e-47
5.9132478e-47
5.9132468e-47
5.9132487e-47
5.9132552e-47
5.9132742e-47
5.9140106e-47
5.9133784e-47
5.913111e-47
5.913016e-47
5.9129876e-47
5.9129805e-47
5.9129796e-47
5.912982e-47
5.9129899e-47
5.9130113e-47
5.9139156e-47
5.9132834e-47
5.913016e-47
5.912921e-47
5.9128926e-47
5.9128855e-47
5.9128848e-47
5.9128873e-47
5.9128957e-47
5.9129178e-47
5.9138871e-47
5.913255e-47
5.9129876e-47
5.9128926e-47
5.9128642e-47
5.9128571e-47
5.9128564e-47
5.912859e-47
5.9128675e-47
5.9128899e-47
5.9138799e-47
5.9132478e-47
5.9129805e-47
5.9128855e-47
5.9128571e-47
5.9128501e-47
5.9128493e-47
5.912852e-47
5.9128605e-47
5.9128829e-47
5.9138788e-47
5.9132468e-47
5.9129796e-47
5.9128848e-47
5.9128564e-47
5.9128493e-47
5.9128486e-47
5.9128512e-47
5.9128598e-47
5.9128822e-47
5.9138799e-47
5.9132487e-47
5.912982e-47
5.9128873e-47
5.912859e-47
5.912852e-47
5.9128512e-47
5.9128539e-47
5.9128624e-47
5.9128848e-47
5.913884e-47
5.9132552e-47
5.9129899e-47
5.9128957e-47
5.9128675e-47
5.9128605e-47
5.9128598e-47
5.9128624e-47
5.912871e-47
5.9128934e-47
5.9138946e-47
5.9132742e-47
5.9130113e-47
5.9129178e-47
5.9128899e-47
5.9128829e-47
5.9128822e-47
5.9128848e-47
5.9128934e-47
5.9129158e-47
3.9724536e-46
3.9720447e-46
3.9718715e-46
3.9718099e-46
3.9717915e-46
3.9717868e-46
3.9717861e-46
3.9717868e-46
3.9717895e-46
3.9717963e-46
3.9720447e-46
3.971636e-46
3.9714628e-46
3.9714013e-46
3.9713828e-46
3.9713782e-46
3.9713776e-46
3.9713788e-46
3.9713831e-46
3.9713954e-46
3.9718715e-46
3.9714628e-46
3.9712897e-46
3.9712281e-46
3.9712097e-46
3.9712051e-46
3.9712045e-46
3.9712061e-46
3.9712113e-46
3.9712252e-46
3.9718099e-46
3.9714013e-46
3.9712281e-46
3.9711666e-46
3.9711481e-46
3.9711436e-46
3.9711431e-46
3.9711447e-46
3.9711502e-46
3.9711647e-46
3.9717915e-46
3.9713828e-46
3.9712097e-46
3.9711481e-46
3.9711297e-46
3.9711252e-46
3.9711247e-46
3.9711264e-46
3.971132e-46
3.9711465e-46
3.9717868e-46
3.9713782e-46
3.9712051e-46
3.9711436e-46
3.9711252e-46
3.9711206e-46
3.9711201e-46
3.9711218e-46
3.9711274e-46
3.971142e-46
3.9717861e-46
3.9713776e-46
3.9712045e-46
3.9711431e-46
3.9711247e-46
3.9711201e-46
3.9711196e-46
3.9711214e-46
3.971127e-46
3.9711415e-46
3.9717868e-46
3.9713788e-46
3.9712061e-46
3.9711447e-46
3.9711264e-46
3.9711218e-46
3.9711214e-46
3.9711231e-46
3.9711287e-46
3.9711433e-46
3.9717895e-46
3.9713831e-46
3.9712113e-46
3.9711502e-46
3.971132e-46
3.9711274e-46
3.971127e-46
3.9711287e-46
3.9711343e-46
3.9711489e-46
3.9717963e-46
3.9713954e-46
3.9712252e-46
3.9711647e-46
3.9711465e-46
3.971142e-46
3.9711415e-46
3.9711433e-46