/*--------------------------------*- C++ -*----------------------------------*\
| =========                 |                                                 |
| \\      /  F ield         | OpenFOAM: The Open Source CFD Toolbox           |
|  \\    /   O peration     | Version:  dev                                   |
|   \\  /    A nd           | Web:      www.OpenFOAM.org                      |
|    \\/     M anipulation  |                                                 |
\*---------------------------------------------------------------------------*/
FoamFile
{
    version     2.0;
    format      ascii;
    class       volScalarField;
    location    "29";
    object      A;
}
// * * * * * * * * * * * * * * * * * * * * * * * * * * * * * * * * * * * * * //

dimensions      [0 0 0 0 1 0 0];

internalField   nonuniform List<scalar> 
10000
(
1.1423946e-44
1.1423178e-44
1.1422796e-44
1.1422611e-44
1.1422528e-44
1.1422496e-44
1.1422486e-44
1.1422489e-44
1.1422506e-44
1.1422555e-44
1.1423178e-44
1.142241e-44
1.1422028e-44
1.1421843e-44
1.142176e-44
1.1421728e-44
1.1421719e-44
1.1421723e-44
1.1421743e-44
1.1421802e-44
1.1422796e-44
1.1422028e-44
1.1421646e-44
1.1421461e-44
1.1421378e-44
1.1421346e-44
1.1421338e-44
1.1421343e-44
1.1421365e-44
1.1421427e-44
1.1422611e-44
1.1421843e-44
1.1421461e-44
1.1421276e-44
1.1421194e-44
1.1421161e-44
1.1421153e-44
1.1421159e-44
1.1421182e-44
1.1421246e-44
1.1422528e-44
1.142176e-44
1.1421378e-44
1.1421194e-44
1.1421111e-44
1.1421079e-44
1.1421071e-44
1.1421077e-44
1.1421101e-44
1.1421165e-44
1.1422496e-44
1.1421728e-44
1.1421346e-44
1.1421161e-44
1.1421079e-44
1.1421048e-44
1.1421039e-44
1.1421046e-44
1.142107e-44
1.1421134e-44
1.1422486e-44
1.1421719e-44
1.1421338e-44
1.1421153e-44
1.1421071e-44
1.1421039e-44
1.1421031e-44
1.1421038e-44
1.1421062e-44
1.1421126e-44
1.1422489e-44
1.1421723e-44
1.1421343e-44
1.1421159e-44
1.1421077e-44
1.1421046e-44
1.1421038e-44
1.1421044e-44
1.1421068e-44
1.1421132e-44
1.1422506e-44
1.1421743e-44
1.1421365e-44
1.1421182e-44
1.1421101e-44
1.142107e-44
1.1421062e-44
1.1421068e-44
1.1421092e-44
1.1421156e-44
1.1422555e-44
1.1421802e-44
1.1421427e-44
1.1421246e-44
1.1421165e-44
1.1421134e-44
1.1421126e-44
1.1421132e-44
1.1421156e-44
1.142122e-44
4.8334864e-44
4.8331715e-44
4.8330122e-44
4.832935e-44
4.8329006e-44
4.832887e-44
4.832883e-44
4.8328843e-44
4.8328913e-44
4.8329123e-44
4.8331715e-44
4.8328566e-44
4.8326974e-44
4.8326202e-44
4.8325858e-44
4.8325723e-44
4.8325685e-44
4.8325702e-44
4.8325787e-44
4.8326039e-44
4.8330122e-44
4.8326974e-44
4.8325382e-44
4.832461e-44
4.8324266e-44
4.8324132e-44
4.8324096e-44
4.8324118e-44
4.8324211e-44
4.8324477e-44
4.832935e-44
4.8326202e-44
4.832461e-44
4.8323838e-44
4.8323495e-44
4.8323361e-44
4.8323326e-44
4.8323351e-44
4.8323449e-44
4.832372e-44
4.8329006e-44
4.8325858e-44
4.8324266e-44
4.8323495e-44
4.8323152e-44
4.8323018e-44
4.8322984e-44
4.832301e-44
4.832311e-44
4.8323383e-44
4.832887e-44
4.8325723e-44
4.8324132e-44
4.8323361e-44
4.8323018e-44
4.8322885e-44
4.8322852e-44
4.8322878e-44
4.8322978e-44
4.8323252e-44
4.832883e-44
4.8325685e-44
4.8324096e-44
4.8323326e-44
4.8322984e-44
4.8322852e-44
4.8322818e-44
4.8322845e-44
4.8322945e-44
4.8323218e-44
4.8328843e-44
4.8325702e-44
4.8324118e-44
4.8323351e-44
4.832301e-44
4.8322878e-44
4.8322845e-44
4.8322871e-44
4.8322972e-44
4.8323245e-44
4.8328913e-44
4.8325787e-44
4.8324211e-44
4.8323449e-44
4.832311e-44
4.8322978e-44
4.8322945e-44
4.8322972e-44
4.8323073e-44
4.8323346e-44
4.8329123e-44
4.8326039e-44
4.8324477e-44
4.832372e-44
4.8323383e-44
4.8323252e-44
4.8323218e-44
4.8323245e-44
4.8323346e-44
4.832362e-44
1.4685585e-43
1.4684656e-43
1.4684183e-43
1.4683954e-43
1.4683851e-43
1.4683811e-43
1.4683799e-43
1.4683803e-43
1.4683823e-43
1.4683886e-43
1.4684656e-43
1.4683728e-43
1.4683255e-43
1.4683025e-43
1.4682923e-43
1.4682883e-43
1.4682871e-43
1.4682877e-43
1.4682902e-43
1.4682977e-43
1.4684183e-43
1.4683255e-43
1.4682782e-43
1.4682553e-43
1.468245e-43
1.468241e-43
1.46824e-43
1.4682406e-43
1.4682434e-43
1.4682513e-43
1.4683954e-43
1.4683025e-43
1.4682553e-43
1.4682323e-43
1.4682221e-43
1.4682181e-43
1.4682171e-43
1.4682178e-43
1.4682207e-43
1.4682288e-43
1.4683851e-43
1.4682923e-43
1.468245e-43
1.4682221e-43
1.4682119e-43
1.4682079e-43
1.4682069e-43
1.4682076e-43
1.4682106e-43
1.4682187e-43
1.4683811e-43
1.4682883e-43
1.468241e-43
1.4682181e-43
1.4682079e-43
1.4682039e-43
1.4682029e-43
1.4682037e-43
1.4682067e-43
1.4682148e-43
1.4683799e-43
1.4682871e-43
1.46824e-43
1.4682171e-43
1.4682069e-43
1.4682029e-43
1.4682019e-43
1.4682027e-43
1.4682057e-43
1.4682139e-43
1.4683803e-43
1.4682877e-43
1.4682406e-43
1.4682178e-43
1.4682076e-43
1.4682037e-43
1.4682027e-43
1.4682035e-43
1.4682065e-43
1.4682146e-43
1.4683823e-43
1.4682902e-43
1.4682434e-43
1.4682207e-43
1.4682106e-43
1.4682067e-43
1.4682057e-43
1.4682065e-43
1.4682095e-43
1.4682176e-43
1.4683886e-43
1.4682977e-43
1.4682513e-43
1.4682288e-43
1.4682187e-43
1.4682148e-43
1.4682139e-43
1.4682146e-43
1.4682176e-43
1.4682258e-43
4.3907566e-43
4.3904871e-43
4.3903493e-43
4.3902822e-43
4.3902523e-43
4.3902404e-43
4.390237e-43
4.390238e-43
4.390244e-43
4.3902618e-43
4.3904871e-43
4.3902177e-43
4.3900799e-43
4.3900129e-43
4.389983e-43
4.3899712e-43
4.3899679e-43
4.3899694e-43
4.3899766e-43
4.3899982e-43
4.3903493e-43
4.3900799e-43
4.3899422e-43
4.3898751e-43
4.3898452e-43
4.3898335e-43
4.3898304e-43
4.3898323e-43
4.3898403e-43
4.3898631e-43
4.3902822e-43
4.3900129e-43
4.3898751e-43
4.3898081e-43
4.3897782e-43
4.3897666e-43
4.3897635e-43
4.3897657e-43
4.3897741e-43
4.3897973e-43
4.3902523e-43
4.389983e-43
4.3898452e-43
4.3897782e-43
4.3897484e-43
4.3897367e-43
4.3897338e-43
4.389736e-43
4.3897446e-43
4.389768e-43
4.3902404e-43
4.3899712e-43
4.3898335e-43
4.3897666e-43
4.3897367e-43
4.3897251e-43
4.3897222e-43
4.3897245e-43
4.3897332e-43
4.3897566e-43
4.390237e-43
4.3899679e-43
4.3898304e-43
4.3897635e-43
4.3897338e-43
4.3897222e-43
4.3897193e-43
4.3897216e-43
4.3897303e-43
4.3897537e-43
4.390238e-43
4.3899694e-43
4.3898323e-43
4.3897657e-43
4.389736e-43
4.3897245e-43
4.3897216e-43
4.389724e-43
4.3897326e-43
4.389756e-43
4.390244e-43
4.3899766e-43
4.3898403e-43
4.3897741e-43
4.3897446e-43
4.3897332e-43
4.3897303e-43
4.3897326e-43
4.3897413e-43
4.3897647e-43
4.3902618e-43
4.3899982e-43
4.3898631e-43
4.3897973e-43
4.389768e-43
4.3897566e-43
4.3897537e-43
4.389756e-43
4.3897647e-43
4.3897882e-43
1.330813e-42
1.3307338e-42
1.3306931e-42
1.3306733e-42
1.3306644e-42
1.3306609e-42
1.3306599e-42
1.3306602e-42
1.3306619e-42
1.330667e-42
1.3307338e-42
1.3306546e-42
1.3306139e-42
1.3305941e-42
1.3305852e-42
1.3305817e-42
1.3305808e-42
1.3305812e-42
1.3305833e-42
1.3305896e-42
1.3306931e-42
1.3306139e-42
1.3305733e-42
1.3305534e-42
1.3305446e-42
1.3305411e-42
1.3305402e-42
1.3305407e-42
1.3305431e-42
1.3305497e-42
1.3306733e-42
1.3305941e-42
1.3305534e-42
1.3305336e-42
1.3305248e-42
1.3305213e-42
1.3305204e-42
1.330521e-42
1.3305235e-42
1.3305303e-42
1.3306644e-42
1.3305852e-42
1.3305446e-42
1.3305248e-42
1.3305159e-42
1.3305125e-42
1.3305116e-42
1.3305123e-42
1.3305148e-42
1.3305216e-42
1.3306609e-42
1.3305817e-42
1.3305411e-42
1.3305213e-42
1.3305125e-42
1.330509e-42
1.3305082e-42
1.3305089e-42
1.3305114e-42
1.3305182e-42
1.3306599e-42
1.3305808e-42
1.3305402e-42
1.3305204e-42
1.3305116e-42
1.3305082e-42
1.3305073e-42
1.330508e-42
1.3305106e-42
1.3305174e-42
1.3306602e-42
1.3305812e-42
1.3305407e-42
1.330521e-42
1.3305123e-42
1.3305089e-42
1.330508e-42
1.3305087e-42
1.3305112e-42
1.330518e-42
1.3306619e-42
1.3305833e-42
1.3305431e-42
1.3305235e-42
1.3305148e-42
1.3305114e-42
1.3305106e-42
1.3305112e-42
1.3305138e-42
1.3305206e-42
1.330667e-42
1.3305896e-42
1.3305497e-42
1.3305303e-42
1.3305216e-42
1.3305182e-42
1.3305174e-42
1.330518e-42
1.3305206e-42
1.3305274e-42
4.1030928e-42
4.1028561e-42
4.102734e-42
4.1026744e-42
4.1026477e-42
4.1026371e-42
4.102634e-42
4.102635e-42
4.1026402e-42
4.102655e-42
4.1028561e-42
4.1026195e-42
4.1024974e-42
4.1024378e-42
4.1024112e-42
4.1024006e-42
4.1023977e-42
4.102399e-42
4.1024054e-42
4.1024237e-42
4.102734e-42
4.1024974e-42
4.1023754e-42
4.1023158e-42
4.1022891e-42
4.1022787e-42
4.1022759e-42
4.1022776e-42
4.1022847e-42
4.1023041e-42
4.1026744e-42
4.1024378e-42
4.1023158e-42
4.1022561e-42
4.1022295e-42
4.1022191e-42
4.1022164e-42
4.1022184e-42
4.1022258e-42
4.1022456e-42
4.1026477e-42
4.1024112e-42
4.1022891e-42
4.1022295e-42
4.1022029e-42
4.1021926e-42
4.1021899e-42
4.102192e-42
4.1021995e-42
4.1022195e-42
4.1026371e-42
4.1024006e-42
4.1022787e-42
4.1022191e-42
4.1021926e-42
4.1021822e-42
4.1021796e-42
4.1021817e-42
4.1021893e-42
4.1022093e-42
4.102634e-42
4.1023977e-42
4.1022759e-42
4.1022164e-42
4.1021899e-42
4.1021796e-42
4.1021771e-42
4.1021791e-42
4.1021868e-42
4.1022068e-42
4.102635e-42
4.102399e-42
4.1022776e-42
4.1022184e-42
4.102192e-42
4.1021817e-42
4.1021791e-42
4.1021812e-42
4.1021888e-42
4.1022089e-42
4.1026402e-42
4.1024054e-42
4.1022847e-42
4.1022258e-42
4.1021995e-42
4.1021893e-42
4.1021868e-42
4.1021888e-42
4.1021965e-42
4.1022165e-42
4.102655e-42
4.1024237e-42
4.1023041e-42
4.1022456e-42
4.1022195e-42
4.1022093e-42
4.1022068e-42
4.1022089e-42
4.1022165e-42
4.1022366e-42
1.287404e-41
1.287332e-41
1.2872948e-41
1.2872765e-41
1.2872684e-41
1.2872651e-41
1.2872642e-41
1.2872645e-41
1.287266e-41
1.2872704e-41
1.287332e-41
1.2872601e-41
1.2872228e-41
1.2872046e-41
1.2871964e-41
1.2871932e-41
1.2871923e-41
1.2871927e-41
1.2871946e-41
1.2872001e-41
1.2872948e-41
1.2872228e-41
1.2871856e-41
1.2871673e-41
1.2871592e-41
1.287156e-41
1.2871551e-41
1.2871557e-41
1.2871578e-41
1.2871636e-41
1.2872765e-41
1.2872046e-41
1.2871673e-41
1.2871491e-41
1.287141e-41
1.2871378e-41
1.287137e-41
1.2871375e-41
1.2871398e-41
1.2871458e-41
1.2872684e-41
1.2871964e-41
1.2871592e-41
1.287141e-41
1.2871328e-41
1.2871296e-41
1.2871288e-41
1.2871295e-41
1.2871318e-41
1.2871378e-41
1.2872651e-41
1.2871932e-41
1.287156e-41
1.2871378e-41
1.2871296e-41
1.2871265e-41
1.2871257e-41
1.2871263e-41
1.2871286e-41
1.2871347e-41
1.2872642e-41
1.2871923e-41
1.2871551e-41
1.287137e-41
1.2871288e-41
1.2871257e-41
1.2871249e-41
1.2871255e-41
1.2871279e-41
1.2871339e-41
1.2872645e-41
1.2871927e-41
1.2871557e-41
1.2871375e-41
1.2871295e-41
1.2871263e-41
1.2871255e-41
1.2871262e-41
1.2871285e-41
1.2871345e-41
1.287266e-41
1.2871946e-41
1.2871578e-41
1.2871398e-41
1.2871318e-41
1.2871286e-41
1.2871279e-41
1.2871285e-41
1.2871308e-41
1.2871369e-41
1.2872704e-41
1.2872001e-41
1.2871636e-41
1.2871458e-41
1.2871378e-41
1.2871347e-41
1.2871339e-41
1.2871345e-41
1.2871369e-41
1.2871429e-41
4.1112461e-41
4.1110235e-41
4.1109078e-41
4.110851e-41
4.1108256e-41
4.1108155e-41
4.1108126e-41
4.1108135e-41
4.1108183e-41
4.1108316e-41
4.1110235e-41
4.1108011e-41
4.1106853e-41
4.1106286e-41
4.1106032e-41
4.1105932e-41
4.1105904e-41
4.1105916e-41
4.1105976e-41
4.1106143e-41
4.1109078e-41
4.1106853e-41
4.1105696e-41
4.1105129e-41
4.1104875e-41
4.1104775e-41
4.1104749e-41
4.1104765e-41
4.1104832e-41
4.110501e-41
4.110851e-41
4.1106286e-41
4.1105129e-41
4.1104561e-41
4.1104308e-41
4.1104209e-41
4.1104183e-41
4.1104202e-41
4.1104271e-41
4.1104454e-41
4.1108256e-41
4.1106032e-41
4.1104875e-41
4.1104308e-41
4.1104054e-41
4.1103955e-41
4.110393e-41
4.110395e-41
4.1104021e-41
4.1104205e-41
4.1108155e-41
4.1105932e-41
4.1104775e-41
4.1104209e-41
4.1103955e-41
4.1103857e-41
4.1103832e-41
4.1103852e-41
4.1103924e-41
4.1104108e-41
4.1108126e-41
4.1105904e-41
4.1104749e-41
4.1104183e-41
4.110393e-41
4.1103832e-41
4.1103808e-41
4.1103828e-41
4.11039e-41
4.1104084e-41
4.1108135e-41
4.1105916e-41
4.1104765e-41
4.1104202e-41
4.110395e-41
4.1103852e-41
4.1103828e-41
4.1103848e-41
4.110392e-41
4.1104104e-41
4.1108183e-41
4.1105976e-41
4.1104832e-41
4.1104271e-41
4.1104021e-41
4.1103924e-41
4.11039e-41
4.110392e-41
4.1103992e-41
4.1104176e-41
4.1108316e-41
4.1106143e-41
4.110501e-41
4.1104454e-41
4.1104205e-41
4.1104108e-41
4.1104084e-41
4.1104104e-41
4.1104176e-41
4.1104361e-41
1.3363307e-40
1.3362607e-40
1.3362241e-40
1.3362061e-40
1.3361981e-40
1.3361949e-40
1.336194e-40
1.3361942e-40
1.3361958e-40
1.3361999e-40
1.3362607e-40
1.3361907e-40
1.3361541e-40
1.3361361e-40
1.3361281e-40
1.3361249e-40
1.336124e-40
1.3361244e-40
1.3361263e-40
1.3361315e-40
1.3362241e-40
1.3361541e-40
1.3361176e-40
1.3360996e-40
1.3360916e-40
1.3360884e-40
1.3360876e-40
1.3360881e-40
1.3360902e-40
1.3360957e-40
1.3362061e-40
1.3361361e-40
1.3360996e-40
1.3360816e-40
1.3360736e-40
1.3360705e-40
1.3360697e-40
1.3360702e-40
1.3360724e-40
1.3360781e-40
1.3361981e-40
1.3361281e-40
1.3360916e-40
1.3360736e-40
1.3360656e-40
1.3360624e-40
1.3360616e-40
1.3360623e-40
1.3360645e-40
1.3360702e-40
1.3361949e-40
1.3361249e-40
1.3360884e-40
1.3360705e-40
1.3360624e-40
1.3360593e-40
1.3360585e-40
1.3360592e-40
1.3360614e-40
1.3360672e-40
1.336194e-40
1.336124e-40
1.3360876e-40
1.3360697e-40
1.3360616e-40
1.3360585e-40
1.3360578e-40
1.3360584e-40
1.3360607e-40
1.3360664e-40
1.3361942e-40
1.3361244e-40
1.3360881e-40
1.3360702e-40
1.3360623e-40
1.3360592e-40
1.3360584e-40
1.336059e-40
1.3360613e-40
1.3360671e-40
1.3361958e-40
1.3361263e-40
1.3360902e-40
1.3360724e-40
1.3360645e-40
1.3360614e-40
1.3360607e-40
1.3360613e-40
1.3360636e-40
1.3360693e-40
1.3361999e-40
1.3361315e-40
1.3360957e-40
1.3360781e-40
1.3360702e-40
1.3360672e-40
1.3360664e-40
1.3360671e-40
1.3360693e-40
1.3360751e-40
4.4213736e-40
4.4211493e-40
4.4210318e-40
4.420974e-40
4.420948e-40
4.4209377e-40
4.4209347e-40
4.4209356e-40
4.4209404e-40
4.4209533e-40
4.4211493e-40
4.4209252e-40
4.4208077e-40
4.4207498e-40
4.4207239e-40
4.4207137e-40
4.4207108e-40
4.4207121e-40
4.4207181e-40
4.4207345e-40
4.4210318e-40
4.4208077e-40
4.4206902e-40
4.4206324e-40
4.4206065e-40
4.4205963e-40
4.4205936e-40
4.4205953e-40
4.420602e-40
4.4206195e-40
4.420974e-40
4.4207498e-40
4.4206324e-40
4.4205745e-40
4.4205486e-40
4.4205385e-40
4.4205359e-40
4.4205378e-40
4.4205449e-40
4.4205629e-40
4.420948e-40
4.4207239e-40
4.4206065e-40
4.4205486e-40
4.4205228e-40
4.4205127e-40
4.4205101e-40
4.4205121e-40
4.4205194e-40
4.4205375e-40
4.4209377e-40
4.4207137e-40
4.4205963e-40
4.4205385e-40
4.4205127e-40
4.4205026e-40
4.4205001e-40
4.4205022e-40
4.4205094e-40
4.4205276e-40
4.4209347e-40
4.4207108e-40
4.4205936e-40
4.4205359e-40
4.4205101e-40
4.4205001e-40
4.4204976e-40
4.4204997e-40
4.420507e-40
4.4205252e-40
4.4209356e-40
4.4207121e-40
4.4205953e-40
4.4205378e-40
4.4205121e-40
4.4205022e-40
4.4204997e-40
4.4205018e-40
4.4205091e-40
4.4205273e-40
4.4209404e-40
4.4207181e-40
4.420602e-40
4.4205449e-40
4.4205194e-40
4.4205094e-40
4.420507e-40
4.4205091e-40
4.4205164e-40
4.4205346e-40
4.4209533e-40
4.4207345e-40
4.4206195e-40
4.4205629e-40
4.4205375e-40
4.4205276e-40
4.4205252e-40
4.4205273e-40
4.4205346e-40
4.4205528e-40
1.4890852e-39
1.4890121e-39
1.4889737e-39
1.4889548e-39
1.4889462e-39
1.4889429e-39
1.4889419e-39
1.4889422e-39
1.4889437e-39
1.4889478e-39
1.4890121e-39
1.4889391e-39
1.4889007e-39
1.4888817e-39
1.4888732e-39
1.4888699e-39
1.488869e-39
1.4888694e-39
1.4888713e-39
1.4888766e-39
1.4889737e-39
1.4889007e-39
1.4888623e-39
1.4888433e-39
1.4888348e-39
1.4888315e-39
1.4888306e-39
1.4888312e-39
1.4888334e-39
1.488839e-39
1.4889548e-39
1.4888817e-39
1.4888433e-39
1.4888244e-39
1.4888159e-39
1.4888126e-39
1.4888117e-39
1.4888124e-39
1.4888147e-39
1.4888205e-39
1.4889462e-39
1.4888732e-39
1.4888348e-39
1.4888159e-39
1.4888074e-39
1.4888041e-39
1.4888033e-39
1.4888039e-39
1.4888063e-39
1.4888122e-39
1.4889429e-39
1.4888699e-39
1.4888315e-39
1.4888126e-39
1.4888041e-39
1.4888008e-39
1.4888e-39
1.4888007e-39
1.4888031e-39
1.4888089e-39
1.4889419e-39
1.488869e-39
1.4888306e-39
1.4888117e-39
1.4888033e-39
1.4888e-39
1.4887992e-39
1.4887999e-39
1.4888023e-39
1.4888081e-39
1.4889422e-39
1.4888694e-39
1.4888312e-39
1.4888124e-39
1.4888039e-39
1.4888007e-39
1.4887999e-39
1.4888006e-39
1.4888029e-39
1.4888088e-39
1.4889437e-39
1.4888713e-39
1.4888334e-39
1.4888147e-39
1.4888063e-39
1.4888031e-39
1.4888023e-39
1.4888029e-39
1.4888053e-39
1.4888112e-39
1.4889478e-39
1.4888766e-39
1.488839e-39
1.4888205e-39
1.4888122e-39
1.4888089e-39
1.4888081e-39
1.4888088e-39
1.4888112e-39
1.4888171e-39
5.105197e-39
5.1049548e-39
5.104827e-39
5.1047638e-39
5.1047354e-39
5.1047242e-39
5.1047209e-39
5.1047219e-39
5.104727e-39
5.1047403e-39
5.1049548e-39
5.1047127e-39
5.1045849e-39
5.1045218e-39
5.1044934e-39
5.1044822e-39
5.1044791e-39
5.1044806e-39
5.104487e-39
5.1045043e-39
5.104827e-39
5.1045849e-39
5.1044571e-39
5.104394e-39
5.1043657e-39
5.1043545e-39
5.1043516e-39
5.1043535e-39
5.1043608e-39
5.1043793e-39
5.1047638e-39
5.1045218e-39
5.104394e-39
5.1043308e-39
5.1043025e-39
5.1042915e-39
5.1042887e-39
5.1042908e-39
5.1042985e-39
5.1043175e-39
5.1047354e-39
5.1044934e-39
5.1043657e-39
5.1043025e-39
5.1042743e-39
5.1042632e-39
5.1042605e-39
5.1042627e-39
5.1042705e-39
5.1042898e-39
5.1047242e-39
5.1044822e-39
5.1043545e-39
5.1042915e-39
5.1042632e-39
5.1042522e-39
5.1042495e-39
5.1042518e-39
5.1042597e-39
5.104279e-39
5.1047209e-39
5.1044791e-39
5.1043516e-39
5.1042887e-39
5.1042605e-39
5.1042495e-39
5.1042468e-39
5.1042491e-39
5.1042571e-39
5.1042763e-39
5.1047219e-39
5.1044806e-39
5.1043535e-39
5.1042908e-39
5.1042627e-39
5.1042518e-39
5.1042491e-39
5.1042514e-39
5.1042594e-39
5.1042787e-39
5.104727e-39
5.104487e-39
5.1043608e-39
5.1042985e-39
5.1042705e-39
5.1042597e-39
5.1042571e-39
5.1042594e-39
5.1042673e-39
5.1042866e-39
5.1047403e-39
5.1045043e-39
5.1043793e-39
5.1043175e-39
5.1042898e-39
5.104279e-39
5.1042763e-39
5.1042787e-39
5.1042866e-39
5.1043059e-39
1.7817332e-38
1.7816516e-38
1.7816083e-38
1.7815869e-38
1.7815772e-38
1.7815734e-38
1.7815723e-38
1.7815727e-38
1.7815744e-38
1.7815788e-38
1.7816516e-38
1.7815699e-38
1.7815267e-38
1.7815053e-38
1.7814956e-38
1.7814918e-38
1.7814908e-38
1.7814913e-38
1.7814935e-38
1.7814992e-38
1.7816083e-38
1.7815267e-38
1.7814834e-38
1.781462e-38
1.7814524e-38
1.7814486e-38
1.7814476e-38
1.7814483e-38
1.7814507e-38
1.7814569e-38
1.7815869e-38
1.7815053e-38
1.781462e-38
1.7814406e-38
1.781431e-38
1.7814272e-38
1.7814263e-38
1.781427e-38
1.7814296e-38
1.781436e-38
1.7815772e-38
1.7814956e-38
1.7814524e-38
1.781431e-38
1.7814214e-38
1.7814176e-38
1.7814167e-38
1.7814175e-38
1.7814201e-38
1.7814266e-38
1.7815734e-38
1.7814918e-38
1.7814486e-38
1.7814272e-38
1.7814176e-38
1.7814139e-38
1.781413e-38
1.7814138e-38
1.7814165e-38
1.7814229e-38
1.7815723e-38
1.7814908e-38
1.7814476e-38
1.7814263e-38
1.7814167e-38
1.781413e-38
1.7814121e-38
1.7814129e-38
1.7814156e-38
1.781422e-38
1.7815727e-38
1.7814913e-38
1.7814483e-38
1.781427e-38
1.7814175e-38
1.7814138e-38
1.7814129e-38
1.7814137e-38
1.7814164e-38
1.7814228e-38
1.7815744e-38
1.7814935e-38
1.7814507e-38
1.7814296e-38
1.7814201e-38
1.7814165e-38
1.7814156e-38
1.7814164e-38
1.7814191e-38
1.7814255e-38
1.7815788e-38
1.7814992e-38
1.7814569e-38
1.781436e-38
1.7814266e-38
1.7814229e-38
1.781422e-38
1.7814228e-38
1.7814255e-38
1.781432e-38
6.3301136e-38
6.3298334e-38
6.3296844e-38
6.3296105e-38
6.3295772e-38
6.3295641e-38
6.3295602e-38
6.3295614e-38
6.3295673e-38
6.3295821e-38
6.3298334e-38
6.3295532e-38
6.3294043e-38
6.3293304e-38
6.3292972e-38
6.3292841e-38
6.3292805e-38
6.3292822e-38
6.3292897e-38
6.3293093e-38
6.3296844e-38
6.3294043e-38
6.3292553e-38
6.3291815e-38
6.3291483e-38
6.3291353e-38
6.3291319e-38
6.3291341e-38
6.3291426e-38
6.3291638e-38
6.3296105e-38
6.3293304e-38
6.3291815e-38
6.3291076e-38
6.3290745e-38
6.3290615e-38
6.3290583e-38
6.3290608e-38
6.3290698e-38
6.3290915e-38
6.3295772e-38
6.3292972e-38
6.3291483e-38
6.3290745e-38
6.3290414e-38
6.3290284e-38
6.3290252e-38
6.3290279e-38
6.3290371e-38
6.329059e-38
6.3295641e-38
6.3292841e-38
6.3291353e-38
6.3290615e-38
6.3290284e-38
6.3290155e-38
6.3290124e-38
6.3290151e-38
6.3290244e-38
6.3290464e-38
6.3295602e-38
6.3292805e-38
6.3291319e-38
6.3290583e-38
6.3290252e-38
6.3290124e-38
6.3290093e-38
6.329012e-38
6.3290213e-38
6.3290433e-38
6.3295614e-38
6.3292822e-38
6.3291341e-38
6.3290608e-38
6.3290279e-38
6.3290151e-38
6.329012e-38
6.3290148e-38
6.3290241e-38
6.3290461e-38
6.3295673e-38
6.3292897e-38
6.3291426e-38
6.3290698e-38
6.3290371e-38
6.3290244e-38
6.3290213e-38
6.3290241e-38
6.3290334e-38
6.3290554e-38
6.3295821e-38
6.3293093e-38
6.3291638e-38
6.3290915e-38
6.329059e-38
6.3290464e-38
6.3290433e-38
6.3290461e-38
6.3290554e-38
6.3290775e-38
2.2893646e-37
2.2892668e-37
2.2892146e-37
2.2891887e-37
2.289177e-37
2.2891723e-37
2.289171e-37
2.2891714e-37
2.2891735e-37
2.2891785e-37
2.2892668e-37
2.289169e-37
2.2891168e-37
2.2890909e-37
2.2890792e-37
2.2890746e-37
2.2890733e-37
2.2890739e-37
2.2890766e-37
2.2890833e-37
2.2892146e-37
2.2891168e-37
2.2890646e-37
2.2890387e-37
2.289027e-37
2.2890225e-37
2.2890213e-37
2.2890221e-37
2.2890251e-37
2.2890324e-37
2.2891887e-37
2.2890909e-37
2.2890387e-37
2.2890128e-37
2.2890011e-37
2.2889966e-37
2.2889955e-37
2.2889963e-37
2.2889995e-37
2.289007e-37
2.289177e-37
2.2890792e-37
2.289027e-37
2.2890011e-37
2.2889895e-37
2.288985e-37
2.2889839e-37
2.2889848e-37
2.288988e-37
2.2889956e-37
2.2891723e-37
2.2890746e-37
2.2890225e-37
2.2889966e-37
2.288985e-37
2.2889804e-37
2.2889793e-37
2.2889803e-37
2.2889836e-37
2.2889912e-37
2.289171e-37
2.2890733e-37
2.2890213e-37
2.2889955e-37
2.2889839e-37
2.2889793e-37
2.2889783e-37
2.2889792e-37
2.2889825e-37
2.2889901e-37
2.2891714e-37
2.2890739e-37
2.2890221e-37
2.2889963e-37
2.2889848e-37
2.2889803e-37
2.2889792e-37
2.2889802e-37
2.2889835e-37
2.2889911e-37
2.2891735e-37
2.2890766e-37
2.2890251e-37
2.2889995e-37
2.288988e-37
2.2889836e-37
2.2889825e-37
2.2889835e-37
2.2889868e-37
2.2889944e-37
2.2891785e-37
2.2890833e-37
2.2890324e-37
2.289007e-37
2.2889956e-37
2.2889912e-37
2.2889901e-37
2.2889911e-37
2.2889944e-37
2.2890021e-37
8.4283656e-37
8.4280181e-37
8.4278321e-37
8.4277395e-37
8.4276978e-37
8.4276813e-37
8.4276765e-37
8.427678e-37
8.4276853e-37
8.4277029e-37
8.4280181e-37
8.4276707e-37
8.4274847e-37
8.4273922e-37
8.4273505e-37
8.4273341e-37
8.4273296e-37
8.4273318e-37
8.4273411e-37
8.427365e-37
8.4278321e-37
8.4274847e-37
8.4272988e-37
8.4272063e-37
8.4271646e-37
8.4271483e-37
8.4271441e-37
8.4271469e-37
8.4271576e-37
8.4271835e-37
8.4277395e-37
8.4273922e-37
8.4272063e-37
8.4271138e-37
8.4270722e-37
8.427056e-37
8.4270519e-37
8.4270551e-37
8.4270664e-37
8.4270931e-37
8.4276978e-37
8.4273505e-37
8.4271646e-37
8.4270722e-37
8.4270307e-37
8.4270144e-37
8.4270105e-37
8.4270139e-37
8.4270254e-37
8.4270524e-37
8.4276813e-37
8.4273341e-37
8.4271483e-37
8.427056e-37
8.4270144e-37
8.4269983e-37
8.4269944e-37
8.4269979e-37
8.4270095e-37
8.4270365e-37
8.4276765e-37
8.4273296e-37
8.4271441e-37
8.4270519e-37
8.4270105e-37
8.4269944e-37
8.4269905e-37
8.426994e-37
8.4270057e-37
8.4270327e-37
8.427678e-37
8.4273318e-37
8.4271469e-37
8.4270551e-37
8.4270139e-37
8.4269979e-37
8.426994e-37
8.4269976e-37
8.4270093e-37
8.4270363e-37
8.4276853e-37
8.4273411e-37
8.4271576e-37
8.4270664e-37
8.4270254e-37
8.4270095e-37
8.4270057e-37
8.4270093e-37
8.427021e-37
8.427048e-37
8.4277029e-37
8.427365e-37
8.4271835e-37
8.4270931e-37
8.4270524e-37
8.4270365e-37
8.4270327e-37
8.4270363e-37
8.427048e-37
8.4270751e-37
3.1585013e-36
3.1583757e-36
3.1583083e-36
3.1582747e-36
3.1582595e-36
3.1582535e-36
3.1582518e-36
3.1582523e-36
3.158255e-36
3.1582612e-36
3.1583757e-36
3.1582502e-36
3.1581828e-36
3.1581492e-36
3.158134e-36
3.158128e-36
3.1581264e-36
3.1581272e-36
3.1581306e-36
3.1581392e-36
3.1583083e-36
3.1581828e-36
3.1581154e-36
3.1580818e-36
3.1580666e-36
3.1580607e-36
3.1580592e-36
3.1580602e-36
3.1580641e-36
3.1580734e-36
3.1582747e-36
3.1581492e-36
3.1580818e-36
3.1580482e-36
3.1580331e-36
3.1580272e-36
3.1580257e-36
3.1580269e-36
3.158031e-36
3.1580406e-36
3.1582595e-36
3.158134e-36
3.1580666e-36
3.1580331e-36
3.158018e-36
3.1580121e-36
3.1580106e-36
3.1580119e-36
3.1580161e-36
3.1580258e-36
3.1582535e-36
3.158128e-36
3.1580607e-36
3.1580272e-36
3.1580121e-36
3.1580062e-36
3.1580048e-36
3.1580061e-36
3.1580103e-36
3.15802e-36
3.1582518e-36
3.1581264e-36
3.1580592e-36
3.1580257e-36
3.1580106e-36
3.1580048e-36
3.1580034e-36
3.1580047e-36
3.158009e-36
3.1580187e-36
3.1582523e-36
3.1581272e-36
3.1580602e-36
3.1580269e-36
3.1580119e-36
3.1580061e-36
3.1580047e-36
3.158006e-36
3.1580103e-36
3.15802e-36
3.158255e-36
3.1581306e-36
3.1580641e-36
3.158031e-36
3.1580161e-36
3.1580103e-36
3.158009e-36
3.1580103e-36
3.1580145e-36
3.1580243e-36
3.1582612e-36
3.1581392e-36
3.1580734e-36
3.1580406e-36
3.1580258e-36
3.15802e-36
3.1580187e-36
3.15802e-36
3.1580243e-36
3.158034e-36
1.2047755e-35
1.2047294e-35
1.2047045e-35
1.2046921e-35
1.2046865e-35
1.2046843e-35
1.2046836e-35
1.2046839e-35
1.2046848e-35
1.2046871e-35
1.2047294e-35
1.2046832e-35
1.2046584e-35
1.204646e-35
1.2046404e-35
1.2046382e-35
1.2046376e-35
1.2046379e-35
1.2046391e-35
1.2046423e-35
1.2047045e-35
1.2046584e-35
1.2046335e-35
1.2046211e-35
1.2046155e-35
1.2046133e-35
1.2046128e-35
1.2046132e-35
1.2046146e-35
1.204618e-35
1.2046921e-35
1.204646e-35
1.2046211e-35
1.2046087e-35
1.2046031e-35
1.204601e-35
1.2046004e-35
1.2046009e-35
1.2046024e-35
1.2046059e-35
1.2046865e-35
1.2046404e-35
1.2046155e-35
1.2046031e-35
1.2045976e-35
1.2045954e-35
1.2045949e-35
1.2045953e-35
1.2045969e-35
1.2046004e-35
1.2046843e-35
1.2046382e-35
1.2046133e-35
1.204601e-35
1.2045954e-35
1.2045932e-35
1.2045927e-35
1.2045932e-35
1.2045947e-35
1.2045983e-35
1.2046836e-35
1.2046376e-35
1.2046128e-35
1.2046004e-35
1.2045949e-35
1.2045927e-35
1.2045922e-35
1.2045927e-35
1.2045942e-35
1.2045978e-35
1.2046839e-35
1.2046379e-35
1.2046132e-35
1.2046009e-35
1.2045953e-35
1.2045932e-35
1.2045927e-35
1.2045932e-35
1.2045947e-35
1.2045983e-35
1.2046848e-35
1.2046391e-35
1.2046146e-35
1.2046024e-35
1.2045969e-35
1.2045947e-35
1.2045942e-35
1.2045947e-35
1.2045963e-35
1.2045999e-35
1.2046871e-35
1.2046423e-35
1.204618e-35
1.2046059e-35
1.2046004e-35
1.2045983e-35
1.2045978e-35
1.2045983e-35
1.2045999e-35
1.2046034e-35
4.6772458e-35
4.6770732e-35
4.6769799e-35
4.6769333e-35
4.6769123e-35
4.6769039e-35
4.6769015e-35
4.6769023e-35
4.676906e-35
4.6769143e-35
4.6770732e-35
4.6769007e-35
4.6768075e-35
4.6767609e-35
4.6767398e-35
4.6767315e-35
4.6767293e-35
4.6767304e-35
4.6767352e-35
4.6767468e-35
4.6769799e-35
4.6768075e-35
4.6767143e-35
4.6766677e-35
4.6766466e-35
4.6766384e-35
4.6766363e-35
4.6766378e-35
4.6766432e-35
4.6766559e-35
4.6769333e-35
4.6767609e-35
4.6766677e-35
4.6766211e-35
4.6766001e-35
4.6765919e-35
4.6765899e-35
4.6765916e-35
4.6765973e-35
4.6766104e-35
4.6769123e-35
4.6767398e-35
4.6766466e-35
4.6766001e-35
4.6765791e-35
4.6765709e-35
4.676569e-35
4.6765708e-35
4.6765766e-35
4.6765899e-35
4.6769039e-35
4.6767315e-35
4.6766384e-35
4.6765919e-35
4.6765709e-35
4.6765628e-35
4.6765608e-35
4.6765627e-35
4.6765686e-35
4.6765819e-35
4.6769015e-35
4.6767293e-35
4.6766363e-35
4.6765899e-35
4.676569e-35
4.6765608e-35
4.6765589e-35
4.6765608e-35
4.6765667e-35
4.67658e-35
4.6769023e-35
4.6767304e-35
4.6766378e-35
4.6765916e-35
4.6765708e-35
4.6765627e-35
4.6765608e-35
4.6765626e-35
4.6765686e-35
4.6765819e-35
4.676906e-35
4.6767352e-35
4.6766432e-35
4.6765973e-35
4.6765766e-35
4.6765686e-35
4.6765667e-35
4.6765686e-35
4.6765746e-35
4.6765879e-35
4.6769143e-35
4.6767468e-35
4.6766559e-35
4.6766104e-35
4.6765899e-35
4.6765819e-35
4.67658e-35
4.6765819e-35
4.6765879e-35
4.6766012e-35
1.8479828e-34
1.8479172e-34
1.8478816e-34
1.8478638e-34
1.8478557e-34
1.8478525e-34
1.8478516e-34
1.8478519e-34
1.8478533e-34
1.8478565e-34
1.8479172e-34
1.8478516e-34
1.847816e-34
1.8477982e-34
1.8477902e-34
1.847787e-34
1.8477861e-34
1.8477866e-34
1.8477884e-34
1.8477928e-34
1.8478816e-34
1.847816e-34
1.8477805e-34
1.8477627e-34
1.8477546e-34
1.8477515e-34
1.8477507e-34
1.8477512e-34
1.8477533e-34
1.8477582e-34
1.8478638e-34
1.8477982e-34
1.8477627e-34
1.8477449e-34
1.8477368e-34
1.8477337e-34
1.8477329e-34
1.8477336e-34
1.8477358e-34
1.8477408e-34
1.8478557e-34
1.8477902e-34
1.8477546e-34
1.8477368e-34
1.8477288e-34
1.8477257e-34
1.8477249e-34
1.8477257e-34
1.8477279e-34
1.8477329e-34
1.8478525e-34
1.847787e-34
1.8477515e-34
1.8477337e-34
1.8477257e-34
1.8477226e-34
1.8477218e-34
1.8477226e-34
1.8477248e-34
1.8477299e-34
1.8478516e-34
1.8477861e-34
1.8477507e-34
1.8477329e-34
1.8477249e-34
1.8477218e-34
1.8477211e-34
1.8477218e-34
1.8477241e-34
1.8477292e-34
1.8478519e-34
1.8477866e-34
1.8477512e-34
1.8477336e-34
1.8477257e-34
1.8477226e-34
1.8477218e-34
1.8477226e-34
1.8477249e-34
1.8477299e-34
1.8478533e-34
1.8477884e-34
1.8477533e-34
1.8477358e-34
1.8477279e-34
1.8477248e-34
1.8477241e-34
1.8477249e-34
1.8477272e-34
1.8477322e-34
1.8478565e-34
1.8477928e-34
1.8477582e-34
1.8477408e-34
1.8477329e-34
1.8477299e-34
1.8477292e-34
1.8477299e-34
1.8477322e-34
1.8477372e-34
7.4299665e-34
7.4297127e-34
7.4295748e-34
7.4295056e-34
7.4294743e-34
7.4294619e-34
7.4294584e-34
7.4294596e-34
7.429465e-34
7.4294769e-34
7.4297127e-34
7.4294591e-34
7.4293212e-34
7.4292521e-34
7.4292208e-34
7.4292084e-34
7.4292051e-34
7.4292069e-34
7.4292139e-34
7.4292309e-34
7.4295748e-34
7.4293212e-34
7.4291833e-34
7.4291142e-34
7.4290829e-34
7.4290707e-34
7.4290676e-34
7.4290699e-34
7.429078e-34
7.4290966e-34
7.4295056e-34
7.4292521e-34
7.4291142e-34
7.4290451e-34
7.4290138e-34
7.4290017e-34
7.4289987e-34
7.4290013e-34
7.4290099e-34
7.4290291e-34
7.4294743e-34
7.4292208e-34
7.4290829e-34
7.4290138e-34
7.4289827e-34
7.4289705e-34
7.4289677e-34
7.4289704e-34
7.4289793e-34
7.4289987e-34
7.4294619e-34
7.4292084e-34
7.4290707e-34
7.4290017e-34
7.4289705e-34
7.4289584e-34
7.4289556e-34
7.4289584e-34
7.4289673e-34
7.4289868e-34
7.4294584e-34
7.4292051e-34
7.4290676e-34
7.4289987e-34
7.4289677e-34
7.4289556e-34
7.4289528e-34
7.4289556e-34
7.4289646e-34
7.4289841e-34
7.4294596e-34
7.4292069e-34
7.4290699e-34
7.4290013e-34
7.4289704e-34
7.4289584e-34
7.4289556e-34
7.4289585e-34
7.4289675e-34
7.428987e-34
7.429465e-34
7.4292139e-34
7.429078e-34
7.4290099e-34
7.4289793e-34
7.4289673e-34
7.4289646e-34
7.4289675e-34
7.4289765e-34
7.428996e-34
7.4294769e-34
7.4292309e-34
7.4290966e-34
7.4290291e-34
7.4289987e-34
7.4289868e-34