/*--------------------------------*- C++ -*----------------------------------*\
| =========                 |                                                 |
| \\      /  F ield         | OpenFOAM: The Open Source CFD Toolbox           |
|  \\    /   O peration     | Version:  dev                                   |
|   \\  /    A nd           | Web:      www.OpenFOAM.org                      |
|    \\/     M anipulation  |                                                 |
\*---------------------------------------------------------------------------*/
FoamFile
{
    version     2.0;
    format      ascii;
    class       volScalarField;
    location    "29";
    object      A_0;
}
// * * * * * * * * * * * * * * * * * * * * * * * * * * * * * * * * * * * * * //

dimensions      [0 0 0 0 1 0 0];

internalField   nonuniform List<scalar> 
10000
(
1.131941e-44
1.1318648e-44
1.1318269e-44
1.1318086e-44
1.1318004e-44
1.1317972e-44
1.1317963e-44
1.1317966e-44
1.1317983e-44
1.1318031e-44
1.1318648e-44
1.1317887e-44
1.1317508e-44
1.1317325e-44
1.1317243e-44
1.1317211e-44
1.1317202e-44
1.1317206e-44
1.1317227e-44
1.1317285e-44
1.1318269e-44
1.1317508e-44
1.1317129e-44
1.1316946e-44
1.1316865e-44
1.1316833e-44
1.1316824e-44
1.1316829e-44
1.1316852e-44
1.1316913e-44
1.1318086e-44
1.1317325e-44
1.1316946e-44
1.1316763e-44
1.1316682e-44
1.131665e-44
1.1316641e-44
1.1316647e-44
1.1316671e-44
1.1316733e-44
1.1318004e-44
1.1317243e-44
1.1316865e-44
1.1316682e-44
1.13166e-44
1.1316568e-44
1.131656e-44
1.1316566e-44
1.131659e-44
1.1316653e-44
1.1317972e-44
1.1317211e-44
1.1316833e-44
1.131665e-44
1.1316568e-44
1.1316537e-44
1.1316529e-44
1.1316535e-44
1.1316559e-44
1.1316622e-44
1.1317963e-44
1.1317202e-44
1.1316824e-44
1.1316641e-44
1.131656e-44
1.1316529e-44
1.1316521e-44
1.1316527e-44
1.1316551e-44
1.1316614e-44
1.1317966e-44
1.1317206e-44
1.1316829e-44
1.1316647e-44
1.1316566e-44
1.1316535e-44
1.1316527e-44
1.1316533e-44
1.1316557e-44
1.1316621e-44
1.1317983e-44
1.1317227e-44
1.1316852e-44
1.1316671e-44
1.131659e-44
1.1316559e-44
1.1316551e-44
1.1316557e-44
1.1316581e-44
1.1316645e-44
1.1318031e-44
1.1317285e-44
1.1316913e-44
1.1316733e-44
1.1316653e-44
1.1316622e-44
1.1316614e-44
1.1316621e-44
1.1316645e-44
1.1316708e-44
4.7895473e-44
4.7892351e-44
4.7890773e-44
4.7890008e-44
4.7889667e-44
4.7889532e-44
4.7889492e-44
4.7889505e-44
4.7889575e-44
4.7889782e-44
4.7892351e-44
4.7889231e-44
4.7887652e-44
4.7886887e-44
4.7886547e-44
4.7886413e-44
4.7886375e-44
4.7886392e-44
4.7886476e-44
4.7886726e-44
4.7890773e-44
4.7887652e-44
4.7886074e-44
4.7885309e-44
4.7884969e-44
4.7884836e-44
4.78848e-44
4.7884822e-44
4.7884914e-44
4.7885178e-44
4.7890008e-44
4.7886887e-44
4.7885309e-44
4.7884545e-44
4.7884205e-44
4.7884072e-44
4.7884037e-44
4.7884061e-44
4.7884159e-44
4.7884427e-44
4.7889667e-44
4.7886547e-44
4.7884969e-44
4.7884205e-44
4.7883865e-44
4.7883732e-44
4.7883699e-44
4.7883724e-44
4.7883823e-44
4.7884093e-44
4.7889532e-44
4.7886413e-44
4.7884836e-44
4.7884072e-44
4.7883732e-44
4.78836e-44
4.7883567e-44
4.7883593e-44
4.7883693e-44
4.7883963e-44
4.7889492e-44
4.7886375e-44
4.78848e-44
4.7884037e-44
4.7883699e-44
4.7883567e-44
4.7883534e-44
4.788356e-44
4.788366e-44
4.788393e-44
4.7889505e-44
4.7886392e-44
4.7884822e-44
4.7884061e-44
4.7883724e-44
4.7883593e-44
4.788356e-44
4.7883586e-44
4.7883686e-44
4.7883957e-44
4.7889575e-44
4.7886476e-44
4.7884914e-44
4.7884159e-44
4.7883823e-44
4.7883693e-44
4.788366e-44
4.7883686e-44
4.7883786e-44
4.7884057e-44
4.7889782e-44
4.7886726e-44
4.7885178e-44
4.7884427e-44
4.7884093e-44
4.7883963e-44
4.788393e-44
4.7883957e-44
4.7884057e-44
4.7884328e-44
1.4553431e-43
1.455251e-43
1.4552041e-43
1.4551813e-43
1.4551712e-43
1.4551672e-43
1.455166e-43
1.4551664e-43
1.4551684e-43
1.4551746e-43
1.455251e-43
1.4551589e-43
1.4551121e-43
1.4550893e-43
1.4550792e-43
1.4550752e-43
1.4550741e-43
1.4550746e-43
1.455077e-43
1.4550845e-43
1.4552041e-43
1.4551121e-43
1.4550652e-43
1.4550424e-43
1.4550323e-43
1.4550283e-43
1.4550273e-43
1.4550279e-43
1.4550307e-43
1.4550385e-43
1.4551813e-43
1.4550893e-43
1.4550424e-43
1.4550197e-43
1.4550096e-43
1.4550056e-43
1.4550046e-43
1.4550053e-43
1.4550082e-43
1.4550162e-43
1.4551712e-43
1.4550792e-43
1.4550323e-43
1.4550096e-43
1.4549995e-43
1.4549955e-43
1.4549945e-43
1.4549953e-43
1.4549982e-43
1.4550063e-43
1.4551672e-43
1.4550752e-43
1.4550283e-43
1.4550056e-43
1.4549955e-43
1.4549916e-43
1.4549906e-43
1.4549914e-43
1.4549943e-43
1.4550024e-43
1.455166e-43
1.4550741e-43
1.4550273e-43
1.4550046e-43
1.4549945e-43
1.4549906e-43
1.4549896e-43
1.4549904e-43
1.4549933e-43
1.4550014e-43
1.4551664e-43
1.4550746e-43
1.4550279e-43
1.4550053e-43
1.4549953e-43
1.4549914e-43
1.4549904e-43
1.4549912e-43
1.4549941e-43
1.4550022e-43
1.4551684e-43
1.455077e-43
1.4550307e-43
1.4550082e-43
1.4549982e-43
1.4549943e-43
1.4549933e-43
1.4549941e-43
1.4549971e-43
1.4550052e-43
1.4551746e-43
1.4550845e-43
1.4550385e-43
1.4550162e-43
1.4550063e-43
1.4550024e-43
1.4550014e-43
1.4550022e-43
1.4550052e-43
1.4550133e-43
4.3516907e-43
4.3514235e-43
4.3512869e-43
4.3512204e-43
4.3511908e-43
4.351179e-43
4.3511756e-43
4.3511766e-43
4.3511826e-43
4.3512002e-43
4.3514235e-43
4.3511565e-43
4.3510199e-43
4.3509534e-43
4.3509238e-43
4.3509121e-43
4.3509088e-43
4.3509103e-43
4.3509175e-43
4.3509388e-43
4.3512869e-43
4.3510199e-43
4.3508833e-43
4.3508168e-43
4.3507872e-43
4.3507756e-43
4.3507725e-43
4.3507744e-43
4.3507824e-43
4.3508049e-43
4.3512204e-43
4.3509534e-43
4.3508168e-43
4.3507504e-43
4.3507208e-43
4.3507092e-43
4.3507062e-43
4.3507084e-43
4.3507167e-43
4.3507397e-43
4.3511908e-43
4.3509238e-43
4.3507872e-43
4.3507208e-43
4.3506912e-43
4.3506797e-43
4.3506768e-43
4.350679e-43
4.3506875e-43
4.3507107e-43
4.351179e-43
4.3509121e-43
4.3507756e-43
4.3507092e-43
4.3506797e-43
4.3506682e-43
4.3506653e-43
4.3506676e-43
4.3506761e-43
4.3506994e-43
4.3511756e-43
4.3509088e-43
4.3507725e-43
4.3507062e-43
4.3506768e-43
4.3506653e-43
4.3506624e-43
4.3506647e-43
4.3506733e-43
4.3506965e-43
4.3511766e-43
4.3509103e-43
4.3507744e-43
4.3507084e-43
4.350679e-43
4.3506676e-43
4.3506647e-43
4.350667e-43
4.3506756e-43
4.3506988e-43
4.3511826e-43
4.3509175e-43
4.3507824e-43
4.3507167e-43
4.3506875e-43
4.3506761e-43
4.3506733e-43
4.3506756e-43
4.3506842e-43
4.3507074e-43
4.3512002e-43
4.3509388e-43
4.3508049e-43
4.3507397e-43
4.3507107e-43
4.3506994e-43
4.3506965e-43
4.3506988e-43
4.3507074e-43
4.3507307e-43
1.3191116e-42
1.3190331e-42
1.3189927e-42
1.3189731e-42
1.3189643e-42
1.3189608e-42
1.3189598e-42
1.3189601e-42
1.3189618e-42
1.3189669e-42
1.3190331e-42
1.3189546e-42
1.3189142e-42
1.3188946e-42
1.3188858e-42
1.3188823e-42
1.3188814e-42
1.3188818e-42
1.3188839e-42
1.3188901e-42
1.3189927e-42
1.3189142e-42
1.3188739e-42
1.3188542e-42
1.3188455e-42
1.318842e-42
1.3188411e-42
1.3188417e-42
1.318844e-42
1.3188506e-42
1.3189731e-42
1.3188946e-42
1.3188542e-42
1.3188346e-42
1.3188258e-42
1.3188224e-42
1.3188215e-42
1.3188221e-42
1.3188246e-42
1.3188313e-42
1.3189643e-42
1.3188858e-42
1.3188455e-42
1.3188258e-42
1.3188171e-42
1.3188137e-42
1.3188128e-42
1.3188134e-42
1.318816e-42
1.3188227e-42
1.3189608e-42
1.3188823e-42
1.318842e-42
1.3188224e-42
1.3188137e-42
1.3188102e-42
1.3188094e-42
1.3188101e-42
1.3188126e-42
1.3188193e-42
1.3189598e-42
1.3188814e-42
1.3188411e-42
1.3188215e-42
1.3188128e-42
1.3188094e-42
1.3188085e-42
1.3188092e-42
1.3188118e-42
1.3188185e-42
1.3189601e-42
1.3188818e-42
1.3188417e-42
1.3188221e-42
1.3188134e-42
1.3188101e-42
1.3188092e-42
1.3188099e-42
1.3188124e-42
1.3188192e-42
1.3189618e-42
1.3188839e-42
1.318844e-42
1.3188246e-42
1.318816e-42
1.3188126e-42
1.3188118e-42
1.3188124e-42
1.318815e-42
1.3188217e-42
1.3189669e-42
1.3188901e-42
1.3188506e-42
1.3188313e-42
1.3188227e-42
1.3188193e-42
1.3188185e-42
1.3188192e-42
1.3188217e-42
1.3188285e-42
4.0674513e-42
4.0672166e-42
4.0670956e-42
4.0670364e-42
4.06701e-42
4.0669995e-42
4.0669964e-42
4.0669974e-42
4.0670025e-42
4.0670172e-42
4.0672166e-42
4.066982e-42
4.066861e-42
4.0668018e-42
4.0667754e-42
4.066765e-42
4.0667621e-42
4.0667634e-42
4.0667697e-42
4.0667879e-42
4.0670956e-42
4.066861e-42
4.06674e-42
4.0666808e-42
4.0666544e-42
4.0666441e-42
4.0666413e-42
4.066643e-42
4.06665e-42
4.0666693e-42
4.0670364e-42
4.0668018e-42
4.0666808e-42
4.0666217e-42
4.0665953e-42
4.066585e-42
4.0665824e-42
4.0665843e-42
4.0665916e-42
4.0666113e-42
4.06701e-42
4.0667754e-42
4.0666544e-42
4.0665953e-42
4.066569e-42
4.0665587e-42
4.0665561e-42
4.0665581e-42
4.0665656e-42
4.0665854e-42
4.0669995e-42
4.066765e-42
4.0666441e-42
4.066585e-42
4.0665587e-42
4.0665484e-42
4.0665459e-42
4.0665479e-42
4.0665555e-42
4.0665753e-42
4.0669964e-42
4.0667621e-42
4.0666413e-42
4.0665824e-42
4.0665561e-42
4.0665459e-42
4.0665433e-42
4.0665454e-42
4.0665529e-42
4.0665728e-42
4.0669974e-42
4.0667634e-42
4.066643e-42
4.0665843e-42
4.0665581e-42
4.0665479e-42
4.0665454e-42
4.0665474e-42
4.066555e-42
4.0665749e-42
4.0670025e-42
4.0667697e-42
4.06665e-42
4.0665916e-42
4.0665656e-42
4.0665555e-42
4.0665529e-42
4.066555e-42
4.0665626e-42
4.0665825e-42
4.0670172e-42
4.0667879e-42
4.0666693e-42
4.0666113e-42
4.0665854e-42
4.0665753e-42
4.0665728e-42
4.0665749e-42
4.0665825e-42
4.0666024e-42
1.2763593e-41
1.276288e-41
1.276251e-41
1.2762329e-41
1.2762248e-41
1.2762216e-41
1.2762207e-41
1.276221e-41
1.2762225e-41
1.2762269e-41
1.276288e-41
1.2762166e-41
1.2761797e-41
1.2761616e-41
1.2761535e-41
1.2761503e-41
1.2761494e-41
1.2761498e-41
1.2761517e-41
1.2761572e-41
1.276251e-41
1.2761797e-41
1.2761427e-41
1.2761246e-41
1.2761166e-41
1.2761134e-41
1.2761125e-41
1.2761131e-41
1.2761152e-41
1.276121e-41
1.2762329e-41
1.2761616e-41
1.2761246e-41
1.2761066e-41
1.2760985e-41
1.2760953e-41
1.2760945e-41
1.2760951e-41
1.2760973e-41
1.2761032e-41
1.2762248e-41
1.2761535e-41
1.2761166e-41
1.2760985e-41
1.2760904e-41
1.2760873e-41
1.2760865e-41
1.2760871e-41
1.2760894e-41
1.2760953e-41
1.2762216e-41
1.2761503e-41
1.2761134e-41
1.2760953e-41
1.2760873e-41
1.2760841e-41
1.2760833e-41
1.276084e-41
1.2760863e-41
1.2760922e-41
1.2762207e-41
1.2761494e-41
1.2761125e-41
1.2760945e-41
1.2760865e-41
1.2760833e-41
1.2760826e-41
1.2760832e-41
1.2760855e-41
1.2760915e-41
1.276221e-41
1.2761498e-41
1.2761131e-41
1.2760951e-41
1.2760871e-41
1.276084e-41
1.2760832e-41
1.2760838e-41
1.2760861e-41
1.2760921e-41
1.2762225e-41
1.2761517e-41
1.2761152e-41
1.2760973e-41
1.2760894e-41
1.2760863e-41
1.2760855e-41
1.2760861e-41
1.2760884e-41
1.2760944e-41
1.2762269e-41
1.2761572e-41
1.276121e-41
1.2761032e-41
1.2760953e-41
1.2760922e-41
1.2760915e-41
1.2760921e-41
1.2760944e-41
1.2761004e-41
4.0764226e-41
4.0762019e-41
4.0760871e-41
4.0760308e-41
4.0760056e-41
4.0759956e-41
4.0759927e-41
4.0759935e-41
4.0759983e-41
4.0760115e-41
4.0762019e-41
4.0759812e-41
4.0758664e-41
4.0758101e-41
4.075785e-41
4.075775e-41
4.0757722e-41
4.0757735e-41
4.0757794e-41
4.075796e-41
4.0760871e-41
4.0758664e-41
4.0757517e-41
4.0756954e-41
4.0756702e-41
4.0756604e-41
4.0756577e-41
4.0756594e-41
4.0756659e-41
4.0756836e-41
4.0760308e-41
4.0758101e-41
4.0756954e-41
4.0756391e-41
4.075614e-41
4.0756042e-41
4.0756016e-41
4.0756034e-41
4.0756104e-41
4.0756284e-41
4.0760056e-41
4.075785e-41
4.0756702e-41
4.075614e-41
4.0755888e-41
4.075579e-41
4.0755766e-41
4.0755785e-41
4.0755856e-41
4.0756038e-41
4.0759956e-41
4.075775e-41
4.0756604e-41
4.0756042e-41
4.075579e-41
4.0755693e-41
4.0755668e-41
4.0755688e-41
4.0755759e-41
4.0755942e-41
4.0759927e-41
4.0757722e-41
4.0756577e-41
4.0756016e-41
4.0755766e-41
4.0755668e-41
4.0755644e-41
4.0755664e-41
4.0755735e-41
4.0755918e-41
4.0759935e-41
4.0757735e-41
4.0756594e-41
4.0756034e-41
4.0755785e-41
4.0755688e-41
4.0755664e-41
4.0755684e-41
4.0755755e-41
4.0755938e-41
4.0759983e-41
4.0757794e-41
4.0756659e-41
4.0756104e-41
4.0755856e-41
4.0755759e-41
4.0755735e-41
4.0755755e-41
4.0755827e-41
4.0756009e-41
4.0760115e-41
4.075796e-41
4.0756836e-41
4.0756284e-41
4.0756038e-41
4.0755942e-41
4.0755918e-41
4.0755938e-41
4.0756009e-41
4.0756192e-41
1.3251585e-40
1.3250891e-40
1.3250528e-40
1.325035e-40
1.325027e-40
1.3250238e-40
1.3250229e-40
1.3250232e-40
1.3250247e-40
1.3250287e-40
1.3250891e-40
1.3250196e-40
1.3249834e-40
1.3249655e-40
1.3249576e-40
1.3249544e-40
1.3249535e-40
1.3249539e-40
1.3249558e-40
1.3249609e-40
1.3250528e-40
1.3249834e-40
1.3249471e-40
1.3249293e-40
1.3249213e-40
1.3249182e-40
1.3249174e-40
1.3249179e-40
1.3249199e-40
1.3249254e-40
1.325035e-40
1.3249655e-40
1.3249293e-40
1.3249115e-40
1.3249035e-40
1.3249004e-40
1.3248996e-40
1.3249002e-40
1.3249024e-40
1.324908e-40
1.325027e-40
1.3249576e-40
1.3249213e-40
1.3249035e-40
1.3248955e-40
1.3248924e-40
1.3248917e-40
1.3248923e-40
1.3248945e-40
1.3249002e-40
1.3250238e-40
1.3249544e-40
1.3249182e-40
1.3249004e-40
1.3248924e-40
1.3248893e-40
1.3248886e-40
1.3248892e-40
1.3248914e-40
1.3248971e-40
1.3250229e-40
1.3249535e-40
1.3249174e-40
1.3248996e-40
1.3248917e-40
1.3248886e-40
1.3248878e-40
1.3248884e-40
1.3248907e-40
1.3248964e-40
1.3250232e-40
1.3249539e-40
1.3249179e-40
1.3249002e-40
1.3248923e-40
1.3248892e-40
1.3248884e-40
1.3248891e-40
1.3248913e-40
1.324897e-40
1.3250247e-40
1.3249558e-40
1.3249199e-40
1.3249024e-40
1.3248945e-40
1.3248914e-40
1.3248907e-40
1.3248913e-40
1.3248936e-40
1.3248993e-40
1.3250287e-40
1.3249609e-40
1.3249254e-40
1.324908e-40
1.3249002e-40
1.3248971e-40
1.3248964e-40
1.324897e-40
1.3248993e-40
1.324905e-40
4.384901e-40
4.3846785e-40
4.384562e-40
4.3845046e-40
4.3844788e-40
4.3844686e-40
4.3844657e-40
4.3844666e-40
4.3844713e-40
4.384484e-40
4.3846785e-40
4.3844562e-40
4.3843396e-40
4.3842822e-40
4.3842565e-40
4.3842464e-40
4.3842435e-40
4.3842448e-40
4.3842507e-40
4.384267e-40
4.384562e-40
4.3843396e-40
4.3842231e-40
4.3841657e-40
4.38414e-40
4.3841299e-40
4.3841272e-40
4.3841289e-40
4.3841356e-40
4.384153e-40
4.3845046e-40
4.3842822e-40
4.3841657e-40
4.3841083e-40
4.3840827e-40
4.3840726e-40
4.38407e-40
4.3840719e-40
4.3840789e-40
4.3840968e-40
4.3844788e-40
4.3842565e-40
4.38414e-40
4.3840827e-40
4.384057e-40
4.384047e-40
4.3840445e-40
4.3840464e-40
4.3840536e-40
4.3840716e-40
4.3844686e-40
4.3842464e-40
4.3841299e-40
4.3840726e-40
4.384047e-40
4.384037e-40
4.3840345e-40
4.3840365e-40
4.3840438e-40
4.3840618e-40
4.3844657e-40
4.3842435e-40
4.3841272e-40
4.38407e-40
4.3840445e-40
4.3840345e-40
4.3840321e-40
4.3840341e-40
4.3840414e-40
4.3840594e-40
4.3844666e-40
4.3842448e-40
4.3841289e-40
4.3840719e-40
4.3840464e-40
4.3840365e-40
4.3840341e-40
4.3840362e-40
4.3840434e-40
4.3840615e-40
4.3844713e-40
4.3842507e-40
4.3841356e-40
4.3840789e-40
4.3840536e-40
4.3840438e-40
4.3840414e-40
4.3840434e-40
4.3840507e-40
4.3840687e-40
4.384484e-40
4.384267e-40
4.384153e-40
4.3840968e-40
4.3840716e-40
4.3840618e-40
4.3840594e-40
4.3840615e-40
4.3840687e-40
4.3840868e-40
1.4769689e-39
1.4768964e-39
1.4768583e-39
1.4768395e-39
1.476831e-39
1.4768277e-39
1.4768267e-39
1.476827e-39
1.4768286e-39
1.4768326e-39
1.4768964e-39
1.476824e-39
1.4767858e-39
1.476767e-39
1.4767586e-39
1.4767553e-39
1.4767544e-39
1.4767548e-39
1.4767567e-39
1.4767619e-39
1.4768583e-39
1.4767858e-39
1.4767477e-39
1.4767289e-39
1.4767205e-39
1.4767172e-39
1.4767163e-39
1.4767169e-39
1.4767191e-39
1.4767247e-39
1.4768395e-39
1.476767e-39
1.4767289e-39
1.4767101e-39
1.4767017e-39
1.4766984e-39
1.4766976e-39
1.4766982e-39
1.4767005e-39
1.4767063e-39
1.476831e-39
1.4767586e-39
1.4767205e-39
1.4767017e-39
1.4766933e-39
1.47669e-39
1.4766892e-39
1.4766899e-39
1.4766922e-39
1.476698e-39
1.4768277e-39
1.4767553e-39
1.4767172e-39
1.4766984e-39
1.47669e-39
1.4766868e-39
1.4766859e-39
1.4766866e-39
1.476689e-39
1.4766948e-39
1.4768267e-39
1.4767544e-39
1.4767163e-39
1.4766976e-39
1.4766892e-39
1.4766859e-39
1.4766851e-39
1.4766858e-39
1.4766882e-39
1.476694e-39
1.476827e-39
1.4767548e-39
1.4767169e-39
1.4766982e-39
1.4766899e-39
1.4766866e-39
1.4766858e-39
1.4766865e-39
1.4766889e-39
1.4766947e-39
1.4768286e-39
1.4767567e-39
1.4767191e-39
1.4767005e-39
1.4766922e-39
1.476689e-39
1.4766882e-39
1.4766889e-39
1.4766912e-39
1.4766971e-39
1.4768326e-39
1.4767619e-39
1.4767247e-39
1.4767063e-39
1.476698e-39
1.4766948e-39
1.476694e-39
1.4766947e-39
1.4766971e-39
1.4767029e-39
5.0642374e-39
5.0639971e-39
5.0638702e-39
5.0638076e-39
5.0637794e-39
5.0637682e-39
5.063765e-39
5.063766e-39
5.063771e-39
5.0637842e-39
5.0639971e-39
5.0637569e-39
5.0636301e-39
5.0635674e-39
5.0635393e-39
5.0635282e-39
5.0635251e-39
5.0635265e-39
5.0635329e-39
5.0635501e-39
5.0638702e-39
5.0636301e-39
5.0635033e-39
5.0634406e-39
5.0634125e-39
5.0634015e-39
5.0633986e-39
5.0634004e-39
5.0634076e-39
5.0634261e-39
5.0638076e-39
5.0635674e-39
5.0634406e-39
5.063378e-39
5.0633499e-39
5.0633389e-39
5.0633361e-39
5.0633382e-39
5.0633458e-39
5.0633647e-39
5.0637794e-39
5.0635393e-39
5.0634125e-39
5.0633499e-39
5.0633218e-39
5.0633109e-39
5.0633081e-39
5.0633103e-39
5.0633181e-39
5.0633372e-39
5.0637682e-39
5.0635282e-39
5.0634015e-39
5.0633389e-39
5.0633109e-39
5.0632999e-39
5.0632972e-39
5.0632995e-39
5.0633074e-39
5.0633265e-39
5.063765e-39
5.0635251e-39
5.0633986e-39
5.0633361e-39
5.0633081e-39
5.0632972e-39
5.0632946e-39
5.0632969e-39
5.0633048e-39
5.0633239e-39
5.063766e-39
5.0635265e-39
5.0634004e-39
5.0633382e-39
5.0633103e-39
5.0632995e-39
5.0632969e-39
5.0632992e-39
5.0633071e-39
5.0633262e-39
5.063771e-39
5.0635329e-39
5.0634076e-39
5.0633458e-39
5.0633181e-39
5.0633074e-39
5.0633048e-39
5.0633071e-39
5.063315e-39
5.0633341e-39
5.0637842e-39
5.0635501e-39
5.0634261e-39
5.0633647e-39
5.0633372e-39
5.0633265e-39
5.0633239e-39
5.0633262e-39
5.0633341e-39
5.0633533e-39
1.7676428e-38
1.7675617e-38
1.7675188e-38
1.7674975e-38
1.767488e-38
1.7674842e-38
1.7674831e-38
1.7674834e-38
1.7674851e-38
1.7674895e-38
1.7675617e-38
1.7674807e-38
1.7674378e-38
1.7674165e-38
1.767407e-38
1.7674032e-38
1.7674022e-38
1.7674027e-38
1.7674048e-38
1.7674105e-38
1.7675188e-38
1.7674378e-38
1.7673948e-38
1.7673736e-38
1.7673641e-38
1.7673603e-38
1.7673593e-38
1.76736e-38
1.7673624e-38
1.7673686e-38
1.7674975e-38
1.7674165e-38
1.7673736e-38
1.7673524e-38
1.7673428e-38
1.7673391e-38
1.7673382e-38
1.7673389e-38
1.7673415e-38
1.7673478e-38
1.767488e-38
1.767407e-38
1.7673641e-38
1.7673428e-38
1.7673333e-38
1.7673296e-38
1.7673287e-38
1.7673294e-38
1.7673321e-38
1.7673384e-38
1.7674842e-38
1.7674032e-38
1.7673603e-38
1.7673391e-38
1.7673296e-38
1.7673259e-38
1.767325e-38
1.7673257e-38
1.7673284e-38
1.7673348e-38
1.7674831e-38
1.7674022e-38
1.7673593e-38
1.7673382e-38
1.7673287e-38
1.767325e-38
1.7673241e-38
1.7673249e-38
1.7673275e-38
1.7673339e-38
1.7674834e-38
1.7674027e-38
1.76736e-38
1.7673389e-38
1.7673294e-38
1.7673257e-38
1.7673249e-38
1.7673256e-38
1.7673283e-38
1.7673347e-38
1.7674851e-38
1.7674048e-38
1.7673624e-38
1.7673415e-38
1.7673321e-38
1.7673284e-38
1.7673275e-38
1.7673283e-38
1.767331e-38
1.7673374e-38
1.7674895e-38
1.7674105e-38
1.7673686e-38
1.7673478e-38
1.7673384e-38
1.7673348e-38
1.7673339e-38
1.7673347e-38
1.7673374e-38
1.7673438e-38
6.2807876e-38
6.2805094e-38
6.2803615e-38
6.2802882e-38
6.2802552e-38
6.2802422e-38
6.2802384e-38
6.2802395e-38
6.2802454e-38
6.28026e-38
6.2805094e-38
6.2802314e-38
6.2800835e-38
6.2800102e-38
6.2799773e-38
6.2799643e-38
6.2799607e-38
6.2799624e-38
6.2799698e-38
6.2799893e-38
6.2803615e-38
6.2800835e-38
6.2799357e-38
6.2798624e-38
6.2798295e-38
6.2798166e-38
6.2798132e-38
6.2798154e-38
6.2798239e-38
6.2798449e-38
6.2802882e-38
6.2800102e-38
6.2798624e-38
6.2797892e-38
6.2797563e-38
6.2797434e-38
6.2797402e-38
6.2797426e-38
6.2797516e-38
6.2797731e-38
6.2802552e-38
6.2799773e-38
6.2798295e-38
6.2797563e-38
6.2797234e-38
6.2797106e-38
6.2797074e-38
6.27971e-38
6.2797192e-38
6.2797409e-38
6.2802422e-38
6.2799643e-38
6.2798166e-38
6.2797434e-38
6.2797106e-38
6.2796977e-38
6.2796946e-38
6.2796973e-38
6.2797065e-38
6.2797284e-38
6.2802384e-38
6.2799607e-38
6.2798132e-38
6.2797402e-38
6.2797074e-38
6.2796946e-38
6.2796915e-38
6.2796943e-38
6.2797035e-38
6.2797253e-38
6.2802395e-38
6.2799624e-38
6.2798154e-38
6.2797426e-38
6.27971e-38
6.2796973e-38
6.2796943e-38
6.279697e-38
6.2797063e-38
6.2797281e-38
6.2802454e-38
6.2799698e-38
6.2798239e-38
6.2797516e-38
6.2797192e-38
6.2797065e-38
6.2797035e-38
6.2797063e-38
6.2797155e-38
6.2797374e-38
6.28026e-38
6.2799893e-38
6.2798449e-38
6.2797731e-38
6.2797409e-38
6.2797284e-38
6.2797253e-38
6.2797281e-38
6.2797374e-38
6.2797592e-38
2.2717935e-37
2.2716964e-37
2.2716446e-37
2.2716189e-37
2.2716073e-37
2.2716027e-37
2.2716013e-37
2.2716018e-37
2.2716038e-37
2.2716088e-37
2.2716964e-37
2.2715993e-37
2.2715475e-37
2.2715218e-37
2.2715102e-37
2.2715056e-37
2.2715044e-37
2.271505e-37
2.2715076e-37
2.2715143e-37
2.2716446e-37
2.2715475e-37
2.2714957e-37
2.27147e-37
2.2714584e-37
2.2714539e-37
2.2714527e-37
2.2714535e-37
2.2714565e-37
2.2714638e-37
2.2716189e-37
2.2715218e-37
2.27147e-37
2.2714443e-37
2.2714327e-37
2.2714282e-37
2.2714271e-37
2.271428e-37
2.2714311e-37
2.2714386e-37
2.2716073e-37
2.2715102e-37
2.2714584e-37
2.2714327e-37
2.2714212e-37
2.2714167e-37
2.2714156e-37
2.2714165e-37
2.2714197e-37
2.2714273e-37
2.2716027e-37
2.2715056e-37
2.2714539e-37
2.2714282e-37
2.2714167e-37
2.2714122e-37
2.2714111e-37
2.2714121e-37
2.2714153e-37
2.2714229e-37
2.2716013e-37
2.2715044e-37
2.2714527e-37
2.2714271e-37
2.2714156e-37
2.2714111e-37
2.27141e-37
2.271411e-37
2.2714142e-37
2.2714218e-37
2.2716018e-37
2.271505e-37
2.2714535e-37
2.271428e-37
2.2714165e-37
2.2714121e-37
2.271411e-37
2.271412e-37
2.2714152e-37
2.2714228e-37
2.2716038e-37
2.2715076e-37
2.2714565e-37
2.2714311e-37
2.2714197e-37
2.2714153e-37
2.2714142e-37
2.2714152e-37
2.2714185e-37
2.2714261e-37
2.2716088e-37
2.2715143e-37
2.2714638e-37
2.2714386e-37
2.2714273e-37
2.2714229e-37
2.2714218e-37
2.2714228e-37
2.2714261e-37
2.2714336e-37
8.3646746e-37
8.3643296e-37
8.3641449e-37
8.3640531e-37
8.3640117e-37
8.3639953e-37
8.3639905e-37
8.363992e-37
8.3639993e-37
8.3640168e-37
8.3643296e-37
8.3639847e-37
8.3638001e-37
8.3637083e-37
8.3636669e-37
8.3636506e-37
8.3636461e-37
8.3636483e-37
8.3636576e-37
8.3636813e-37
8.3641449e-37
8.3638001e-37
8.3636155e-37
8.3635237e-37
8.3634824e-37
8.3634662e-37
8.363462e-37
8.3634648e-37
8.3634754e-37
8.3635011e-37
8.3640531e-37
8.3637083e-37
8.3635237e-37
8.3634319e-37
8.3633906e-37
8.3633745e-37
8.3633705e-37
8.3633737e-37
8.3633849e-37
8.3634113e-37
8.3640117e-37
8.3636669e-37
8.3634824e-37
8.3633906e-37
8.3633494e-37
8.3633333e-37
8.3633294e-37
8.3633327e-37
8.3633442e-37
8.3633709e-37
8.3639953e-37
8.3636506e-37
8.3634662e-37
8.3633745e-37
8.3633333e-37
8.3633172e-37
8.3633134e-37
8.3633168e-37
8.3633284e-37
8.3633552e-37
8.3639905e-37
8.3636461e-37
8.363462e-37
8.3633705e-37
8.3633294e-37
8.3633134e-37
8.3633095e-37
8.363313e-37
8.3633247e-37
8.3633514e-37
8.363992e-37
8.3636483e-37
8.3634648e-37
8.3633737e-37
8.3633327e-37
8.3633168e-37
8.363313e-37
8.3633166e-37
8.3633282e-37
8.363355e-37
8.3639993e-37
8.3636576e-37
8.3634754e-37
8.3633849e-37
8.3633442e-37
8.3633284e-37
8.3633247e-37
8.3633282e-37
8.3633398e-37
8.3633666e-37
8.3640168e-37
8.3636813e-37
8.3635011e-37
8.3634113e-37
8.3633709e-37
8.3633552e-37
8.3633514e-37
8.363355e-37
8.3633666e-37
8.3633935e-37
3.1350107e-36
3.1348861e-36
3.1348191e-36
3.1347858e-36
3.1347707e-36
3.1347647e-36
3.134763e-36
3.1347636e-36
3.1347662e-36
3.1347724e-36
3.1348861e-36
3.1347614e-36
3.1346945e-36
3.1346612e-36
3.1346461e-36
3.1346402e-36
3.1346386e-36
3.1346394e-36
3.1346427e-36
3.1346512e-36
3.1348191e-36
3.1346945e-36
3.1346276e-36
3.1345942e-36
3.1345792e-36
3.1345733e-36
3.1345718e-36
3.1345728e-36
3.1345767e-36
3.134586e-36
3.1347858e-36
3.1346612e-36
3.1345942e-36
3.1345609e-36
3.1345459e-36
3.13454e-36
3.1345386e-36
3.1345398e-36
3.1345438e-36
3.1345534e-36
3.1347707e-36
3.1346461e-36
3.1345792e-36
3.1345459e-36
3.1345309e-36
3.1345251e-36
3.1345236e-36
3.1345249e-36
3.1345291e-36
3.1345387e-36
3.1347647e-36
3.1346402e-36
3.1345733e-36
3.13454e-36
3.1345251e-36
3.1345192e-36
3.1345178e-36
3.1345191e-36
3.1345233e-36
3.134533e-36
3.134763e-36
3.1346386e-36
3.1345718e-36
3.1345386e-36
3.1345236e-36
3.1345178e-36
3.1345164e-36
3.1345177e-36
3.134522e-36
3.1345316e-36
3.1347636e-36
3.1346394e-36
3.1345728e-36
3.1345398e-36
3.1345249e-36
3.1345191e-36
3.1345177e-36
3.134519e-36
3.1345233e-36
3.1345329e-36
3.1347662e-36
3.1346427e-36
3.1345767e-36
3.1345438e-36
3.1345291e-36
3.1345233e-36
3.134522e-36
3.1345233e-36
3.1345275e-36
3.1345372e-36
3.1347724e-36
3.1346512e-36
3.134586e-36
3.1345534e-36
3.1345387e-36
3.134533e-36
3.1345316e-36
3.1345329e-36
3.1345372e-36
3.1345468e-36
1.1959607e-35
1.1959148e-35
1.1958902e-35
1.1958778e-35
1.1958723e-35
1.1958701e-35
1.1958694e-35
1.1958696e-35
1.1958706e-35
1.1958729e-35
1.1959148e-35
1.195869e-35
1.1958444e-35
1.195832e-35
1.1958265e-35
1.1958243e-35
1.1958237e-35
1.195824e-35
1.1958252e-35
1.1958283e-35
1.1958902e-35
1.1958444e-35
1.1958197e-35
1.1958074e-35
1.1958018e-35
1.1957996e-35
1.1957991e-35
1.1957995e-35
1.1958009e-35
1.1958043e-35
1.1958778e-35
1.195832e-35
1.1958074e-35
1.195795e-35
1.1957895e-35
1.1957873e-35
1.1957868e-35
1.1957872e-35
1.1957888e-35
1.1957922e-35
1.1958723e-35
1.1958265e-35
1.1958018e-35
1.1957895e-35
1.195784e-35
1.1957818e-35
1.1957813e-35
1.1957817e-35
1.1957833e-35
1.1957868e-35
1.1958701e-35
1.1958243e-35
1.1957996e-35
1.1957873e-35
1.1957818e-35
1.1957796e-35
1.1957791e-35
1.1957796e-35
1.1957812e-35
1.1957847e-35
1.1958694e-35
1.1958237e-35
1.1957991e-35
1.1957868e-35
1.1957813e-35
1.1957791e-35
1.1957786e-35
1.1957791e-35
1.1957807e-35
1.1957842e-35
1.1958696e-35
1.195824e-35
1.1957995e-35
1.1957872e-35
1.1957817e-35
1.1957796e-35
1.1957791e-35
1.1957796e-35
1.1957812e-35
1.1957847e-35
1.1958706e-35
1.1958252e-35
1.1958009e-35
1.1957888e-35
1.1957833e-35
1.1957812e-35
1.1957807e-35
1.1957812e-35
1.1957827e-35
1.1957863e-35
1.1958729e-35
1.1958283e-35
1.1958043e-35
1.1957922e-35
1.1957868e-35
1.1957847e-35
1.1957842e-35
1.1957847e-35
1.1957863e-35
1.1957898e-35
4.6435938e-35
4.6434224e-35
4.6433298e-35
4.6432835e-35
4.6432626e-35
4.6432543e-35
4.6432519e-35
4.6432527e-35
4.6432564e-35
4.6432646e-35
4.6434224e-35
4.6432511e-35
4.6431585e-35
4.6431123e-35
4.6430914e-35
4.6430831e-35
4.6430809e-35
4.643082e-35
4.6430867e-35
4.6430983e-35
4.6433298e-35
4.6431585e-35
4.643066e-35
4.6430197e-35
4.6429988e-35
4.6429906e-35
4.6429885e-35
4.64299e-35
4.6429954e-35
4.643008e-35
4.6432835e-35
4.6431123e-35
4.6430197e-35
4.6429734e-35
4.6429526e-35
4.6429444e-35
4.6429424e-35
4.6429441e-35
4.6429498e-35
4.6429628e-35
4.6432626e-35
4.6430914e-35
4.6429988e-35
4.6429526e-35
4.6429318e-35
4.6429236e-35
4.6429217e-35
4.6429235e-35
4.6429293e-35
4.6429425e-35
4.6432543e-35
4.6430831e-35
4.6429906e-35
4.6429444e-35
4.6429236e-35
4.6429155e-35
4.6429136e-35
4.6429155e-35
4.6429213e-35
4.6429345e-35
4.6432519e-35
4.6430809e-35
4.6429885e-35
4.6429424e-35
4.6429217e-35
4.6429136e-35
4.6429117e-35
4.6429136e-35
4.6429195e-35
4.6429327e-35
4.6432527e-35
4.643082e-35
4.64299e-35
4.6429441e-35
4.6429235e-35
4.6429155e-35
4.6429136e-35
4.6429154e-35
4.6429214e-35
4.6429346e-35
4.6432564e-35
4.6430867e-35
4.6429954e-35
4.6429498e-35
4.6429293e-35
4.6429213e-35
4.6429195e-35
4.6429214e-35
4.6429273e-35
4.6429405e-35
4.6432646e-35
4.6430983e-35
4.643008e-35
4.6429628e-35
4.6429425e-35
4.6429345e-35
4.6429327e-35
4.6429346e-35
4.6429405e-35
4.6429537e-35
1.8349139e-34
1.8348488e-34
1.8348134e-34
1.8347958e-34
1.8347878e-34
1.8347846e-34
1.8347837e-34
1.834784e-34
1.8347854e-34
1.8347885e-34
1.8348488e-34
1.8347836e-34
1.8347483e-34
1.8347306e-34
1.8347226e-34
1.8347195e-34
1.8347186e-34
1.8347191e-34
1.8347209e-34
1.8347253e-34
1.8348134e-34
1.8347483e-34
1.834713e-34
1.8346953e-34
1.8346873e-34
1.8346842e-34
1.8346834e-34
1.834684e-34
1.8346861e-34
1.8346908e-34
1.8347958e-34
1.8347306e-34
1.8346953e-34
1.8346777e-34
1.8346697e-34
1.8346666e-34
1.8346658e-34
1.8346665e-34
1.8346687e-34
1.8346736e-34
1.8347878e-34
1.8347226e-34
1.8346873e-34
1.8346697e-34
1.8346617e-34
1.8346586e-34
1.8346579e-34
1.8346586e-34
1.8346608e-34
1.8346658e-34
1.8347846e-34
1.8347195e-34
1.8346842e-34
1.8346666e-34
1.8346586e-34
1.8346555e-34
1.8346548e-34
1.8346555e-34
1.8346578e-34
1.8346628e-34
1.8347837e-34
1.8347186e-34
1.8346834e-34
1.8346658e-34
1.8346579e-34
1.8346548e-34
1.8346541e-34
1.8346548e-34
1.8346571e-34
1.8346621e-34
1.834784e-34
1.8347191e-34
1.834684e-34
1.8346665e-34
1.8346586e-34
1.8346555e-34
1.8346548e-34
1.8346555e-34
1.8346578e-34
1.8346628e-34
1.8347854e-34
1.8347209e-34
1.8346861e-34
1.8346687e-34
1.8346608e-34
1.8346578e-34
1.8346571e-34
1.8346578e-34
1.8346601e-34
1.8346651e-34
1.8347885e-34
1.8347253e-34
1.8346908e-34
1.8346736e-34
1.8346658e-34
1.8346628e-34
1.8346621e-34
1.8346628e-34
1.8346651e-34
1.8346701e-34
7.3783433e-34
7.3780912e-34
7.3779542e-34
7.3778855e-34
7.3778544e-34
7.3778421e-34
7.3778386e-34
7.3778398e-34
7.3778452e-34
7.377857e-34
7.3780912e-34
7.3778393e-34
7.3777023e-34
7.3776336e-34
7.3776025e-34
7.3775903e-34
7.377587e-34
7.3775888e-34
7.3775958e-34
7.3776126e-34
7.3779542e-34
7.3777023e-34
7.3775653e-34
7.3774967e-34
7.3774656e-34
7.3774535e-34
7.3774504e-34
7.3774527e-34
7.3774607e-34
7.3774792e-34
7.3778855e-34
7.3776336e-34
7.3774967e-34
7.377428e-34
7.377397e-34
7.3773849e-34
7.377382e-34
7.3773846e-34
7.3773931e-34
7.3774122e-34
7.3778544e-34
7.3776025e-34
7.3774656e-34
7.377397e-34
7.3773661e-34
7.377354e-34
7.3773512e-34
7.3773539e-34
7.3773627e-34
7.377382e-34
7.3778421e-34
7.3775903e-34
7.3774535e-34
7.3773849e-34
7.377354e-34
7.377342e-34
7.3773392e-34
7.377342e-34
7.3773508e-34
7.3773702e-34
7.3778386e-34
7.377587e-34
7.3774504e-34
7.377382e-34
7.3773512e-34
7.3773392e-34
7.3773364e-34
7.3773392e-34
7.3773481e-34
7.3773674e-34
7.3778398e-34
7.3775888e-34
7.3774527e-34
7.3773846e-34
7.3773539e-34
7.377342e-34
7.3773392e-34
7.3773421e-34
7.377351e-34
7.3773704e-34
7.3778452e-34
7.3775958e-34
7.3774607e-34
7.3773931e-34
7.3773627e-34
7.3773508e-34
7.3773481e-34
7.377351e-34
7.3773599e-34
7.3773793e-34
7.377857e-34
7.3776126e-34
7.3774792e-34
7.3774122e-34
7.377382e-34
7.3773702e-34
7.3773674e-34
7.3773704e-34