/*--------------------------------*- C++ -*----------------------------------*\
| =========                 |                                                 |
| \\      /  F ield         | OpenFOAM: The Open Source CFD Toolbox           |
|  \\    /   O peration     | Version:  dev                                   |
|   \\  /    A nd           | Web:      www.OpenFOAM.org                      |
|    \\/     M anipulation  |                                                 |
\*---------------------------------------------------------------------------*/
FoamFile
{
    version     2.0;
    format      ascii;
    class       volScalarField;
    location    "7.765";
    object      A;
}
// * * * * * * * * * * * * * * * * * * * * * * * * * * * * * * * * * * * * * //

dimensions      [0 0 0 0 1 0 0];

internalField   nonuniform List<scalar> 
10000
(
0.9998188
0.99981917
0.99981955
0.99981989
0.99982018
0.9998204
0.99982055
0.99982064
0.99982069
0.99982077
0.99981917
0.99981963
0.99982008
0.99982047
0.99982079
0.99982103
0.99982118
0.99982127
0.99982129
0.99982131
0.99981955
0.99982008
0.99982059
0.99982104
0.9998214
0.99982166
0.99982181
0.99982187
0.99982184
0.99982179
0.99981989
0.99982047
0.99982104
0.99982154
0.99982193
0.9998222
0.99982235
0.99982238
0.9998223
0.9998222
0.99982018
0.99982079
0.9998214
0.99982193
0.99982234
0.99982262
0.99982276
0.99982276
0.99982265
0.99982252
0.9998204
0.99982103
0.99982166
0.9998222
0.99982262
0.9998229
0.99982303
0.99982302
0.99982289
0.99982274
0.99982055
0.99982118
0.99982181
0.99982235
0.99982276
0.99982303
0.99982316
0.99982315
0.99982301
0.99982286
0.99982064
0.99982127
0.99982187
0.99982238
0.99982276
0.99982302
0.99982315
0.99982314
0.99982302
0.99982288
0.99982069
0.99982129
0.99982184
0.9998223
0.99982265
0.99982289
0.99982301
0.99982302
0.99982293
0.99982282
0.99982077
0.99982131
0.99982179
0.9998222
0.99982252
0.99982274
0.99982286
0.99982288
0.99982282
0.99982274
0.99945132
0.99945241
0.99945353
0.99945457
0.99945544
0.99945611
0.99945656
0.99945683
0.99945698
0.99945717
0.99945241
0.99945376
0.99945509
0.99945628
0.99945725
0.99945797
0.99945844
0.99945868
0.99945873
0.99945874
0.99945353
0.99945509
0.99945664
0.999458
0.99945909
0.99945987
0.99946034
0.99946051
0.9994604
0.9994602
0.99945457
0.99945628
0.999458
0.99945951
0.9994607
0.99946152
0.99946197
0.99946204
0.99946179
0.99946144
0.99945544
0.99945725
0.99945909
0.9994607
0.99946195
0.99946279
0.99946321
0.99946322
0.99946285
0.99946241
0.99945611
0.99945797
0.99945987
0.99946152
0.99946279
0.99946364
0.99946404
0.999464
0.99946357
0.99946307
0.99945656
0.99945844
0.99946034
0.99946197
0.99946321
0.99946404
0.99946442
0.99946438
0.99946395
0.99946342
0.99945683
0.99945868
0.99946051
0.99946204
0.99946322
0.999464
0.99946438
0.99946436
0.99946398
0.99946348
0.99945698
0.99945873
0.9994604
0.99946179
0.99946285
0.99946357
0.99946395
0.99946398
0.99946369
0.99946328
0.99945717
0.99945874
0.9994602
0.99946144
0.99946241
0.99946307
0.99946342
0.99946348
0.99946328
0.99946299
0.99907458
0.99907629
0.99907815
0.99907989
0.99908136
0.99908247
0.99908322
0.99908366
0.99908386
0.99908407
0.99907629
0.99907844
0.99908065
0.99908264
0.99908428
0.99908549
0.99908628
0.99908667
0.9990867
0.99908657
0.99907815
0.99908065
0.99908324
0.99908553
0.99908737
0.99908869
0.99908947
0.99908973
0.99908948
0.99908901
0.99907989
0.99908265
0.99908553
0.99908808
0.99909008
0.99909147
0.99909221
0.99909232
0.99909182
0.99909109
0.99908136
0.99908428
0.99908737
0.99909008
0.99909219
0.99909361
0.99909431
0.99909429
0.99909361
0.99909272
0.99908247
0.99908549
0.99908869
0.99909147
0.99909361
0.99909503
0.9990957
0.99909561
0.99909483
0.99909383
0.99908322
0.99908628
0.99908947
0.99909221
0.99909431
0.9990957
0.99909634
0.99909624
0.99909544
0.99909441
0.99908366
0.99908667
0.99908973
0.99909232
0.99909429
0.99909561
0.99909624
0.99909619
0.99909548
0.99909449
0.99908386
0.9990867
0.99908948
0.99909182
0.99909361
0.99909483
0.99909544
0.99909548
0.99909494
0.99909411
0.99908407
0.99908657
0.99908901
0.99909109
0.99909272
0.99909383
0.99909441
0.99909449
0.99909411
0.99909351
0.99868847
0.99869069
0.99869327
0.99869571
0.99869777
0.99869933
0.99870037
0.99870095
0.99870115
0.99870125
0.99869069
0.99869352
0.9986966
0.9986994
0.99870171
0.99870342
0.99870451
0.99870502
0.99870496
0.99870457
0.99869327
0.9986966
0.99870022
0.99870345
0.99870604
0.9987079
0.99870898
0.99870929
0.99870883
0.99870795
0.99869571
0.99869941
0.99870345
0.99870704
0.99870987
0.99871183
0.99871285
0.99871295
0.99871213
0.99871088
0.99869777
0.99870171
0.99870604
0.99870987
0.99871286
0.99871486
0.99871582
0.99871574
0.99871466
0.99871316
0.99869933
0.99870342
0.9987079
0.99871183
0.99871486
0.99871686
0.99871778
0.99871759
0.99871636
0.99871472
0.99870037
0.99870451
0.99870898
0.99871285
0.99871582
0.99871778
0.99871866
0.99871847
0.99871722
0.99871553
0.99870095
0.99870502
0.99870929
0.99871295
0.99871574
0.99871759
0.99871847
0.99871835
0.99871722
0.9987156
0.99870115
0.99870496
0.99870883
0.99871213
0.99871466
0.99871636
0.99871722
0.99871722
0.99871635
0.99871499
0.99870125
0.99870457
0.99870795
0.99871088
0.99871316
0.99871472
0.99871553
0.9987156
0.99871499
0.99871399
0.9982928
0.99829546
0.99829871
0.99830184
0.99830449
0.99830649
0.9983078
0.99830848
0.9983086
0.9983085
0.99829546
0.99829887
0.99830277
0.99830637
0.99830935
0.99831154
0.99831292
0.9983135
0.99831326
0.99831252
0.99829871
0.99830277
0.99830737
0.99831154
0.99831489
0.99831728
0.99831864
0.99831896
0.99831819
0.9983168
0.99830184
0.99830637
0.99831154
0.99831618
0.99831985
0.99832237
0.99832365
0.99832368
0.99832243
0.99832055
0.99830449
0.99830935
0.99831489
0.99831985
0.99832372
0.9983263
0.9983275
0.99832729
0.99832569
0.99832349
0.9983065
0.99831154
0.99831728
0.99832237
0.9983263
0.99832888
0.99833001
0.99832967
0.99832789
0.99832549
0.9983078
0.99831292
0.99831864
0.99832365
0.9983275
0.99833001
0.99833111
0.99833076
0.99832895
0.9983265
0.99830848
0.9983135
0.99831896
0.99832368
0.99832729
0.99832967
0.99833076
0.99833052
0.99832888
0.99832653
0.9983086
0.99831326
0.99831819
0.99832243
0.99832569
0.99832789
0.99832895
0.99832888
0.9983276
0.99832561
0.9983085
0.99831252
0.9983168
0.99832055
0.99832349
0.99832549
0.9983265
0.99832653
0.99832561
0.99832417
0.99788738
0.9978904
0.99789429
0.99789808
0.99790131
0.99790374
0.99790529
0.99790601
0.99790597
0.99790561
0.9978904
0.99789429
0.99789897
0.99790336
0.99790699
0.99790966
0.99791128
0.99791186
0.99791136
0.9979102
0.99789429
0.99789897
0.99790451
0.9979096
0.9979137
0.99791661
0.9979182
0.99791846
0.99791728
0.99791531
0.99789808
0.99790336
0.9979096
0.99791528
0.99791977
0.99792284
0.99792434
0.99792422
0.99792245
0.99791987
0.99790131
0.99790699
0.9979137
0.99791977
0.99792452
0.99792766
0.99792905
0.99792865
0.99792644
0.99792345
0.99790374
0.99790966
0.99791661
0.99792284
0.99792766
0.9979308
0.99793211
0.99793155
0.9979291
0.99792588
0.99790529
0.99791128
0.9979182
0.99792434
0.99792905
0.99793211
0.99793339
0.99793281
0.99793035
0.99792705
0.99790601
0.99791186
0.99791846
0.99792422
0.99792865
0.99793155
0.99793281
0.99793238
0.99793014
0.997927
0.99790597
0.99791136
0.99791728
0.99792245
0.99792644
0.9979291
0.99793035
0.99793014
0.99792838
0.99792572
0.99790561
0.9979102
0.99791531
0.99791987
0.99792345
0.99792587
0.99792705
0.997927
0.99792572
0.9979238
0.99747197
0.99747531
0.99747978
0.99748422
0.997488
0.99749083
0.99749257
0.99749328
0.99749302
0.99749233
0.99747531
0.99747962
0.99748501
0.99749015
0.99749442
0.99749752
0.99749935
0.99749987
0.99749902
0.9974974
0.99747978
0.99748501
0.99749143
0.99749741
0.99750224
0.99750563
0.99750741
0.99750752
0.99750587
0.99750328
0.99748422
0.99749015
0.99749741
0.99750409
0.9975094
0.99751298
0.99751464
0.99751431
0.99751192
0.9975086
0.997488
0.99749442
0.99750224
0.9975094
0.997515
0.99751867
0.99752021
0.99751952
0.99751661
0.99751281
0.99749083
0.99749753
0.99750563
0.99751298
0.99751867
0.99752234
0.99752378
0.9975229
0.99751971
0.99751562
0.99749257
0.99749935
0.99750741
0.99751464
0.99752021
0.99752378
0.99752518
0.99752429
0.9975211
0.99751694
0.99749328
0.99749987
0.99750752
0.99751431
0.99751952
0.9975229
0.99752429
0.9975236
0.9975207
0.99751674
0.99749302
0.99749902
0.99750587
0.99751192
0.99751661
0.99751971
0.9975211
0.99752069
0.99751839
0.99751507
0.99749233
0.9974974
0.99750328
0.9975086
0.9975128
0.99751562
0.99751693
0.99751674
0.99751507
0.99751267
0.99704634
0.99704996
0.99705497
0.99706001
0.99706432
0.9970675
0.9970694
0.99707002
0.99706948
0.99706845
0.99704996
0.99705462
0.99706067
0.99706653
0.9970714
0.99707491
0.99707687
0.99707726
0.99707601
0.9970739
0.99705497
0.99706067
0.9970679
0.99707473
0.99708027
0.9970841
0.99708601
0.99708589
0.99708369
0.99708047
0.99706001
0.99706653
0.99707473
0.99708238
0.99708847
0.99709252
0.99709428
0.99709364
0.99709058
0.99708651
0.99706432
0.9970714
0.99708027
0.99708847
0.99709489
0.99709905
0.99710066
0.99709961
0.99709593
0.9970913
0.9970675
0.99707491
0.9970841
0.99709252
0.99709905
0.9971032
0.9971047
0.99710343
0.99709944
0.99709448
0.9970694
0.99707687
0.99708601
0.99709428
0.99710066
0.9971047
0.99710616
0.9971049
0.99710091
0.99709589
0.99707003
0.99707726
0.99708589
0.99709364
0.99709961
0.99710343
0.9971049
0.99710386
0.99710025
0.9970955
0.99706948
0.99707601
0.99708368
0.99709058
0.99709593
0.99709944
0.99710091
0.99710025
0.99709736
0.99709339
0.99706845
0.9970739
0.99708047
0.99708651
0.9970913
0.99709448
0.99709588
0.9970955
0.99709339
0.99709054
0.99661022
0.99661409
0.99661959
0.9966252
0.99663
0.9966335
0.99663549
0.99663598
0.99663509
0.9966337
0.99661409
0.99661906
0.99662572
0.99663224
0.99663768
0.99664154
0.99664359
0.99664377
0.99664206
0.99663947
0.99661959
0.99662572
0.9966337
0.99664133
0.99664752
0.99665174
0.99665371
0.9966533
0.99665048
0.99664665
0.9966252
0.99663224
0.99664133
0.9966499
0.99665671
0.99666117
0.99666296
0.99666194
0.99665815
0.99665336
0.99663
0.99663768
0.99664752
0.99665671
0.99666391
0.99666849
0.99667011
0.99666861
0.99666413
0.99665869
0.9966335
0.99664154
0.99665174
0.99666117
0.99666849
0.99667307
0.99667457
0.99667283
0.99666798
0.99666219
0.99663549
0.99664359
0.99665371
0.99666296
0.99667011
0.99667457
0.99667602
0.9966743
0.99666949
0.99666364
0.99663598
0.99664377
0.9966533
0.99666194
0.99666861
0.99667283
0.9966743
0.99667287
0.99666851
0.99666302
0.99663509
0.99664206
0.99665048
0.99665815
0.99666413
0.99666798
0.99666949
0.99666851
0.99666503
0.99666047
0.9966337
0.99663947
0.99664665
0.99665336
0.99665869
0.99666219
0.99666364
0.99666302
0.99666047
0.9966572
0.99616333
0.99616743
0.99617339
0.99617952
0.99618477
0.99618854
0.99619056
0.99619085
0.9961896
0.99618785
0.99616743
0.99617269
0.99617991
0.99618705
0.99619299
0.99619715
0.99619922
0.99619912
0.99619692
0.99619386
0.99617339
0.99617991
0.99618858
0.99619694
0.99620373
0.99620828
0.99621023
0.99620945
0.99620601
0.99620159
0.99617952
0.99618705
0.99619694
0.99620636
0.99621383
0.99621865
0.9962204
0.99621892
0.99621438
0.9962089
0.99618477
0.99619299
0.99620373
0.99621383
0.99622175
0.99622669
0.99622824
0.99622623
0.99622091
0.99621471
0.99618854
0.99619715
0.99620828
0.99621865
0.99622669
0.99623164
0.99623306
0.99623078
0.99622507
0.99621848
0.99619057
0.99619922
0.99621023
0.9962204
0.99622824
0.99623306
0.99623444
0.9962322
0.99622655
0.99621994
0.99619085
0.99619912
0.99620945
0.99621892
0.99622623
0.99623078
0.9962322
0.99623032
0.99622522
0.99621904
0.9961896
0.99619692
0.99620601
0.99621438
0.99622091
0.99622507
0.99622655
0.99622522
0.99622114
0.99621604
0.99618785
0.99619386
0.99620159
0.9962089
0.99621471
0.99621848
0.99621994
0.99621904
0.99621604
0.99621239
0.99570539
0.99570971
0.99571609
0.9957227
0.99572833
0.99573232
0.99573433
0.99573436
0.99573271
0.99573061
0.99570971
0.99571524
0.99572296
0.99573066
0.99573706
0.99574146
0.99574348
0.99574305
0.99574032
0.99573683
0.99571609
0.99572296
0.99573225
0.99574129
0.99574861
0.99575342
0.9957553
0.99575408
0.99574999
0.99574502
0.9957227
0.99573066
0.99574129
0.99575148
0.99575956
0.99576466
0.99576629
0.9957643
0.99575899
0.99575287
0.99572833
0.99573706
0.99574861
0.99575956
0.99576811
0.99577335
0.99577476
0.99577218
0.99576602
0.99575911
0.99573232
0.99574146
0.99575342
0.99576466
0.99577335
0.99577859
0.99577986
0.99577699
0.99577042
0.9957631
0.99573433
0.99574348
0.9957553
0.99576629
0.99577476
0.99577986
0.9957811
0.9957783
0.99577182
0.9957645
0.99573436
0.99574305
0.99575408
0.9957643
0.99577218
0.99577699
0.9957783
0.99577592
0.99577008
0.99576331
0.99573271
0.99574032
0.99574999
0.99575899
0.99576602
0.99577042
0.99577182
0.99577008
0.99576542
0.99575985
0.99573061
0.99573683
0.99574502
0.99575287
0.99575911
0.9957631
0.9957645
0.99576331
0.99575985
0.99575587
0.9952361
0.99524062
0.99524739
0.99525442
0.9952604
0.99526455
0.99526648
0.99526622
0.99526415
0.99526171
0.99524062
0.9952464
0.99525458
0.99526278
0.99526958
0.99527415
0.99527607
0.99527525
0.995272
0.99526809
0.99524739
0.99525458
0.99526445
0.99527409
0.99528187
0.99528688
0.9952886
0.99528691
0.99528216
0.99527669
0.99525442
0.99526278
0.99527409
0.99528498
0.99529358
0.99529888
0.99530033
0.99529777
0.99529171
0.99528499
0.9952604
0.99526958
0.99528187
0.99529358
0.99530269
0.99530814
0.99530934
0.99530615
0.99529916
0.99529161
0.99526455
0.99527415
0.99528688
0.99529888
0.99530814
0.9953136
0.99531465
0.99531115
0.99530374
0.99529576
0.99526648
0.99527607
0.9952886
0.99530033
0.99530934
0.99531465
0.99531568
0.99531229
0.99530501
0.99529707
0.99526622
0.99527525
0.99528691
0.99529777
0.99530615
0.99531115
0.99531229
0.99530938
0.99530285
0.99529554
0.99526415
0.995272
0.99528216
0.99529171
0.99529916
0.99530374
0.99530501
0.99530285
0.99529763
0.99529166
0.99526171
0.99526809
0.99527669
0.99528499
0.99529161
0.99529576
0.99529707
0.99529554
0.99529166
0.99528739
0.99475515
0.99475986
0.99476697
0.99477439
0.99478065
0.9947849
0.99478671
0.99478611
0.99478362
0.99478087
0.99475986
0.99476588
0.99477447
0.99478312
0.99479025
0.99479493
0.99479668
0.99479544
0.99479167
0.99478738
0.99476697
0.99477447
0.99478485
0.99479504
0.99480321
0.99480833
0.99480984
0.99480763
0.99480224
0.9947963
0.99477439
0.99478312
0.99479504
0.99480654
0.99481558
0.99482102
0.99482221
0.99481906
0.99481226
0.99480501
0.99478065
0.99479025
0.99480321
0.99481558
0.99482517
0.99483076
0.99483168
0.99482784
0.99482006
0.99481192
0.9947849
0.99479493
0.99480833
0.99482102
0.99483076
0.99483634
0.99483711
0.99483297
0.99482475
0.99481618
0.99478671
0.99479668
0.99480984
0.99482221
0.99483168
0.99483711
0.99483789
0.99483387
0.99482583
0.99481735
0.99478611
0.99479544
0.99480763
0.99481906
0.99482784
0.99483297
0.99483387
0.99483043
0.99482324
0.99481548
0.99478362
0.99479167
0.99480224
0.99481226
0.99482006
0.99482475
0.99482583
0.99482324
0.9948175
0.99481119
0.99478087
0.99478738
0.9947963
0.994805
0.99481192
0.99481618
0.99481735
0.99481548
0.99481119
0.99480668
0.9942622
0.9942671
0.99427453
0.99428227
0.99428877
0.99429307
0.9942947
0.99429374
0.99429082
0.99428777
0.9942671
0.99427335
0.99428231
0.99429135
0.99429875
0.99430347
0.99430501
0.99430332
0.99429902
0.99429438
0.99427453
0.99428232
0.99429316
0.99430381
0.99431229
0.99431746
0.9943187
0.99431595
0.99430994
0.99430358
0.99428227
0.99429135
0.99430381
0.99431585
0.99432525
0.99433073
0.99433162
0.99432786
0.99432034
0.99431261
0.99428877
0.99429875
0.99431229
0.99432525
0.99433522
0.99434086
0.99434146
0.99433696
0.99432842
0.99431976
0.99429307
0.99430347
0.99431746
0.99433073
0.99434086
0.9943465
0.99434695
0.99434214
0.99433316
0.99432407
0.99429471
0.99430501
0.9943187
0.99433162
0.99434146
0.99434695
0.99434741
0.99434277
0.99433402
0.99432507
0.99429374
0.99430332
0.99431595
0.99432786
0.99433696
0.99434214
0.99434277
0.99433878
0.99433098
0.99432285
0.99429082
0.99429902
0.99430994
0.99432034
0.99432842
0.99433316
0.99433402
0.99433098
0.99432475
0.99431818
0.99428777
0.99429438
0.99430358
0.99431261
0.99431976
0.99432407
0.99432507
0.99432285
0.99431818
0.99431345
0.99375693
0.99376201
0.99376971
0.99377774
0.99378441
0.99378871
0.99379013
0.99378878
0.99378544
0.99378212
0.99376201
0.99376847
0.99377777
0.99378714
0.99379474
0.99379945
0.99380072
0.99379856
0.99379376
0.9937888
0.99376971
0.99377777
0.99378902
0.99380007
0.9938088
0.99381395
0.99381487
0.99381157
0.99380495
0.99379822
0.99377774
0.99378714
0.99380007
0.99381258
0.99382225
0.99382772
0.99382825
0.99382385
0.99381567
0.9938075
0.99378441
0.99379474
0.9938088
0.99382225
0.99383252
0.99383814
0.99383836
0.9938332
0.99382395
0.99381483
0.99378871
0.99379945
0.99381395
0.99382772
0.99383814
0.99384377
0.99384383
0.99383836
0.99382867
0.99381914
0.99379013
0.99380072
0.99381487
0.99382825
0.99383836
0.99384383
0.99384394
0.99383868
0.99382928
0.99381993
0.99378878
0.99379856
0.99381157
0.99382385
0.9938332
0.99383836
0.99383868
0.99383415
0.9938258
0.99381735
0.99378544
0.99379376
0.99380495
0.99381567
0.99382395
0.99382867
0.99382928
0.9938258
0.99381913
0.99381233
0.99378212
0.9937888
0.99379822
0.9938075
0.99381483
0.99381914
0.99381993
0.99381735
0.99381233
0.99380743
0.99323899
0.99324423
0.99325218
0.99326044
0.99326724
0.99327148
0.99327266
0.99327091
0.99326716
0.99326358
0.99324423
0.9932509
0.99326049
0.99327014
0.99327788
0.99328252
0.99328349
0.99328085
0.99327557
0.99327032
0.99325218
0.9932605
0.99327211
0.99328349
0.99329239
0.99329745
0.99329803
0.99329416
0.99328698
0.9932799
0.99326044
0.99327014
0.99328349
0.99329638
0.99330625
0.99331163
0.99331177
0.99330675
0.99329793
0.99328938
0.99326724
0.99327788
0.99329239
0.99330625
0.99331674
0.99332227
0.99332207
0.99331626
0.99330634
0.99329682
0.99327148
0.99328252
0.99329745
0.99331163
0.99332227
0.9933278
0.99332746
0.99332134
0.99331099
0.99330107
0.99327266
0.99328349
0.99329803
0.99331177
0.99332207
0.99332746
0.99332718
0.99332132
0.99331132
0.99330164
0.99327091
0.99328085
0.99329416
0.99330675
0.99331626
0.99332134
0.99332132
0.99331626
0.9933074
0.9932987
0.99326716
0.99327557
0.99328698
0.99329793
0.99330634
0.99331099
0.99331132
0.9933074
0.99330034
0.99329336
0.99326358
0.99327032
0.9932799
0.99328938
0.99329682
0.99330107
0.99330164
0.9932987
0.99329336
0.99328831
0.99270802
0.99271341
0.99272158
0.99273003
0.9927369
0.99274105
0.99274194
0.99273979
0.99273565
0.99273182
0.99271341
0.99272027
0.99273013
0.99273999
0.99274782
0.99275234
0.99275298
0.99274986
0.99274412
0.9927386
0.99272158
0.99273013
0.99274206
0.99275371
0.99276271
0.99276764
0.99276783
0.9927634
0.99275569
0.99274831
0.99273003
0.99273999
0.99275371
0.9927669
0.9927769
0.99278213
0.99278185
0.99277622
0.99276681
0.99275792
0.99273691
0.99274782
0.99276271
0.9927769
0.99278752
0.9927929
0.99279227
0.99278581
0.99277528
0.99276541
0.99274105
0.99275234
0.99276764
0.99278213
0.9927929
0.99279829
0.99279751
0.99279076
0.99277982
0.99276957
0.99274194
0.99275298
0.99276783
0.99278185
0.99279227
0.99279751
0.99279682
0.99279037
0.99277984
0.99276988
0.99273979
0.99274986
0.9927634
0.99277621
0.99278581
0.99279076
0.99279037
0.99278481
0.9927755
0.9927666
0.99273565
0.99274412
0.99275569
0.99276681
0.99277528
0.99277982
0.99277984
0.9927755
0.99276808
0.99276096
0.99273182
0.9927386
0.99274831
0.99275792
0.99276541
0.99276957
0.99276988
0.9927666
0.99276096
0.99275579
0.99216366
0.99216918
0.99217754
0.99218613
0.99219303
0.99219704
0.99219763
0.99219508
0.99219056
0.99218651
0.99216918
0.99217621
0.9921863
0.99219634
0.99220419
0.99220856
0.99220884
0.99220525
0.99219907
0.99219331
0.99217754
0.9921863
0.99219851
0.99221037
0.99221941
0.99222416
0.99222394
0.99221897
0.99221075
0.9922031
0.99218613
0.99219634
0.99221037
0.9922238
0.99223386
0.99223889
0.99223816
0.99223193
0.99222198
0.99221279
0.99219304
0.9922042
0.99221941
0.99223386
0.99224454
0.99224972
0.99224862
0.99224155
0.99223045
0.99222028
0.99219704
0.99220856
0.99222416
0.99223889
0.99224972
0.9922549
0.99225366
0.99224631
0.99223483
0.99222431
0.99219763
0.99220884
0.99222394
0.99223816
0.99224862
0.99225366
0.99225254
0.99224555
0.99223453
0.99222435
0.99219508
0.99220525
0.99221897
0.99223193
0.99224154
0.99224631
0.99224555
0.9922395
0.9922298
0.99222073
0.99219056
0.99219907
0.99221075
0.99222197
0.99223045
0.99223483
0.99223453
0.9922298
0.99222205
0.99221482
0.99218651
0.99219331
0.9922031
0.99221279
0.99222028
0.99222431
0.99222435
0.99222073
0.99221482
0.99220956
0.99160551
0.99161115
0.99161967
0.99162837
0.99163526
0.9916391
0.99163938
0.99163642
0.99163154
0.99162729
0.99161115
0.99161835
0.99162863
0.99163879
0.99164664
0.99165081
0.99165072
0.99164667
0.99164008
0.99163409
0.99161967
0.99162863
0.99164107
0.99165309
0.99166212
0.99166665
0.99166601
0.99166051
0.99165183
0.99164392
0.99162837
0.9916388
0.99165309
0.9916667
0.99167675
0.99168155
0.99168036
0.99167356
0.9916631
0.99165365
0.99163527
0.99164664
0.99166213
0.99167675
0.99168743
0.99169237
0.9916908
0.99168313
0.99167153
0.9916611
0.9916391
0.99165081
0.99166665
0.99168155
0.99169237
0.9916973
0.9916956
0.99168768
0.99167572
0.99166496
0.99163938
0.99165072
0.99166601
0.99168036
0.9916908
0.9916956
0.99169405
0.99168653
0.99167509
0.99166472
0.99163642
0.99164667
0.99166051
0.99167356
0.99168313
0.99168768
0.99168653
0.99168002
0.99166997
0.99166078
0.99163154
0.99164008
0.99165183
0.9916631
0.99167153
0.99167572
0.99167509
0.99166997
0.99166194
0.99165462
0.99162729
0.99163409
0.99164392
0.99165365
0.9916611
0.99166496
0.99166472
0.99166078
0.99165462
0.99164928
0.99103319
0.99103895
0.9910476
0.99105637
0.99106321
0.99106685
0.9910668
0.99106346
0.99105823
0.99105379
0.99103895
0.99104629
0.99105673
0.99106699
0.99107478
0.99107872
0.99107826
0.99107376
0.99106678
0.99106059
0.9910476
0.99105673
0.99106937
0.9910815
0.99109048
0.99109475
0.99109369
0.99108768
0.99107857
0.99107044
0.99105637
0.99106699
0.9910815
0.99109523
0.99110523
0.99110975
0.99110811
0.99110076
0.99108984
0.99108016
0.99106321
0.99107478
0.99109048
0.99110523
0.99111585
0.9911205
0.99111846
0.99111024
0.99109817
0.99108752
0.99106686
0.99107872
0.99109476
0.99110975
0.9911205
0.99112516
0.99112299
0.99111453
0.99110214
0.99109118
0.9910668
0.99107826
0.99109369
0.99110811
0.99111846
0.99112299
0.99112101
0.991113
0.99110117
0.99109066
0.99106346
0.99107376
0.99108768
0.99110076
0.99111024
0.99111453
0.991113
0.99110606
0.9910957
0.99108641
0.99105823
0.99106678
0.99107857
0.99108984
0.99109817
0.99110214
0.99110117
0.9910957
0.99108741
0.99108003
0.99105379
0.99106059
0.99107044
0.99108016
0.99108752
0.99109118
0.99109066
0.99108641
0.99108003
0.99107462
0.99044632
0.99045217
0.99046092
0.99046973
0.9904765
0.99047992
0.99047954
0.99047581
0.99047027
0.99046565
0.99045217
0.99045964
0.99047021
0.99048052
0.99048822
0.99049192
0.99049108
0.99048615
0.99047881
0.99047243
0.99046092
0.99047021
0.99048302
0.99049521
0.9905041
0.9905081
0.9905066
0.99050011
0.9904906
0.99048227
0.99046973
0.99048052
0.99049521
0.99050902
0.99051892
0.99052314
0.99052104
0.99051317
0.99050183
0.99049195
0.9904765
0.99048823
0.9905041
0.99051892
0.99052943
0.99053378
0.99053127
0.99052252
0.99051004
0.99049919
0.99047992
0.99049192
0.9905081
0.99052314
0.99053378
0.99053813
0.99053551
0.99052654
0.99051376
0.99050264
0.99047954
0.99049108
0.9905066
0.99052104
0.99053127
0.9905355
0.99053309
0.99052462
0.99051246
0.99050183
0.99047581
0.99048615
0.99050011
0.99051317
0.99052252
0.99052654
0.99052462
0.99051729
0.99050665
0.99049728
0.99047027
0.99047881
0.9904906
0.99050183
0.99051004
0.99051376
0.99051246
0.99050665
0.99049813
0.9904907
0.99046565
0.99047243
0.99048227
0.99049194
0.99049919
0.99050264
0.99050183
0.99049728
0.9904907
0.99048523
0.98984448
0.98985041
0.98985924
0.98986805
0.98987472
0.98987791
0.9898772
0.98987311
0.98986726
0.98986249
0.98985041
0.98985799
0.98986867
0.98987899
0.98988658
0.98989002
0.98988881
0.98988347
0.9898758
0.98986924
0.98985924
0.98986867
0.9898816
0.98989382
0.98990259
0.9899063
0.98990438
0.98989744
0.98988756
0.98987905
0.98986806
0.98987899
0.98989382
0.98990767
0.98991743
0.98992135
0.98991879
0.98991044
0.98989872
0.98988865
0.98987472
0.98988659
0.98990259
0.98991743
0.9899278
0.98993183
0.98992886
0.98991963
0.98990677
0.98989575
0.98987792
0.98989002
0.9899063
0.98992135
0.98993183
0.98993586
0.98993279
0.98992336
0.98991023
0.98989897
0.9898772
0.98988881
0.98990438
0.98991879
0.98992886
0.98993279
0.98992995
0.98992106
0.98990861
0.98989787
0.98987311
0.98988347
0.98989744
0.98991044
0.98991963
0.98992336
0.98992106
0.98991336
0.98990247
0.98989305
0.98986726
0.9898758
0.98988756
0.98989872
0.98990677
0.98991023
0.9899086
0.98990247
0.98989376
0.98988629
0.98986249
0.98986924
0.98987905
0.98988865
0.98989574
0.98989896
0.98989787
0.98989305
0.98988629
0.98988076
0.98922725
0.98923325
0.98924214
0.98925094
0.98925748
0.98926044
0.9892594
0.98925496
0.98924884
0.98924391
0.98923325
0.98924092
0.98925169
0.989262
0.98926946
0.98927263
0.98927105
0.98926533
0.98925734
0.98925064
0.98924214
0.98925169
0.98926473
0.98927694
0.98928556
0.98928897
0.98928665
0.98927928
0.98926906
0.98926039
0.98925094
0.98926201
0.98927694
0.98929078
0.98930039
0.98930398
0.989301
0.9892922
0.98928013
0.98926989
0.98925748
0.98926946
0.98928556
0.98930039
0.98931059
0.98931428
0.98931087
0.98930119
0.98928799
0.98927682
0.98926044
0.98927263
0.98928897
0.98930398
0.98931428
0.98931798
0.98931448
0.98930462
0.98929119
0.9892798
0.9892594
0.98927105
0.98928665
0.989301
0.98931087
0.98931448
0.98931124
0.98930196
0.98928924
0.98927843
0.98925497
0.98926533
0.98927928
0.9892922
0.98930119
0.98930462
0.98930196
0.98929392
0.98928282
0.98927335
0.98924884
0.98925734
0.98926906
0.98928013
0.98928799
0.98929118
0.98928924
0.98928282
0.98927392
0.98926642
0.98924391
0.98925063
0.98926039
0.98926989
0.98927682
0.9892798
0.98927843
0.98927335
0.98926642
0.98926085
0.98859423
0.98860028
0.98860921
0.98861798
0.98862438
0.98862709
0.98862574
0.98862097
0.98861458
0.98860952
0.98860028
0.98860804
0.98861886
0.98862914
0.98863645
0.98863935
0.98863741
0.98863133
0.98862306
0.98861621
0.98860921
0.98861886
0.98863197
0.98864416
0.98865261
0.98865572
0.98865301
0.98864524
0.98863472
0.9886259
0.98861798
0.98862914
0.98864416
0.98865797
0.9886674
0.98867067
0.98866727
0.98865805
0.98864567
0.98863528
0.98862438
0.98863645
0.98865261
0.9886674
0.98867741
0.98868077
0.98867694
0.98866684
0.98865334
0.98864203
0.98862709
0.98863935
0.98865572
0.98867067
0.98868077
0.98868413
0.98868022
0.98866997
0.98865626
0.98864477
0.98862574
0.98863742
0.98865301
0.98866727
0.98867694
0.98868022
0.9886766
0.98866696
0.98865401
0.98864312
0.98862097
0.98863133
0.98864524
0.98865805
0.98866684
0.98866997
0.98866696
0.9886586
0.98864731
0.9886378
0.98861458
0.98862306
0.98863472
0.98864567
0.98865334
0.98865626
0.98865401
0.98864731
0.98863825
0.98863072
0.98860952
0.98861621
0.98862589
0.98863528
0.98864203
0.98864477
0.98864312
0.9886378
0.98863072
0.98862511
0.98794498
0.98795107
0.98796002
0.98796874
0.98797499
0.98797746
0.9879758
0.98797073
0.9879641
0.98795891
0.98795107
0.98795889
0.98796976
0.98797999
0.98798713
0.98798976
0.9879875
0.98798107
0.98797254
0.98796556
0.98796002
0.98796976
0.98798292
0.98799506
0.98800334
0.98800615
0.98800307
0.98799493
0.98798413
0.98797517
0.98796874
0.98797999
0.98799507
0.98800882
0.98801805
0.98802101
0.98801722
0.98800762
0.98799495
0.98798443
0.98797499
0.98798714
0.98800334
0.98801806
0.98802786
0.9880309
0.98802667
0.98801619
0.98800241
0.98799099
0.98797746
0.98798977
0.98800615
0.98802101
0.9880309
0.98803393
0.98802963
0.98801902
0.98800506
0.98799349
0.9879758
0.9879875
0.98800307
0.98801722
0.98802666
0.98802963
0.98802565
0.98801568
0.98800252
0.98799158
0.98797073
0.98798107
0.98799493
0.98800762
0.98801618
0.98801902
0.98801568
0.98800703
0.98799557
0.98798603
0.9879641
0.98797254
0.98798413
0.98799495
0.98800241
0.98800506
0.98800252
0.98799557
0.98798637
0.9879788
0.98795891
0.98796556
0.98797517
0.98798443
0.98799099
0.98799349
0.98799158
0.98798603
0.9879788
0.98797316
0.98727907
0.98728519
0.98729415
0.9873028
0.9873089
0.98731113
0.98730918
0.98730383
0.98729697
0.98729167
0.98728519
0.98729307
0.98730395
0.98731413
0.9873211
0.98732347
0.98732088
0.98731414
0.98730538
0.98729827
0.98729415
0.98730395
0.98731716
0.98732923
0.98733732
0.98733985
0.98733642
0.98732794
0.98731689
0.9873078
0.9873028
0.98731413
0.98732923
0.98734292
0.98735196
0.9873546
0.98735044
0.98734049
0.98732756
0.98731693
0.9873089
0.9873211
0.98733732
0.98735196
0.98736155
0.98736427
0.98735967
0.98734884
0.98733482
0.9873233
0.98731113
0.98732347
0.98733985
0.9873546
0.98736427
0.98736699
0.98736233
0.98735138
0.98733721
0.98732555
0.98730918
0.98732088
0.98733642
0.98735044
0.98735967
0.98736233
0.987358
0.98734773
0.98733439
0.98732339
0.98730383
0.98731414
0.98732794
0.98734049
0.98734884
0.98735138
0.98734773
0.98733882
0.98732721
0.98731763
0.98729697
0.98730538
0.98731689
0.98732756
0.98733482
0.98733721
0.98733439
0.98732721
0.98731787
0.98731028
0.98729167
0.98729827
0.9873078
0.98731693
0.98732329
0.98732555
0.98732339
0.98731763
0.98731028
0.9873046
0.98659606
0.9866022
0.98661116
0.98661973
0.98662567
0.98662767
0.98662545
0.98661983
0.98661277
0.98660737
0.9866022
0.98661012
0.98662102
0.98663112
0.98663792
0.98664003
0.98663715
0.98663013
0.98662114
0.98661392
0.98661116
0.98662102
0.98663424
0.98664624
0.98665414
0.98665639
0.98665264
0.98664385
0.98663257
0.98662337
0.98661974
0.98663112
0.98664624
0.98665984
0.98666868
0.98667103
0.98666653
0.98665626
0.9866431
0.98663236
0.98662568
0.98663792
0.98665415
0.98666868
0.98667807
0.98668048
0.98667553
0.98666439
0.98665015
0.98663853
0.98662767
0.98664004
0.98665639
0.98667104
0.98668048
0.9866829
0.9866779
0.98666665
0.98665229
0.98664056
0.98662545
0.98663715
0.98665264
0.98666653
0.98667553
0.9866779
0.98667326
0.98666272
0.98664921
0.98663816
0.98661983
0.98663013
0.98664385
0.98665626
0.98666439
0.98666665
0.98666271
0.98665356