/*--------------------------------*- C++ -*----------------------------------*\
| =========                 |                                                 |
| \\      /  F ield         | OpenFOAM: The Open Source CFD Toolbox           |
|  \\    /   O peration     | Version:  dev                                   |
|   \\  /    A nd           | Web:      www.OpenFOAM.org                      |
|    \\/     M anipulation  |                                                 |
\*---------------------------------------------------------------------------*/
FoamFile
{
    version     2.0;
    format      ascii;
    class       volScalarField;
    location    "7.765";
    object      p;
}
// * * * * * * * * * * * * * * * * * * * * * * * * * * * * * * * * * * * * * //

dimensions      [0 2 -2 0 0 0 0];

internalField   nonuniform List<scalar> 
10000
(
24.381466
25.62304
25.680202
25.753856
25.838811
26.009361
26.252819
26.839261
27.497121
33.133686
25.623041
26.634975
26.552799
26.567411
26.613668
26.753408
26.955294
27.506301
28.130473
33.920499
25.680205
26.552801
26.405808
26.382063
26.402438
26.526253
26.714442
27.27265
27.90662
33.800675
25.75386
26.567415
26.382065
26.329597
26.330986
26.444455
26.628426
27.197452
27.852084
33.804171
25.838817
26.613672
26.402441
26.330987
26.321407
26.430841
26.616901
27.198829
27.873585
33.864809
26.009366
26.753412
26.526256
26.444456
26.430841
26.54044
26.730848
27.323407
28.014255
34.036363
26.252823
26.955298
26.714443
26.628426
26.6169
26.730847
26.928643
27.532066
28.24272
34.306183
26.839264
27.506303
27.272649
27.19745
27.198826
27.323405
27.532064
28.143226
28.864903
34.965438
27.497121
28.130473
27.906618
27.852081
27.873581
28.01425
28.242717
28.864901
29.632406
35.802933
33.133686
33.920498
33.800672
33.804167
33.864803
34.036358
34.306178
34.965435
35.802932
41.901048
24.971156
25.732232
25.801283
25.879924
25.96855
26.143806
26.394686
26.994704
27.634738
31.9515
25.732234
26.461024
26.436941
26.470789
26.528627
26.679537
26.896946
27.470134
28.081116
32.446536
25.801286
26.436943
26.362219
26.364307
26.400081
26.537661
26.743004
27.323041
27.935234
32.369208
25.879929
26.470793
26.364309
26.34124
26.360007
26.488191
26.68916
27.27797
27.904445
32.381384
25.968556
26.528632
26.400084
26.360008
26.368792
26.493248
26.695861
27.295926
27.938553
32.446402
26.143812
26.679542
26.537664
26.488192
26.493248
26.617869
26.824527
27.434276
28.090404
32.622675
26.39469
26.896949
26.743005
26.68916
26.695859
26.824526
27.038482
27.65893
28.33339
32.899226
26.994707
27.470136
27.323041
27.277968
27.295923
27.434273
27.658928
28.287645
28.973265
33.568381
27.634739
28.081116
27.935232
27.904441
27.938548
28.090399
28.333386
28.973264
29.707659
34.357323
31.9515
32.446535
32.369205
32.381379
32.446396
32.622669
32.899221
33.568378
34.357321
38.946232
25.420164
25.829875
25.898989
25.983125
26.075787
26.255894
26.510643
27.116196
27.69527
30.910792
25.829876
26.310833
26.328615
26.38261
26.45219
26.614178
26.842509
27.42862
27.97433
31.154409
25.898992
26.328617
26.311649
26.341319
26.393126
26.544705
26.762636
27.355166
27.893731
31.11467
25.983131
26.382614
26.341321
26.34994
26.387044
26.530358
26.743726
27.342802
27.888934
31.138348
26.075794
26.452195
26.393129
26.387045
26.415351
26.555333
26.769849
27.378388
27.936373
31.208793
26.2559
26.614183
26.544708
26.530359
26.555333
26.695483
26.91365
27.530744
28.099331
31.389898
26.510648
26.842513
26.762638
26.743725
26.769848
26.913648
27.138925
27.766395
28.351708
31.668862
27.116199
27.428622
27.355166
27.3428
27.378385
27.53074
27.766393
28.402471
28.99869
32.337433
27.69527
27.974329
27.893728
27.88893
27.936368
28.099326
28.351704
28.998688
29.644623
33.02779
30.910791
31.154408
31.114666
31.138343
31.208787
31.389892
31.668857
32.33743
33.027789
36.413986
25.643871
25.885157
25.94893
26.034029
26.129554
26.311597
26.564252
27.149938
27.661613
30.11167
25.885159
26.215322
26.25473
26.321071
26.399663
26.568302
26.79934
27.369459
27.839963
30.207689
25.948934
26.254732
26.271871
26.320244
26.384799
26.545446
26.767321
27.342852
27.800551
30.192916
26.034034
26.321075
26.320246
26.351388
26.40343
26.556897
26.774112
27.354236
27.814296
30.224454
26.129561
26.399668
26.384803
26.403431
26.44783
26.598365
26.816305
27.404267
27.872656
30.299774
26.311604
26.568307
26.545449
26.556898
26.598365
26.749069
26.970258
27.565679
28.042259
30.482803
26.564257
26.799344
26.767323
26.774112
26.816303
26.970257
27.198245
27.80354
28.295393
30.757621
27.149941
27.36946
27.342851
27.354234
27.404263
27.565675
27.803538
28.417466
28.92005
31.399218
27.661614
27.839962
27.800549
27.814292
27.87265
28.042253
28.295389
28.920048
29.471147
31.991731
30.11167
30.207687
30.192912
30.224448
30.299767
30.482796
30.757615
31.399215
31.99173
34.590693
25.753904
25.915035
25.973198
26.056438
26.153485
26.334245
26.579867
27.127177
27.575247
29.462602
25.915036
26.15414
26.203992
26.276659
26.361612
26.532518
26.759929
27.293364
27.694174
29.477278
25.973202
26.203995
26.240589
26.300431
26.374485
26.539315
26.75851
27.296098
27.680543
29.477653
26.056444
26.276664
26.300433
26.346453
26.41001
26.568667
26.783199
27.323734
27.706589
29.513626
26.153492
26.361618
26.374488
26.410012
26.467013
26.623122
26.838022
27.384965
27.773312
29.592614
26.334252
26.532523
26.539319
26.568668
26.623121
26.779397
26.997157
27.550554
27.945138
29.77432
26.579872
26.759933
26.758512
26.783198
26.838021
26.997156
27.221319
27.784004
28.192512
30.039871
27.12718
27.293366
27.296098
27.323731
27.384961
27.55055
27.784001
28.355228
28.774482
30.636628
27.575248
27.694174
27.68054
27.706585
27.773306
27.945132
28.192507
28.77448
29.240114
31.144384
29.462601
29.477276
29.477649
29.51362
29.592607
29.774313
30.039865
30.636624
31.144382
33.181111
25.818489
25.93367
25.986883
26.067274
26.16461
26.341262
26.576197
27.07551
27.463244
28.912972
25.933672
26.111834
26.166077
26.241566
26.330587
26.500109
26.719455
27.205836
27.543213
28.881259
25.986887
26.166079
26.213405
26.280137
26.360873
26.525853
26.737787
27.227033
27.546012
28.890033
26.067281
26.24157
26.280139
26.336021
26.408085
26.567809
26.775146
27.265912
27.580364
28.928343
26.164617
26.330593
26.360877
26.408087
26.474603
26.632135
26.839544
27.335419
27.653106
29.009582
26.341269
26.500115
26.525856
26.56781
26.632135
26.789828
26.99973
27.501127
27.823495
29.187122
26.576203
26.719459
26.737789
26.775146
26.839542
26.999728
27.215597
27.725659
28.060752
29.439867
27.075514
27.205838
27.227032
27.265909
27.335415
27.501123
27.725657
28.244092
28.589992
29.983253
27.463245
27.543212
27.546009
27.580359
27.653099
27.823489
28.060747
28.58999
28.979926
30.416986
28.912971
28.881257
28.890029
28.928337
29.009574
29.187115
29.439861
29.98325
30.416985
32.015855
25.860565
25.946241
25.995192
26.07241
26.168871
26.339012
26.560451
27.007543
27.338574
28.444708
25.946243
26.080847
26.135743
26.211769
26.302775
26.46786
26.675883
27.110774
27.391193
28.387061
25.995196
26.135746
26.187956
26.25832
26.343159
26.504914
26.706253
27.142833
27.40398
28.399641
26.072416
26.211774
26.258323
26.320339
26.398112
26.555428
26.752294
27.189193
27.443709
28.438856
26.168878
26.302781
26.343163
26.398113
26.471247
26.626692
26.823384
27.264242
27.520219
28.520848
26.339019
26.467866
26.504917
26.555429
26.626692
26.782287
26.981135
27.426676
27.686104
28.691801
26.560457
26.675887
26.706255
26.752294
26.823383
26.981134
27.185496
27.639076
27.910119
28.929264
27.007547
27.110776
27.142833
27.189191
27.264238
27.426672
27.639073
28.100864
28.382833
29.416117
27.338575
27.391193
27.403977
27.443704
27.520213
27.686098
27.910114
28.382831
28.706315
29.784817
28.444707
28.387059
28.399637
28.438849
28.52084
28.691793
28.929258
29.416114
29.784816
31.035978
25.887855
25.954015
25.999374
26.073241
26.167726
26.329383
26.535261
26.929164
27.208153
28.046017
25.954016
26.05659
26.109785
26.184652
26.275743
26.433888
26.628231
27.010712
27.241109
27.975572
25.999378
26.109787
26.162852
26.234285
26.320867
26.476608
26.664954
27.048126
27.259277
27.988913
26.073247
26.184657
26.234287
26.2994
26.380286
26.532294
26.716351
27.098875
27.302013
28.027886
26.167734
26.275749
26.320871
26.380287
26.457331
26.607749
26.791436
27.176925
27.380171
28.109152
26.329391
26.433894
26.476611
26.532295
26.607749
26.75831
26.943846
27.333288
27.539038
28.271541
26.535267
26.628235
26.664956
26.71635
26.791434
26.943844
27.134437
27.531313
27.747655
28.492029
26.929168
27.010714
27.048126
27.098872
27.176921
27.333284
27.531311
27.936242
28.163611
28.922349
27.208154
27.241109
27.259274
27.302008
27.380165
27.539032
27.74765
28.163608
28.42984
29.234434
28.046017
27.97557
27.988909
28.02788
28.109145
28.271533
28.492023
28.922345
29.234432
30.210203
25.904245
25.95712
25.999447
26.069815
26.161319
26.312971
26.501925
26.843951
27.076171
27.705541
25.957122
26.035569
26.085653
26.15808
26.247593
26.396854
26.575954
26.907495
27.094785
27.630654
25.999451
26.085655
26.136899
26.207386
26.293637
26.441183
26.61494
26.946383
27.115131
27.642847
26.069822
26.158085
26.207389
26.273137
26.354824
26.499238
26.668933
26.998992
27.158953
27.680645
26.161327
26.247599
26.293641
26.354826
26.433349
26.576413
26.745592
27.077781
27.236858
27.759818
26.312978
26.39686
26.441187
26.49924
26.576413
26.719607
26.89037
27.225887
27.386761
27.912119
26.501931
26.575959
26.614942
26.668933
26.745591
26.890368
27.065746
27.408124
27.578651
28.114631
26.843955
26.907497
26.946383
26.99899
27.077777
27.225883
27.408122
27.758385
27.939967
28.490534
27.076172
27.094784
27.115129
27.158948
27.236852
27.386755
27.578647
27.939964
28.157669
28.753778
27.705541
27.630652
27.642843
27.680639
27.759811
27.912111
28.114625
28.49053
28.753776
29.511906
25.911813
25.955234
25.994916
26.06164
26.149287
26.289853
26.461168
26.754214
26.945092
27.413056
25.955236
26.015061
26.061256
26.130293
26.216826
26.355804
26.518797
26.80247
26.953116
27.338812
25.99492
26.061258
26.109002
26.177007
26.261174
26.398934
26.557211
26.840208
26.973495
27.348777
26.061646
26.130298
26.177009
26.241458
26.321973
26.457101
26.611582
26.892673
27.016889
27.384665
26.149295
26.216832
26.261178
26.321975
26.39989
26.533866
26.687733
26.97027
27.092911
27.460558
26.289861
26.35581
26.398938
26.457102
26.533866
26.667959
26.823182
27.108524
27.232453
27.601693
26.461174
26.518801
26.557213
26.611582
26.687731
26.823181
26.982603
27.274266
27.406986
27.785827
26.754218
26.802472
26.840207
26.892671
26.970266
27.108521
27.274263
27.573617
27.71731
28.11082
26.945093
26.953115
26.973492
27.016884
27.092905
27.232447
27.406982
27.717307
27.894336
28.332152
27.413056
27.33881
27.348773
27.384658
27.46055
27.601686
27.785821
28.110816
28.33215
28.918542
25.911426
25.947799
25.985061
26.047989
26.131038
26.259858
26.413375
26.661343
26.816196
27.15988
25.9478
25.992986
26.034918
26.099879
26.1823
26.31009
26.456695
26.696536
26.816372
27.089228
25.985065
26.03492
26.078193
26.142581
26.22325
26.350166
26.49266
26.731443
26.835409
27.096467
26.047995
26.099883
26.142584
26.204263
26.281991
26.406684
26.545678
26.782224
26.877213
27.129891
26.131045
26.182306
26.223253
26.281992
26.357575
26.481281
26.619601
26.857049
26.950019
27.201533
26.259865
26.310096
26.35017
26.406686
26.481281
26.60509
26.744577
26.984398
27.078299
27.330846
26.413381
26.456699
26.492662
26.545678
26.6196
26.744576
26.887874
27.133508
27.235408
27.496684
26.661347
26.696539
26.731443
26.782221
26.857045
26.984394
27.133506
27.386603
27.49927
27.77509
26.816197
26.816372
26.835407
26.877208
26.950012
27.078293
27.235404
27.499267
27.642472
27.960578
27.15988
27.089226
27.096462
27.129884
27.201525
27.330838
27.496678
27.775086
27.960576
28.411866
25.903295
25.934194
25.969133
26.028112
26.105971
26.222754
26.358779
26.566117
26.690001
26.938681
25.934196
25.967754
26.005312
26.065722
26.143158
26.259291
26.389698
26.59023
26.684413
26.87321
25.969137
26.005314
26.043644
26.103621
26.179696
26.295183
26.422055
26.621318
26.701287
26.877619
26.028118
26.065727
26.103624
26.161462
26.235137
26.348732
26.472419
26.669274
26.740639
26.90819
26.105978
26.143164
26.1797
26.235139
26.30703
26.419769
26.542759
26.740097
26.809192
26.97484
26.222761
26.259297
26.295187
26.348734
26.419769
26.532597
26.656599
26.855958
26.925748
27.092044
26.358785
26.389702
26.422057
26.472419
26.542757
26.656597
26.784051
26.988748
27.065801
27.240055
26.566121
26.590232
26.621318
26.669272
26.740093
26.855954
26.988746
27.200632
27.288126
27.47658
26.690002
26.684413
26.701284
26.740634
26.809186
26.925741
27.065796
27.288124
27.403383
27.631501
26.938681
26.873208
26.877615
26.908183
26.974832
27.092036
27.240049
27.476576
27.6315
27.976989
25.88736
25.913856
25.946487
26.00137
26.073599
26.178371
26.29758
26.468944
26.566548
26.743242
25.913858
25.938154
25.971389
26.026953
26.098779
26.203153
26.317917
26.483803
26.556826
26.683682
25.946491
25.971392
26.004665
26.059715
26.130404
26.234274
26.346045
26.510591
26.571113
26.685409
26.001377
26.026958
26.059717
26.112987
26.181676
26.28392
26.392831
26.554931
26.607413
26.712881
26.073607
26.098785
26.130407
26.181677
26.248861
26.350354
26.458574
26.620845
26.670958
26.774025
26.178378
26.203159
26.234277
26.283921
26.350354
26.451924
26.561029
26.725037
26.775693
26.879152
26.297586
26.317921
26.346047
26.39283
26.458572
26.561027
26.673254
26.842154
26.899389
27.010102
26.468947
26.483805
26.510591
26.554928
26.620841
26.725033
26.842151
27.017921
27.085159
27.209522
26.56655
26.556825
26.57111
26.607408
26.670952
26.775687
26.899384
27.085156
27.177453
27.338451
26.743241
26.68368
26.685405
26.712875
26.774018
26.879145
27.010095
27.209518
27.33845
27.601522
25.863491
25.886328
25.916614
25.967288
26.033599
26.126648
26.229996
26.370003
26.445595
26.5683
25.88633
25.903269
25.932351
25.982916
26.048729
26.141542
26.241493
26.3773
26.433027
26.514842
25.916618
25.932354
25.960688
26.010531
26.075316
26.167708
26.265169
26.399672
26.444588
26.514179
25.967294
25.982921
26.010534
26.058799
26.12187
26.212849
26.307775
26.439895
26.477454
26.538436
26.033607
26.048736
26.07532
26.121872
26.183651
26.273962
26.368224
26.500297
26.535498
26.593775
26.126655
26.141548
26.167712
26.212851
26.273962
26.364339
26.459384
26.592964
26.628618
26.68712
26.230002
26.241498
26.265172
26.307774
26.368222
26.459382
26.557247
26.695296
26.736893
26.801989
26.370007
26.377302
26.399672
26.439893
26.500293
26.59296
26.695294
26.839851
26.890917
26.968943
26.445596
26.433027
26.444586
26.477449
26.535492
26.628611
26.736888
26.890914
26.964433
27.075833
26.568299
26.51484
26.514175
26.53843
26.593767
26.687113
26.801982
26.968939
27.075831
27.275061
25.831569
25.851283
25.879174
25.925564
25.985813
26.067635
26.156276
26.26934
26.326728
26.409428
25.851285
25.862428
25.887595
25.933132
25.992733
26.07442
26.160582
26.270621
26.312346
26.361931
25.879178
25.887598
25.911273
25.955822
26.014425
26.095736
26.179866
26.288716
26.321235
26.359245
25.92557
25.933137
25.955824
25.99889
26.055982
26.13605
26.217961
26.324567
26.350471
26.38028
25.985821
25.992739
26.014429
26.055984
26.111943
26.191409
26.2727
26.379114
26.402752
26.429705
26.067643
26.074426
26.095739
26.136052
26.191409
26.270931
26.352922
26.460658
26.484699
26.511772
26.156282
26.160587
26.179868
26.21796
26.272699
26.352921
26.437455
26.54926
26.578649
26.611691
26.269344
26.270623
26.288716
26.324564
26.37911
26.460654
26.549257
26.667171
26.705422
26.750543
26.32673
26.312346
26.321232
26.350465
26.402745
26.484692
26.578644
26.705419
26.763648
26.838798
26.409427
26.361929
26.359241
26.380273
26.429697
26.511764
26.611684
26.750539
26.838796
26.988858
25.791527
25.808524
25.833977
25.876061
25.930237
26.001484
26.076699
26.166915
26.20945
26.262922
25.808525
25.815158
25.836694
25.87728
25.930642
26.001817
26.075337
26.163572
26.194081
26.221055
25.833982
25.836696
25.856093
25.895417
25.947768
26.018586
26.090485
26.177695
26.200475
26.21674
25.876068
25.877285
25.895419
25.933286
25.984268
26.053982
26.123961
26.209116
26.226037
26.234635
25.930245
25.930648
25.947772
25.984269
26.034236
26.103402
26.172817
26.257693
26.272493
26.278204
26.001492
26.001823
26.01859
26.053984
26.103402
26.172616
26.242663
26.32871
26.343887
26.349652
26.076705
26.075342
26.090488
26.123961
26.172815
26.242661
26.314997
26.404735
26.424707
26.435845
26.166919
26.163574
26.177695
26.209113
26.257689
26.328706
26.404732
26.50015
26.528324
26.550602
26.209452
26.19408
26.200472
26.226032
26.272487
26.34388
26.424702
26.528322
26.574152
26.623151
26.262922
26.221053
26.216735
26.234628
26.278196
26.349644
26.435838
26.550597
26.623149
26.735566
25.743372
25.757971
25.78097
25.818786
25.866994
25.928429
25.991561
26.062646
26.093235
26.125705
25.757973
25.761157
25.779372
25.815173
25.862414
25.923816
25.985908
26.055902
26.077524
26.089046
25.780975
25.779375
25.794932
25.82922
25.87542
25.936471
25.997302
26.066462
26.081685
26.083482
25.818792
25.815178
25.829222
25.862046
25.906975
25.967038
26.026228
26.09355
26.103654
26.098395
25.867002
25.862421
25.875424
25.906977
25.95098
26.010539
26.069226
26.13623
26.144389
26.136302
25.928437
25.923822
25.936475
25.967039
26.010539
26.070139
26.129401
26.197449
26.205973
26.197901
25.991568
25.985913
25.997304
26.026228
26.069225
26.129399
26.190717
26.262097
26.274902
26.271636
26.06265
26.055905
26.066462
26.093547
26.136226
26.197445
26.262094
26.338707
26.359022
26.365905
26.093237
26.077524
26.081682
26.103649
26.144382
26.205967
26.274897
26.359019
26.394839
26.425262
26.125704
26.089044
26.083477
26.098388
26.136294
26.197893
26.271629
26.365901
26.42526
26.509025
25.687183
25.699653
25.720214
25.753857
25.796305
25.848762
25.901166
25.956425
25.977557
25.995244
25.699654
25.700266
25.715483
25.746732
25.788092
25.840538
25.892433
25.947334
25.962007
25.963328
25.720218
25.715486
25.727667
25.757201
25.797486
25.849584
25.900528
25.954792
25.964239
25.956871
25.753863
25.746738
25.757203
25.785254
25.824342
25.875549
25.925108
25.977763
25.982788
25.969016
25.796313
25.788099
25.79749
25.824344
25.862576
25.913317
25.962436
26.014765
26.018038
26.001563
25.84877
25.840545
25.849588
25.875551
25.913317
25.964094
26.013737
26.067004
26.070636
26.054151
25.901173
25.892438
25.90053
25.925108
25.962434
26.013736
26.065221
26.12148
26.128915
26.1167
25.956429
25.947336
25.954792
25.97776
26.01476
26.066999
26.121477
26.182512
26.196754
26.193682
25.977558
25.962007
25.964236
25.982782
26.018031
26.070629
26.128909
26.196752
26.224524
26.242
25.995244
25.963326
25.956866
25.969009
26.001555
26.054143
26.116693
26.193678
26.241998
26.304081
25.623112
25.633686
25.651863
25.681486
25.718466
25.762811
25.805815
25.84814
25.861914
25.86947
25.633688
25.632443
25.644989
25.671974
25.707783
25.752132
25.795041
25.837584
25.846907
25.841823
25.651868
25.644991
25.654262
25.679388
25.714098
25.758103
25.800322
25.842418
25.847528
25.834793
25.681493
25.67198
25.679391
25.703021
25.736595
25.779793
25.820856
25.861571
25.862902
25.844423
25.718474
25.70779
25.714103
25.736596
25.769371
25.812139
25.852824
25.893228
25.893004
25.871993
25.76282
25.752138
25.758107
25.779795
25.812139
25.854935
25.896101
25.937349
25.937477
25.916442
25.805821
25.795046
25.800325
25.820856
25.852822
25.8961
25.938909
25.982831
25.98632
25.96905
25.848144
25.837586
25.842418
25.861568
25.893223
25.937345
25.982828
26.031067
26.040667
26.031546
25.861916
25.846907
25.847525
25.862896
25.892997
25.93747
25.986314
26.040664
26.062001
26.070664
25.86947
25.84182
25.834789
25.844416
25.871984
25.916434
25.969043
26.031542
26.070662
26.116433
25.551373
25.560263
25.576147
25.601953
25.633821
25.670927
25.705795
25.737677
25.745844
25.746702
25.560265
25.557744
25.567939
25.590987
25.621643
25.658762
25.693848
25.726379
25.731659
25.722865
25.576151
25.567941
25.574751
25.595858
25.625409
25.662191
25.696802
25.729058
25.730986
25.715542
25.60196
25.590993
25.595861
25.615477
25.643945
25.679998
25.713654
25.744747
25.743474
25.722935
25.633829
25.621649
25.625413
25.643947
25.671667
25.707321
25.740658
25.771469
25.768834
25.745963
25.670935
25.658769
25.662195
25.679999
25.707321
25.742999
25.776777
25.808348
25.806055
25.783152
25.705802
25.693853
25.696804
25.713654
25.740656
25.776775
25.812014
25.84596
25.846621
25.827013
25.737681
25.726381
25.729058
25.744744
25.771465
25.808344
25.845957
25.883769
25.889867
25.877447
25.745846
25.731659
25.730983
25.743469
25.768827
25.806048
25.846616
25.889864
25.906081
25.908931
25.746701
25.722863
25.715537
25.722928
25.745955
25.783143
25.827006
25.877442
25.908929
25.942495
25.472232
25.479634
25.493347
25.515581
25.542739
25.573462
25.601376
25.624932
25.628929
25.625581
25.479636
25.476301
25.484454
25.503918
25.529861
25.560604
25.588958
25.613463
25.61576
25.605127
25.493352
25.484457
25.489228
25.506728
25.53158
25.561996
25.590049
25.614429
25.614092
25.597746
25.515588
25.503923
25.506731
25.522764
25.546591
25.576348
25.60362
25.627036
25.624012
25.603194
25.542748
25.529868
25.531584
25.546592
25.569718
25.599107
25.626115
25.649286
25.645081
25.622146
25.57347
25.56061
25.562
25.576349
25.599107
25.628517
25.655927
25.679781
25.675906
25.652932
25.601383
25.588963
25.590051
25.60362
25.626113
25.655925
25.684627
25.710578
25.709284
25.689172
25.624936
25.613466
25.614429
25.627034
25.649281
25.679777
25.710575
25.739958
25.743454
25.729623
25.628931
25.61576
25.614089
25.624006
25.645074
25.675899
25.709278
25.743451
25.755622
25.754804
25.625581
25.605125
25.597741
25.603186
25.622137
25.652923
25.689165
25.729618
25.754802
25.779285
25.385994
25.39209
25.403783
25.422721
25.445602
25.470759
25.492803
25.509809
25.510799
25.505024
25.392091
25.388307
25.394711
25.410953
25.432652
25.457834
25.480463
25.498607
25.498768
25.487559
25.403788
25.394714
25.397831
25.412142
25.432783
25.457655
25.480118
25.498258
25.496377
25.480312
25.422729
25.410959
25.412145
25.425038
25.444712
25.468991
25.490824
25.508179
25.504058
25.484103
25.445611
25.432659
25.432787
25.444714
25.463734
25.487676
25.509293
25.526441
25.521308
25.499458
25.470767
25.457841
25.457659
25.468992
25.487676
25.511635
25.533616
25.551378
25.546556
25.524663
25.49281
25.480469
25.480121
25.490824
25.509291
25.533615
25.556734
25.576334
25.573753
25.554327
25.509813
25.49861
25.498258
25.508176
25.526437
25.551374
25.576331
25.598949
25.600553
25.586562
25.510801
25.498768
25.496374
25.504052
25.521301
25.546549
25.573748
25.60055
25.609547
25.606564
25.505024
25.487557
25.480307
25.484096
25.499449
25.524655
25.55432
25.586558
25.606562
25.624321
25.292989
25.29795
25.307794
25.323734
25.342784
25.363143
25.380294
25.392219
25.39113
25.384166
25.297952
25.293995
25.298922
25.312309
25.330236
25.350626
25.368445
25.381604
25.3803
25.369331
25.307798
25.298925
25.300735
25.312268
25.329188
25.349289
25.367044
25.380294
25.377426
25.362371
25.323741
25.312314
25.312271
25.322454
25.338473
25.358042
25.375293
25.387914
25.383194
25.364788
25.342792
25.330243
25.329192
25.338475
25.353888
25.373152
25.390228
25.402681
25.3971
25.377016
25.363152
25.350633
25.349293
25.358044
25.373151
25.392428
25.409834
25.422833
25.417542
25.397414
25.380301
25.36845
25.367046
25.375293
25.390226
25.409832
25.428233
25.442833
25.439476
25.421456
25.392224
25.381607
25.380293
25.387911
25.402676
25.422829
25.44283
25.460061
25.460328
25.446968
25.391132
25.3803
25.377423
25.383188
25.397093
25.417535
25.43947
25.460325
25.466852
25.462738
25.384166
25.369329
25.362366
25.36478
25.377008
25.397405
25.421449
25.446964
25.462736
25.47554
25.193565
25.197548
25.205725
25.218976
25.234641
25.250914
25.264037
25.272085
25.26964
25.262325
25.19755
25.193627
25.197326
25.208215
25.222838
25.239145
25.252969
25.262274
25.260026
25.249796
25.205729
25.197329
25.198134
25.207283
25.220964
25.237006
25.250841
25.260304
25.256875
25.243239
25.218984
25.208221
25.207286
25.215171
25.228021
25.243591
25.257027
25.265993
25.261042
25.244543
25.23465
25.222845
25.220969
25.228023
25.240318
25.255611
25.268908
25.277742
25.272066
25.2541
25.250923
25.239152
25.23701
25.243593
25.255611
25.270915
25.284507
25.293825
25.288414
25.270401
25.264044
25.252975
25.250844
25.257027
25.268907
25.284505
25.298963
25.309665
25.305911
25.289686
25.272089
25.262276
25.260303
25.26599
25.277738
25.293821
25.309662
25.322636
25.321992
25.309728
25.269642
25.260026
25.256872
25.261036
25.272059
25.288407
25.305905
25.321989
25.326616
25.322059
25.262324
25.249794
25.243234
25.244536
25.254091
25.270392
25.289678
25.309723
25.322057
25.331229
25.088068
25.091221
25.097917
25.108792
25.121506
25.134339
25.144191
25.149332
25.146087
25.138962
25.091223
25.087479
25.090175
25.098908
25.110675
25.123544
25.134093
25.140458
25.137666
25.128447
25.097922
25.090178
25.090238
25.097369
25.108272
25.120902
25.131513
25.13808
25.134408
25.122375
25.1088
25.098913
25.097372
25.103341
25.113487
25.1257
25.135999
25.14218
25.137265
25.122808
25.121515
25.110682
25.108276
25.113488
25.123129
25.135095
25.145285
25.151366
25.145844
25.130118
25.134348
25.123551
25.120906
25.125702
25.135095
25.14707
25.157522
25.164028
25.158745
25.142971
25.144198
25.134099
25.131516
25.135999
25.145283
25.15752
25.168719
25.176412
25.172538
25.158267
25.149336
25.14046
25.13808
25.142177
25.151361
25.164024
25.176409
25.186048
25.18482
25.173884
25.146089
25.137666
25.134405
25.137259
25.145837
25.158737
25.172532
25.184817
25.187997
25.18344
25.138962
25.128444
25.12237
25.122801
25.130109
25.142962
25.15826
25.173879
25.183438
25.189958
24.976841
24.979296
24.984699
24.993502
25.003678
25.01365
25.020883
25.023892
25.02026
25.013654
24.979298
24.975831
24.977721
24.984619
24.993951
25.00396
25.01186
25.016018
25.01298
25.004889
24.984704
24.977724
24.977258
24.982709
24.99126
25.001057
25.00905
25.013436
25.009751
24.999356
24.993509
24.984625
24.982711
24.98711
24.994981
25.004415
25.012165
25.016256
25.011561
24.999133
25.003687
24.993958
24.991264
24.994983
25.0024
25.011615
25.019282
25.023299
25.018101
25.004584
25.013658
25.003967
25.001062
25.004416
25.011615
25.020836
25.028733
25.03312
25.028134
25.014571
25.02089
25.011865
25.009053
25.012165
25.01928
25.028731
25.037269
25.042666
25.038869
25.026558
25.023896
25.016021
25.013436
25.016253
25.023294
25.033116
25.042663
25.049711
25.048146
25.038617
25.020262
25.01298
25.009748
25.011556
25.018093
25.028126
25.038863
25.048143
25.050236
25.045948
25.013654
25.004887
24.999351
24.999125
25.004575
25.014562
25.026551
25.038612
25.045946
25.05054
24.860206
24.862084
24.866376
24.873397
24.881422
24.889043
24.894212
24.895697
24.891978
24.886068
24.862086
24.858955
24.860212
24.865569
24.872854
24.880514
24.886299
24.888834
24.885765
24.878818
24.86638
24.860214
24.8594
24.863473
24.870065
24.877539
24.883436
24.886207
24.882668
24.873849
24.873404
24.865575
24.863476
24.866612
24.8726
24.87976
24.88547
24.888019
24.883666
24.873156
24.881431
24.872862
24.870069
24.872602
24.878188
24.885156
24.890803
24.893299
24.888531
24.8771
24.889052
24.880521
24.877544
24.879762
24.885156
24.892129
24.897976
24.900792
24.896209
24.884732
24.894219
24.886305
24.883439
24.88547
24.890801
24.897974
24.904365
24.908033
24.904446
24.894003
24.895701
24.888837
24.886207
24.888016
24.893294
24.900787
24.908031
24.913086
24.911364
24.90322
24.89198
24.885765
24.882665
24.88366
24.888524
24.896201
24.90444
24.91136
24.912654
24.90878
24.886068
24.878815
24.873844
24.873149
24.87709
24.884722
24.893995
24.903215
24.908778
24.911979
24.738467
24.739872
24.743223
24.748736
24.754962
24.760679
24.764248
24.76468
24.761081
24.75594
24.739874
24.737107
24.737878
24.741962
24.747551
24.753305
24.757429
24.758798
24.755846
24.749992
24.743228
24.737881
24.73686
24.739823
24.744806
24.750402
24.754644
24.756243
24.752957
24.745595
24.748744
24.741968
24.739826
24.741967
24.746422
24.751748
24.755848
24.757283
24.753344
24.744589
24.754971
24.747558
24.74481
24.746424
24.750526
24.755686
24.759739
24.761138
24.75686
24.747332
24.760688
24.753313
24.750406
24.75175
24.755686
24.760851
24.765076
24.766748
24.762627
24.753056
24.764255
24.757435
24.754646
24.755848
24.759737
24.765074
24.769757
24.772142
24.768848
24.760123
24.764684
24.758801
24.756243
24.75728
24.761133
24.766743
24.772139
24.77568
24.77393
24.767086
24.761082
24.755846
24.752953
24.753338
24.756852
24.76262
24.768842
24.773927
24.774643
24.771249
24.75594
24.74999
24.74559
24.744581
24.747322
24.753047
24.760115
24.767081
24.771247
24.773447
24.611894
24.61292
24.615488
24.619743
24.624486
24.628682
24.631034
24.630772
24.627427
24.623059
24.612922
24.610524
24.610931
24.613979
24.618183
24.622416
24.625256
24.625811
24.623075
24.618223
24.615493
24.610934
24.609817
24.611902
24.615585
24.619683
24.62264
24.623413
24.620441
24.614387
24.619751
24.613985
24.611905
24.61328
24.616508
24.620378
24.623227
24.62388
24.620388
24.613197
24.624495
24.618191
24.61559
24.61651
24.619432
24.62316
24.625975
24.626604
24.622837
24.615004
24.628691
24.622423
24.619688
24.620379
24.62316
24.62689
24.629852
24.630712
24.627079
24.619205
24.631042
24.625262
24.622643
24.623227
24.625973
24.62985
24.633195
24.634646
24.631691
24.624503
24.630776
24.625814
24.623412
24.623876
24.626599
24.630707
24.634643
24.637047
24.635358
24.629694
24.627429
24.623074
24.620437
24.620382
24.622829
24.627071
24.631685
24.635355
24.635665
24.632764
24.623059
24.618221
24.614382
24.613189
24.614995
24.619195
24.624495
24.629689
24.632762
24.634246
24.480728
24.481455
24.483381
24.486603
24.490144
24.493143
24.49459
24.493901
24.49089
24.487253
24.481457
24.479415
24.479561
24.481779
24.48487
24.487905
24.489773
24.489782
24.487318
24.483361
24.483386
24.479564
24.478433
24.479837
24.482487
24.48541
24.487387
24.487595
24.484967
24.480059
24.486611
24.481784
24.47984
24.48064
24.482903
24.485634
24.487532
24.487653
24.484615
24.478787
24.490153
24.484878
24.482492
24.482905
24.484907