/*--------------------------------*- C++ -*----------------------------------*\
| =========                 |                                                 |
| \\      /  F ield         | OpenFOAM: The Open Source CFD Toolbox           |
|  \\    /   O peration     | Version:  dev                                   |
|   \\  /    A nd           | Web:      www.OpenFOAM.org                      |
|    \\/     M anipulation  |                                                 |
\*---------------------------------------------------------------------------*/
FoamFile
{
    version     2.0;
    format      ascii;
    class       volVectorField;
    location    "7.765";
    object      U;
}
// * * * * * * * * * * * * * * * * * * * * * * * * * * * * * * * * * * * * * //

dimensions      [0 1 -1 0 0 0 0];

internalField   nonuniform List<vector> 
10000
(
(0.069651431 0.069651431 0.078660548)
(0.078823285 0.076121251 0.087571713)
(0.082505729 0.076882811 0.088116653)
(0.082682498 0.077076363 0.088136135)
(0.082198739 0.077201254 0.088149848)
(0.081265927 0.077282075 0.088150365)
(0.07937569 0.077392583 0.088225205)
(0.076872405 0.077320069 0.088237901)
(0.065137957 0.077376358 0.089630394)
(0.062474082 0.072578512 0.094585591)
(0.076121251 0.078823284 0.087571713)
(0.087488722 0.087488721 0.098446591)
(0.091900326 0.089058964 0.099169898)
(0.091957792 0.089640491 0.099235968)
(0.09110585 0.089963025 0.099281861)
(0.089608523 0.090162928 0.099307336)
(0.086819662 0.090310714 0.099428504)
(0.083135714 0.090187303 0.099481844)
(0.068685463 0.089278914 0.10102773)
(0.06427147 0.080696876 0.10533104)
(0.076882811 0.082505728 0.088116654)
(0.089058965 0.091900325 0.099169899)
(0.093562675 0.093562674 0.099898464)
(0.093536801 0.094188465 0.099973681)
(0.092487514 0.094510012 0.10002542)
(0.090721745 0.094667895 0.10005276)
(0.087561342 0.094689678 0.10017749)
(0.083489562 0.094347586 0.10022061)
(0.068472922 0.092967434 0.10175388)
(0.064034523 0.08345637 0.10586937)
(0.077076363 0.082682497 0.088136136)
(0.089640491 0.091957791 0.099235969)
(0.094188467 0.0935368 0.099973681)
(0.094105609 0.094105608 0.10005591)
(0.092928171 0.094370698 0.10011143)
(0.091003276 0.094471075 0.10014017)
(0.087649099 0.09441337 0.10026576)
(0.083396798 0.094006756 0.10030315)
(0.068203079 0.092532518 0.10182535)
(0.063904277 0.083143195 0.10588039)
(0.077201254 0.082198739 0.088149849)
(0.089963026 0.09110585 0.099281862)
(0.094510013 0.092487514 0.10002542)
(0.094370699 0.092928171 0.10011143)
(0.093098601 0.0930986 0.10016828)
(0.091067022 0.093131179 0.10019689)
(0.087593758 0.09302706 0.10032166)
(0.083240522 0.092636599 0.10035387)
(0.067972644 0.091280393 0.10186927)
(0.063792674 0.082351991 0.10588944)
(0.077282075 0.081265928 0.088150365)
(0.090162929 0.089608523 0.099307337)
(0.094667896 0.090721745 0.10005276)
(0.094471076 0.091003276 0.10014017)
(0.09313118 0.091067022 0.10019689)
(0.091034457 0.091034457 0.1002255)
(0.087493406 0.090905423 0.10035039)
(0.083082813 0.09057626 0.1003812)
(0.067773016 0.089434265 0.10189472)
(0.063711929 0.08117011 0.10589002)
(0.077392583 0.079375691 0.088225205)
(0.090310715 0.086819663 0.099428505)
(0.094689679 0.087561343 0.10017749)
(0.094413371 0.0876491 0.10026576)
(0.09302706 0.087593759 0.10032166)
(0.090905423 0.087493407 0.10035039)
(0.087342296 0.087342297 0.1004756)
(0.082896778 0.087094395 0.10050695)
(0.067533978 0.086244135 0.10201789)
(0.063588293 0.078970698 0.10596979)
(0.077320069 0.076872406 0.088237902)
(0.090187304 0.083135715 0.099481844)
(0.094347588 0.083489563 0.10022061)
(0.094006757 0.083396799 0.10030315)
(0.092636599 0.083240523 0.10035387)
(0.09057626 0.083082814 0.1003812)
(0.087094394 0.082896779 0.10050695)
(0.082707337 0.082707338 0.10054269)
(0.06734599 0.082066697 0.10206574)
(0.063597076 0.07597482 0.10599086)
(0.077376358 0.065137958 0.089630394)
(0.089278915 0.068685464 0.10102773)
(0.092967435 0.068472923 0.10175388)
(0.092532519 0.06820308 0.10182535)
(0.091280393 0.067972645 0.10186927)
(0.089434265 0.067773017 0.10189472)
(0.086244134 0.067533979 0.10201789)
(0.082066696 0.067345991 0.10206574)
(0.066891234 0.066891235 0.10360852)
(0.063009688 0.06330644 0.10738965)
(0.072578513 0.062474083 0.094585591)
(0.080696877 0.06427147 0.10533104)
(0.083456372 0.064034523 0.10586937)
(0.083143196 0.063904277 0.10588039)
(0.082351991 0.063792674 0.10588944)
(0.081170109 0.063711929 0.10589002)
(0.078970697 0.063588293 0.10596978)
(0.075974819 0.063597077 0.10599085)
(0.063306439 0.063009688 0.10738965)
(0.05957605 0.059576051 0.11051889)
(0.03578685 0.03578685 0.049578926)
(0.051822053 0.045814667 0.067359907)
(0.058020127 0.047464711 0.069791846)
(0.058426352 0.047901247 0.070318741)
(0.057215205 0.048170232 0.070517097)
(0.05486183 0.048334939 0.070720007)
(0.050314903 0.048562097 0.071221409)
(0.044468543 0.048373727 0.072432211)
(0.023680493 0.048503208 0.076608545)
(0.022960445 0.041181735 0.091284039)
(0.045814667 0.051822053 0.067359907)
(0.067577613 0.067577613 0.090919888)
(0.076099835 0.071342984 0.094426338)
(0.076408493 0.072764869 0.095345118)
(0.074200936 0.073536799 0.095766098)
(0.070204929 0.073997453 0.096173934)
(0.063079723 0.074292743 0.096975325)
(0.053973629 0.073875867 0.098643546)
(0.02672931 0.071472889 0.10336883)
(0.022965205 0.055541932 0.11561883)
(0.047464711 0.058020127 0.069791846)
(0.071342984 0.076099835 0.094426338)
(0.080386896 0.080386896 0.098284781)
(0.080565697 0.082022325 0.099385732)
(0.077837446 0.082844054 0.099914842)
(0.073082539 0.083235647 0.10039526)
(0.064924828 0.083254819 0.1012504)
(0.054767399 0.082311352 0.10290445)
(0.026173661 0.078666683 0.10735664)
(0.022393185 0.060117594 0.11823291)
(0.047901247 0.058426351 0.070318741)
(0.072764869 0.076408493 0.095345118)
(0.082022325 0.080565697 0.099385732)
(0.08209107 0.08209107 0.10058633)
(0.079034357 0.08278917 0.10117075)
(0.073849601 0.083046152 0.1016762)
(0.065177507 0.082874311 0.10252571)
(0.05456241 0.081761359 0.10411176)
(0.025580574 0.077861915 0.10835956)
(0.02212482 0.059507502 0.11872215)
(0.048170232 0.057215205 0.070517097)
(0.073536799 0.074200935 0.095766098)
(0.082844054 0.077837446 0.099914842)
(0.08278917 0.079034357 0.10117075)
(0.079493317 0.079493317 0.10178136)
(0.074028853 0.079578896 0.10229333)
(0.065050896 0.079292786 0.10312868)
(0.054190298 0.078228383 0.10466148)
(0.025061257 0.074664516 0.10878657)
(0.021895723 0.057576211 0.1188928)
(0.048334938 0.05486183 0.070720007)
(0.073997453 0.070204929 0.096173934)
(0.083235647 0.073082539 0.10039526)
(0.083046152 0.073849601 0.1016762)
(0.079578896 0.074028853 0.10229333)
(0.073945082 0.073945082 0.1028053)
(0.064795613 0.073599367 0.10363414)
(0.053800406 0.072711758 0.10514197)
(0.024602025 0.069778122 0.1091946)
(0.021731453 0.054618444 0.11909626)
(0.048562096 0.050314903 0.071221409)
(0.074292743 0.063079723 0.096975325)
(0.083254819 0.064924828 0.1012504)
(0.082874311 0.065177507 0.10252571)
(0.079292786 0.065050896 0.10312868)
(0.073599367 0.064795613 0.10363414)
(0.064401877 0.064401877 0.10446523)
(0.053337007 0.063747354 0.10597685)
(0.024057972 0.061659933 0.10999068)
(0.021465422 0.049347333 0.11962692)
(0.048373727 0.044468543 0.072432211)
(0.073875867 0.053973629 0.098643546)
(0.082311352 0.054767399 0.10290445)
(0.081761359 0.05456241 0.10411176)
(0.078228383 0.054190298 0.10466148)
(0.072711758 0.053800406 0.10514197)
(0.063747354 0.053337007 0.10597685)
(0.052858668 0.052858668 0.10752499)
(0.023650597 0.051435673 0.11157535)
(0.021486485 0.04247759 0.12087703)
(0.048503208 0.023680493 0.076608545)
(0.07147289 0.02672931 0.10336883)
(0.078666683 0.026173661 0.10735664)
(0.077861915 0.025580574 0.10835956)
(0.074664516 0.025061257 0.10878657)
(0.069778122 0.024602025 0.1091946)
(0.061659933 0.024057971 0.10999068)
(0.051435673 0.023650597 0.11157535)
(0.022852473 0.022852473 0.11581984)
(0.020279477 0.020039335 0.12487405)
(0.041181735 0.022960445 0.091284039)
(0.055541932 0.022965205 0.11561883)
(0.060117594 0.022393185 0.11823291)
(0.059507503 0.02212482 0.11872215)
(0.057576211 0.021895723 0.1188928)
(0.054618444 0.021731453 0.11909626)
(0.049347333 0.021465422 0.11962692)
(0.04247759 0.021486485 0.12087703)
(0.020039335 0.020279476 0.12487405)
(0.017607535 0.017607535 0.1330212)
(0.018421375 0.018421375 0.031567549)
(0.034102048 0.027443234 0.051688005)
(0.040642062 0.029355847 0.055766003)
(0.041095385 0.0299123 0.056929102)
(0.039326979 0.030251291 0.057435412)
(0.035929428 0.030451614 0.057989113)
(0.029631283 0.030728011 0.059112121)
(0.021935206 0.030475351 0.061781338)
(-0.00042260956 0.030534162 0.067864056)
(0.0029526864 0.022775401 0.083742768)
(0.027443234 0.034102049 0.051688005)
(0.051304989 0.05130499 0.081524257)
(0.061422089 0.056275989 0.08812799)
(0.06189699 0.058235319 0.0903165)
(0.058613453 0.05929406 0.091408647)
(0.052627743 0.059908373 0.092495613)
(0.042356155 0.060258161 0.094325007)
(0.02988257 0.059581906 0.098022998)
(-0.00065549063 0.056244048 0.10481604)
(0.0010717905 0.038395071 0.1154468)
(0.029355847 0.040642062 0.055766004)
(0.056275988 0.06142209 0.08812799)
(0.067402125 0.067402126 0.095760005)
(0.067773224 0.06977388 0.09848098)
(0.063709458 0.070959869 0.099887766)
(0.056536121 0.071513933 0.10118729)
(0.044677454 0.071507725 0.10315586)
(0.030645101 0.07009688 0.10681191)
(-0.0016635292 0.064947725 0.11283357)
(0.00029466305 0.043318306 0.12030543)
(0.0299123 0.041095385 0.056929102)
(0.058235318 0.061896991 0.0903165)
(0.069773879 0.067773225 0.09848098)
(0.070025402 0.070025402 0.10149405)
(0.065480909 0.071055832 0.10306364)
(0.057654195 0.071429674 0.10443831)
(0.04502622 0.071160262 0.10638819)
(0.030340481 0.069502713 0.10985584)
(-0.002450135 0.063978082 0.11531022)
(-3.7520016e-05 0.042558394 0.12148092)
(0.030251291 0.039326979 0.057435412)
(0.059294059 0.058613453 0.091408647)
(0.070959869 0.063709459 0.099887766)
(0.071055832 0.065480909 0.10306364)
(0.066166049 0.066166049 0.10471269)
(0.057923706 0.066293123 0.10610949)
(0.044849098 0.065863347 0.108019)
(0.029823298 0.064288456 0.11133977)
(-0.0031335663 0.059296745 0.1164481)
(-0.0003158596 0.039815837 0.12195102)
(0.030451614 0.035929428 0.057989114)
(0.059908372 0.052627743 0.092495613)
(0.071513932 0.05653612 0.10118729)
(0.071429674 0.057654195 0.10443831)
(0.066293122 0.057923706 0.10610949)
(0.057801446 0.057801445 0.10750633)
(0.044479704 0.057290374 0.10939386)
(0.029273139 0.055998849 0.11263977)
(-0.0037450297 0.05201981 0.11753619)
(-0.00051534884 0.035573525 0.12250604)
(0.030728011 0.029631283 0.059112121)
(0.060258161 0.042356154 0.094325007)
(0.071507725 0.044677454 0.10315586)
(0.071160261 0.045026219 0.10638819)
(0.065863347 0.044849097 0.108019)
(0.057290375 0.044479703 0.10939386)
(0.043908525 0.043908524 0.11128315)
(0.028621391 0.042986003 0.11453264)
(-0.0044628966 0.040344928 0.11932297)
(-0.00085052215 0.028295341 0.12366871)
(0.030475351 0.021935205 0.061781338)
(0.059581906 0.02988257 0.098022998)
(0.070096879 0.030645101 0.10681191)
(0.069502713 0.030340481 0.10985584)
(0.064288456 0.029823297 0.11133977)
(0.055998849 0.029273138 0.11263977)
(0.042986004 0.028621391 0.11453264)
(0.027982165 0.027982164 0.11786775)
(-0.0049497355 0.026416495 0.12273655)
(-0.00081983839 0.019374595 0.12633136)
(0.030534161 -0.0004226097 0.067864056)
(0.056244048 -0.00065549108 0.10481604)
(0.064947724 -0.0016635298 0.11283357)
(0.063978082 -0.0024501357 0.11531022)
(0.059296744 -0.003133567 0.1164481)
(0.05201981 -0.0037450304 0.11753619)
(0.040344929 -0.0044628973 0.11932297)
(0.026416496 -0.0049497361 0.12273655)
(-0.0055564467 -0.0055564471 0.12812348)
(-0.0020102214 -0.0046391136 0.13164539)
(0.022775401 0.0029526862 0.083742768)
(0.038395071 0.0010717902 0.1154468)
(0.043318306 0.00029466273 0.12030543)
(0.042558394 -3.7520308e-05 0.12148092)
(0.039815837 -0.00031585989 0.12195102)
(0.035573525 -0.00051534913 0.12250604)
(0.028295341 -0.00085052246 0.12366871)
(0.019374595 -0.00081983873 0.12633136)
(-0.0046391136 -0.0020102218 0.13164539)
(-0.0013717535 -0.0013717537 0.13597827)
(0.0095121371 0.0095121372 0.021145105)
(0.022392578 0.016376541 0.040130789)
(0.028275983 0.018188956 0.045351298)
(0.028600973 0.018776935 0.047191459)
(0.026404076 0.019138058 0.048097811)
(0.022298907 0.019346657 0.049113936)
(0.015024159 0.01963666 0.05093968)
(0.0066835657 0.019369077 0.055040748)
(-0.013633926 0.019353191 0.061848143)
(-0.0064943105 0.012229886 0.074574618)
(0.016376541 0.022392578 0.040130789)
(0.038288914 0.038288914 0.071889088)
(0.048379408 0.0436643 0.081313308)
(0.048807747 0.045899507 0.085025013)
(0.044676569 0.047114445 0.087025446)
(0.037226196 0.047805282 0.089019253)
(0.02496588 0.04816174 0.092037641)
(0.010990937 0.0473144 0.097728129)
(-0.017605253 0.043600874 0.10496158)
(-0.0097059712 0.026646591 0.10912866)
(0.018188956 0.028275983 0.045351298)
(0.0436643 0.048379408 0.081313308)
(0.055155239 0.05515524 0.092688458)
(0.05552587 0.057981981 0.097438795)
(0.050409991 0.059404604 0.10005642)
(0.041419795 0.060061552 0.10246284)
(0.027147436 0.060028021 0.10572447)
(0.011287155 0.058317998 0.11129855)
(-0.019175507 0.052436289 0.11706285)
(-0.010617868 0.031154547 0.11603318)
(0.018776935 0.028600973 0.047191459)
(0.045899506 0.048807747 0.085025013)
(0.05798198 0.05552587 0.097438795)
(0.05824608 0.058246081 0.10276971)
(0.052537474 0.059504771 0.10571307)
(0.042717926 0.059959854 0.10827038)
(0.027487066 0.059622837 0.11149172)
(0.010854402 0.057618221 0.11669976)
(-0.020092671 0.051294616 0.12138954)
(-0.010975823 0.030265446 0.11803281)
(0.019138058 0.026404076 0.048097811)
(0.047114444 0.044676569 0.087025446)
(0.059404603 0.050409991 0.10005642)
(0.05950477 0.052537474 0.10571307)
(0.053377064 0.053377064 0.10881837)
(0.043040428 0.053534678 0.11142287)
(0.027263825 0.053010386 0.11456495)
(0.010238549 0.051125073 0.11948906)
(-0.02085825 0.045510543 0.12351395)
(-0.011264664 0.026960848 0.11892049)
(0.019346657 0.022298907 0.049113936)
(0.047805281 0.037226196 0.089019253)
(0.060061551 0.041419795 0.10246284)
(0.059959853 0.042717926 0.10827038)
(0.053534678 0.043040427 0.11142287)
(0.042891143 0.042891143 0.11402753)
(0.026816321 0.04227498 0.11712289)
(0.0095878099 0.040767474 0.12189674)
(-0.021545016 0.036494447 0.12551061)
(-0.011472248 0.021864246 0.11993919)
(0.01963666 0.015024159 0.05093968)
(0.04816174 0.024965879 0.092037641)
(0.060028021 0.027147435 0.10572447)
(0.059622836 0.027487066 0.11149172)
(0.053010386 0.027263824 0.11456495)
(0.042274981 0.026816321 0.11712289)
(0.026137611 0.026137611 0.12021607)
(0.0088305918 0.025112007 0.12499004)
(-0.022341051 0.022573058 0.1284123)
(-0.011832408 0.013474504 0.12179001)
(0.019369077 0.0066835656 0.055040748)
(0.047314399 0.010990936 0.097728129)
(0.058317998 0.011287155 0.11129855)
(0.057618221 0.010854401 0.11669976)
(0.051125073 0.010238548 0.11948906)
(0.040767474 0.0095878093 0.12189674)
(0.025112007 0.0088305911 0.12499004)
(0.0081702484 0.0081702478 0.12991742)
(-0.022799018 0.0070115113 0.13349653)
(-0.011792221 0.0039048459 0.1257427)
(0.01935319 -0.013633926 0.061848143)
(0.043600874 -0.017605253 0.10496158)
(0.052436289 -0.019175508 0.11706285)
(0.051294616 -0.020092672 0.12138954)
(0.045510543 -0.02085825 0.12351395)
(0.036494448 -0.021545017 0.12551061)
(0.022573059 -0.022341052 0.1284123)
(0.0070115117 -0.022799018 0.13349653)
(-0.022872144 -0.022872144 0.13807268)
(-0.01267403 -0.017831734 0.13088939)
(0.012229886 -0.0064943106 0.074574618)
(0.026646591 -0.0097059714 0.10912866)
(0.031154547 -0.010617868 0.11603318)
(0.030265446 -0.010975823 0.11803281)
(0.026960848 -0.011264664 0.11892049)
(0.021864246 -0.011472248 0.11993919)
(0.013474504 -0.011832409 0.12179001)
(0.003904846 -0.011792221 0.1257427)
(-0.017831735 -0.01267403 0.13088939)
(-0.0091982171 -0.0091982171 0.12808399)
(0.0048744641 0.0048744642 0.014785136)
(0.014596324 0.0097077957 0.031688605)
(0.019430808 0.011256665 0.037592882)
(0.019506913 0.011815655 0.040055283)
(0.016990564 0.012167912 0.041408567)
(0.012470182 0.012368537 0.042933221)
(0.0048452167 0.012652587 0.045427011)
(-0.0032787409 0.012397209 0.050613964)
(-0.020064747 0.012360773 0.057244654)
(-0.010291933 0.006342088 0.06563046)
(0.0097077954 0.014596324 0.031688605)
(0.02803928 0.028039281 0.063195476)
(0.037132883 0.03325115 0.074899338)
(0.037295516 0.035550736 0.080178166)
(0.032513764 0.036819255 0.083229663)
(0.024102666 0.037532573 0.086240918)
(0.010886464 0.037876629 0.090410853)
(-0.0031120161 0.036963107 0.097586208)
(-0.027190171 0.03332028 0.10391409)
(-0.014242073 0.018554697 0.10050088)
(0.011256665 0.019430808 0.037592882)
(0.03325115 0.037132883 0.074899338)
(0.043969942 0.043969943 0.089587366)
(0.044102942 0.046989227 0.096516548)
(0.038177997 0.048533122 0.10055977)
(0.027959708 0.049244913 0.10422298)
(0.012447263 0.049197039 0.10873683)
(-0.0035782841 0.047363717 0.11565321)
(-0.029351239 0.041404974 0.11967951)
(-0.015231444 0.022290743 0.10905341)
(0.011815655 0.019506913 0.040055283)
(0.035550735 0.037295516 0.080178166)
(0.046989226 0.044102943 0.096516548)
(0.047033324 0.047033325 0.10439183)
(0.040436151 0.048418164 0.10897055)
(0.029259097 0.04892369 0.1128808)
(0.012663279 0.048558015 0.11732284)
(-0.0041825066 0.046412274 0.12364583)
(-0.030370185 0.040005446 0.12599191)
(-0.015591201 0.021247296 0.11189743)
(0.012167912 0.016990564 0.041408567)
(0.036819254 0.032513764 0.083229663)
(0.048533121 0.038177997 0.10055977)
(0.048418164 0.040436151 0.10897055)
(0.041354453 0.041354453 0.11381955)
(0.029590132 0.041532556 0.11781032)
(0.012386675 0.040968971 0.12212318)
(-0.0048693096 0.03898133 0.12798934)
(-0.031166632 0.033437128 0.12928244)
(-0.015868921 0.017573845 0.11327887)
(0.012368537 0.012470182 0.042933221)
(0.037532572 0.024102665 0.086240918)
(0.049244912 0.027959707 0.10422298)
(0.048923689 0.029259097 0.1128808)
(0.041532556 0.029590131 0.11781032)
(0.029423661 0.029423661 0.12180151)
(0.011891521 0.028766224 0.12603489)
(-0.0055730042 0.027234969 0.13165524)
(-0.031875176 0.023293108 0.13229885)
(-0.016068575 0.011987088 0.11480794)
(0.012652587 0.0048452166 0.045427011)
(0.037876628 0.010886464 0.090410853)
(0.049197038 0.012447263 0.10873683)
(0.048558014 0.012663278 0.11732284)
(0.040968971 0.012386674 0.12212318)
(0.028766225 0.01189152 0.12603489)
(0.01117431 0.011174309 0.1302588)
(-0.0063624665 0.010208079 0.13587529)
(-0.032680404 0.0082792457 0.136242)
(-0.016425347 0.003196663 0.11728425)
(0.012397209 -0.0032787409 0.050613964)
(0.036963106 -0.0031120168 0.097586208)
(0.047363716 -0.003578285 0.11565321)
(0.046412273 -0.0041825074 0.12364583)
(0.03898133 -0.0048693105 0.12798934)
(0.027234969 -0.005573005 0.13165524)
(0.010208079 -0.0063624674 0.13587529)
(-0.0069177903 -0.0069177911 0.14173634)
(-0.033034571 -0.0073032106 0.14239948)
(-0.016367242 -0.006063576 0.12210639)
(0.012360773 -0.020064747 0.057244654)
(0.03332028 -0.027190172 0.10391409)
(0.041404973 -0.02935124 0.11967951)
(0.040005446 -0.030370186 0.12599191)
(0.033437128 -0.031166633 0.12928244)
(0.023293108 -0.031875177 0.13229885)
(0.0082792462 -0.032680405 0.136242)
(-0.00730321 -0.033034572 0.14239948)
(-0.032430093 -0.032430094 0.14469486)
(-0.016890172 -0.023990146 0.12612038)
(0.0063420878 -0.010291933 0.06563046)
(0.018554697 -0.014242073 0.10050088)
(0.022290743 -0.015231444 0.10905341)
(0.021247296 -0.015591201 0.11189743)
(0.017573845 -0.015868921 0.11327887)
(0.011987088 -0.016068575 0.11480794)
(0.0031966631 -0.016425347 0.11728425)
(-0.0060635759 -0.016367242 0.12210639)
(-0.023990146 -0.016890172 0.12612038)
(-0.011757541 -0.011757541 0.11656845)
(0.0024424951 0.0024424953 0.010780488)
(0.0093703216 0.0056847409 0.025607389)
(0.013062233 0.0069251654 0.031875297)
(0.012826685 0.0074207698 0.034873016)
(0.010089936 0.0077455143 0.036683405)
(0.0054002371 0.0079294403 0.038708623)
(-0.0020993257 0.0081980558 0.041761742)
(-0.0094503618 0.0079725455 0.047577996)
(-0.022344441 0.0079664227 0.053438218)
(-0.011111918 0.0031324084 0.057468145)
(0.0056847405 0.0093703217 0.025607388)
(0.020069268 0.020069269 0.055921466)
(0.027647583 0.02476116 0.069361342)
(0.027374128 0.026965929 0.076130489)
(0.022119848 0.028210314 0.080291767)
(0.013204689 0.028909661 0.084329917)
(-0.00011339102 0.029239089 0.089478408)
(-0.013079965 0.028357006 0.097444464)
(-0.031687501 0.025092004 0.10193612)
(-0.015310726 0.012952915 0.091282196)
(0.0069251653 0.013062234 0.031875297)
(0.024761159 0.027647584 0.069361342)
(0.034011613 0.034011614 0.086824616)
(0.033697836 0.036999053 0.095911917)
(0.027179948 0.038564652 0.10148571)
(0.016276977 0.039293971 0.10643406)
(0.00051814672 0.039253388 0.11200574)
(-0.01444806 0.037458967 0.11949327)
(-0.034385969 0.031915787 0.12077196)
(-0.01632684 0.015789098 0.10104776)
(0.0074207699 0.012826685 0.034873015)
(0.026965927 0.027374129 0.076130489)
(0.036999052 0.033697837 0.095911917)
(0.036605597 0.036605598 0.10636496)
(0.029361382 0.038021998 0.11271958)
(0.017414409 0.038552294 0.11802489)
(0.00050822566 0.038200663 0.12348148)
(-0.01526285 0.036105266 0.13010682)
(-0.035491642 0.030166032 0.12904134)
(-0.016674095 0.014561552 0.10468399)
(0.0077455144 0.010089936 0.036683405)
(0.028210313 0.022119849 0.080291767)
(0.03856465 0.027179948 0.10148571)
(0.038021997 0.029361382 0.11271958)
(0.030284527 0.030284528 0.11947371)
(0.017707797 0.030474224 0.12489927)
(0.00016474911 0.02992727 0.1301674)
(-0.016005668 0.028029809 0.1361355)
(-0.036288711 0.023082727 0.13358511)
(-0.016929638 0.010672661 0.10659234)
(0.0079294404 0.005400237 0.038708623)
(0.028909659 0.013204689 0.084329917)
(0.03929397 0.016276976 0.10643406)
(0.038552293 0.017414409 0.11802489)
(0.030474224 0.017707796 0.12489927)
(0.0175322 0.0175322 0.13032567)
(-0.00035325104 0.016895255 0.13547546)
(-0.016725863 0.01551372 0.14108879)
(-0.036983257 0.012353839 0.13763121)
(-0.01711277 0.0048931711 0.1086241)
(0.0081980558 -0.0020993259 0.041761742)
(0.029239088 -0.00011339183 0.089478408)
(0.039253387 0.00051814576 0.11200574)
(0.038200662 0.00050822472 0.12348148)
(0.02992727 0.00016474819 0.1301674)
(0.016895256 -0.00035325196 0.13547546)
(-0.0010459505 -0.0010459514 0.140607)
(-0.017486867 -0.001813607 0.14621694)
(-0.03774956 -0.0028067219 0.14241533)
(-0.01744927 -0.0037674653 0.11159452)
(0.0079725453 -0.0094503621 0.047577996)
(0.028357005 -0.013079966 0.097444464)
(0.037458966 -0.014448061 0.11949327)
(0.036105265 -0.015262852 0.13010682)
(0.028029809 -0.016005669 0.1361355)
(0.015513721 -0.016725865 0.14108879)
(-0.0018136061 -0.017486869 0.14621694)
(-0.017839757 -0.017839758 0.15219243)
(-0.037956046 -0.017275138 0.14890519)
(-0.017371474 -0.012127386 0.11679483)
(0.0079664223 -0.022344441 0.053438218)
(0.025092004 -0.031687502 0.10193612)
(0.031915786 -0.03438597 0.12077196)
(0.030166032 -0.035491644 0.12904134)
(0.023082726 -0.036288712 0.13358511)
(0.012353839 -0.036983258 0.13763121)
(-0.0028067211 -0.037749561 0.14241533)
(-0.017275138 -0.037956047 0.14890519)
(-0.036679631 -0.036679632 0.14803407)
(-0.017591711 -0.025913681 0.1191918)
(0.0031324082 -0.011111918 0.057468145)
(0.012952915 -0.015310727 0.091282196)
(0.015789097 -0.01632684 0.10104776)
(0.014561551 -0.016674095 0.10468399)
(0.010672661 -0.016929638 0.10659234)
(0.0048931712 -0.01711277 0.1086241)
(-0.0037674651 -0.01744927 0.11159452)
(-0.012127386 -0.017371474 0.11679483)
(-0.025913681 -0.017591711 0.1191918)
(-0.011806649 -0.011806649 0.10425392)
(0.0011631878 0.001163188 0.0082983356)
(0.0058385691 0.0032514021 0.02134378)
(0.0084455052 0.0041986265 0.027778903)
(0.0078833005 0.0046161895 0.031226423)
(0.0050174966 0.004903761 0.033477103)
(0.00035795256 0.0050673374 0.03595589)
(-0.0066785503 0.0053169123 0.039420664)
(-0.012947094 0.0051333276 0.045426658)
(-0.022179795 0.0051855676 0.050145723)
(-0.010455402 0.0014311726 0.050192564)
(0.0032514016 0.0058385692 0.02134378)
(0.013933667 0.013933668 0.050178302)
(0.019789699 0.017917848 0.064903111)
(0.018977014 0.019918469 0.073029091)
(0.013413986 0.021083209 0.078289787)
(0.0043880051 0.021745559 0.083285113)
(-0.0083739776 0.022066711 0.089159438)
(-0.019643939 0.021294484 0.0972223)
(-0.032800132 0.018586033 0.099295527)
(-0.014555469 0.0090507963 0.082234082)
(0.0041986263 0.0084455055 0.027778903)
(0.017917847 0.0197897 0.064903111)
(0.025338004 0.025338005 0.084629875)
(0.024429377 0.02811793 0.095755377)
(0.017514219 0.029624072 0.10287054)
(0.0064028815 0.030343276 0.10903453)
(-0.0088163691 0.030334614 0.1153766)
(-0.021919423 0.028713541 0.12266559)
(-0.035927892 0.023913108 0.12058353)
(-0.015556054 0.010992083 0.092818044)
(0.0046161894 0.0078833008 0.031226422)
(0.019918467 0.018977015 0.073029091)
(0.028117929 0.024429378 0.095755376)
(0.027122809 0.02712281 0.10869657)
(0.019446579 0.028488556 0.11686065)
(0.0072464217 0.029023089 0.12349801)
(-0.0091291137 0.028726861 0.12966822)
(-0.022968847 0.026842818 0.13579358)
(-0.037108318 0.021748412 0.13068003)
(-0.015883251 0.0095641511 0.097158573)
(0.0049037611 0.0050174966 0.033477102)
(0.021083208 0.013413986 0.078289787)
(0.029624071 0.017514219 0.10287054)
(0.028488555 0.019446579 0.11686065)
(0.020307966 0.020307966 0.12556826)
(0.0074593604 0.020501694 0.13236964)
(-0.0095544391 0.020022934 0.13828443)
(-0.023760305 0.018376231 0.14353321)
(-0.037889602 0.014378447 0.13648284)
(-0.016112196 0.0055831998 0.099589791)
(0.0050673374 0.00035795242 0.035955889)
(0.021745557 0.0043880047 0.083285112)
(0.030343275 0.006402881 0.10903453)
(0.029023088 0.0072464212 0.12349801)
(0.020501693 0.00745936 0.13236964)
(0.0072809411 0.0072809407 0.13917243)
(-0.010075966 0.0067193243 0.1449263)
(-0.024470404 0.0056271219 0.14970504)
(-0.03854777 0.0035240296 0.14148938)
(-0.016275234 -0.0001551161 0.10207723)
(0.0053169122 -0.0066785506 0.039420664)
(0.022066709 -0.0083739786 0.089159438)
(0.030334612 -0.0088163702 0.1153766)
(0.02872686 -0.0091291148 0.12966822)
(0.020022934 -0.0095544401 0.13828443)
(0.0067193248 -0.010075968 0.1449263)
(-0.010691186 -0.010691187 0.15065434)
(-0.025156208 -0.011156481 0.15544015)
(-0.039243797 -0.011059912 0.14684654)
(-0.016582766 -0.0083156593 0.10538091)
(0.0051333273 -0.012947095 0.045426657)
(0.021294483 -0.01964394 0.0972223)
(0.02871354 -0.021919424 0.12266559)
(0.026842817 -0.022968849 0.13579358)
(0.018376231 -0.023760306 0.14353321)
(0.0056271223 -0.024470406 0.14970504)
(-0.01115648 -0.025156209 0.15544015)
(-0.025244422 -0.025244423 0.16074731)
(-0.039285055 -0.023709104 0.15297034)
(-0.016490133 -0.015465649 0.1105211)
(0.0051855671 -0.022179796 0.050145723)
(0.018586032 -0.032800133 0.099295527)
(0.023913107 -0.035927893 0.12058353)
(0.021748412 -0.037108319 0.13068003)
(0.014378447 -0.037889603 0.13648284)
(0.00352403 -0.038547772 0.14148938)
(-0.011059911 -0.039243798 0.14684654)
(-0.023709103 -0.039285056 0.15297034)
(-0.037434673 -0.037434674 0.14851492)
(-0.016492363 -0.025392959 0.11112501)
(0.0014311724 -0.010455402 0.050192564)
(0.0090507962 -0.014555469 0.082234082)
(0.010992083 -0.015556054 0.092818044)
(0.0095641509 -0.015883251 0.097158573)
(0.0055831997 -0.016112196 0.099589791)
(-0.00015511598 -0.016275234 0.10207723)
(-0.008315659 -0.016582766 0.10538091)
(-0.015465649 -0.016490133 0.1105211)
(-0.025392958 -0.016492364 0.11112501)
(-0.010731298 -0.010731298 0.092184231)
(0.00048529552 0.00048529573 0.0068365455)
(0.0034289005 0.0017716674 0.01847976)
(0.0050797083 0.0024666146 0.024978087)
(0.0042106508 0.002804249 0.028801149)
(0.001298697 0.0030511615 0.031455909)
(-0.0031759361 0.0031938777 0.034315072)
(-0.0095301593 0.0034237808 0.038028721)
(-0.0145926 0.0032883567 0.043852307)
(-0.020670137 0.0034069427 0.047227362)
(-0.0091649121 0.00056650471 0.043826354)
(0.0017716669 0.0034289006 0.01847976)
(0.0092498887 0.0092498895 0.04590883)
(0.013382596 0.012461196 0.061580175)
(0.011994118 0.014192117 0.070906772)
(0.006272525 0.015240953 0.077202009)
(-0.0025426675 0.015853302 0.083026355)
(-0.01428108 0.016175566 0.089336064)
(-0.023516183 0.015567673 0.096888055)
(-0.031775608 0.013491837 0.096240969)
(-0.012954446 0.0063120762 0.073786171)
(0.0024666143 0.0050797087 0.024978086)
(0.012461194 0.013382597 0.061580175)
(0.01793369 0.017933691 0.083134352)
(0.016353131 0.020382064 0.096121516)
(0.0092183614 0.021767161 0.10471114)
(-0.0017046912 0.02245698 0.11194631)
(-0.015808291 0.022503346 0.1187249)
(-0.026608493 0.021155178 0.12514068)
(-0.035199421 0.017279473 0.11940537)
(-0.013907628 0.0074378752 0.08486319)
(0.0028042488 0.0042106511 0.028801149)
(0.014192115 0.011994119 0.070906771)
(0.020382063 0.016353133 0.096121515)
(0.01868946 0.018689462 0.11138199)
(0.010773465 0.019938137 0.12129805)
(-0.0012476773 0.020461266 0.12912207)
(-0.016469354 0.020256279 0.13565752)
(-0.027897526 0.018705267 0.14058556)
(-0.036441035 0.014675484 0.13113773)
(-0.014211301 0.0058121216 0.089804362)
(0.0030511614 0.0012986971 0.031455909)
(0.015240952 0.0062725254 0.077202009)
(0.021767159 0.0092183618 0.10471114)
(0.019938136 0.010773466 0.12129805)
(0.011517929 0.011517929 0.13190962)
(-0.0011505704 0.011709542 0.13994285)
(-0.016989115 0.011342168 0.14615006)
(-0.028733685 0.010065858 0.1499723)
(-0.03719866 0.0072115969 0.13813733)
(-0.014413155 0.0018384248 0.09272457)
(0.0031938776 -0.0031759362 0.034315071)
(0.015853301 -0.0025426679 0.083026354)
(0.022456979 -0.0017046918 0.11194631)
(0.020461264 -0.0012476778 0.12912207)
(0.011709542 -0.0011505709 0.13994285)
(-0.0013271191 -0.0013271196 0.14797819)
(-0.017499847 -0.0017691134 0.15398074)
(-0.029415439 -0.0024737415 0.1572187)
(-0.037807941 -0.0033989897 0.14397636)
(-0.01455562 -0.0036828507 0.095594285)
(0.0034237806 -0.0095301596 0.038028721)
(0.016175564 -0.014281081 0.089336063)
(0.022503345 -0.015808292 0.1187249)
(0.020256278 -0.016469355 0.13565752)
(0.011342168 -0.016989116 0.14615006)
(-0.0017691129 -0.017499848 0.15398074)
(-0.017997206 -0.017997207 0.15995399)
(-0.029993611 -0.018096108 0.16322443)