/*--------------------------------*- C++ -*----------------------------------*\
| =========                 |                                                 |
| \\      /  F ield         | OpenFOAM: The Open Source CFD Toolbox           |
|  \\    /   O peration     | Version:  dev                                   |
|   \\  /    A nd           | Web:      www.OpenFOAM.org                      |
|    \\/     M anipulation  |                                                 |
\*---------------------------------------------------------------------------*/
FoamFile
{
    version     2.0;
    format      ascii;
    class       volVectorField;
    location    "7.765";
    object      U_0;
}
// * * * * * * * * * * * * * * * * * * * * * * * * * * * * * * * * * * * * * //

dimensions      [0 1 -1 0 0 0 0];

internalField   nonuniform List<vector> 
10000
(
(0.06965143 0.069651431 0.078660549)
(0.078823281 0.076121251 0.087571713)
(0.082505724 0.076882811 0.088116653)
(0.082682494 0.077076363 0.088136135)
(0.082198738 0.077201254 0.088149848)
(0.081265929 0.077282075 0.088150364)
(0.079375694 0.077392583 0.088225204)
(0.07687241 0.077320069 0.088237901)
(0.065137961 0.077376358 0.089630394)
(0.062474084 0.072578513 0.094585591)
(0.076121249 0.078823284 0.087571713)
(0.087488718 0.087488721 0.098446591)
(0.091900321 0.089058964 0.099169898)
(0.091957788 0.08964049 0.099235968)
(0.091105849 0.089963025 0.099281861)
(0.089608524 0.090162927 0.099307336)
(0.086819666 0.090310714 0.099428504)
(0.083135719 0.090187303 0.099481844)
(0.068685467 0.089278914 0.10102773)
(0.064271471 0.080696876 0.10533104)
(0.07688281 0.082505728 0.088116654)
(0.089058961 0.091900325 0.099169899)
(0.09356267 0.093562674 0.099898464)
(0.093536797 0.094188465 0.099973681)
(0.092487513 0.094510012 0.10002542)
(0.090721747 0.094667895 0.10005276)
(0.087561346 0.094689678 0.10017749)
(0.083489567 0.094347586 0.10022061)
(0.068472927 0.092967434 0.10175388)
(0.064034524 0.083456371 0.10586937)
(0.077076361 0.082682497 0.088136136)
(0.089640487 0.091957791 0.099235969)
(0.094188461 0.0935368 0.099973681)
(0.094105605 0.094105608 0.10005591)
(0.09292817 0.094370698 0.10011143)
(0.091003278 0.094471075 0.10014017)
(0.087649104 0.09441337 0.10026575)
(0.083396803 0.094006756 0.10030315)
(0.068203083 0.092532518 0.10182535)
(0.063904278 0.083143195 0.10588039)
(0.077201253 0.082198739 0.08814985)
(0.089963021 0.09110585 0.099281862)
(0.094510008 0.092487514 0.10002542)
(0.094370695 0.092928171 0.10011143)
(0.0930986 0.093098601 0.10016828)
(0.091067024 0.093131179 0.10019689)
(0.087593763 0.09302706 0.10032166)
(0.083240527 0.092636599 0.10035387)
(0.067972648 0.091280393 0.10186927)
(0.063792676 0.082351991 0.10588944)
(0.077282074 0.081265927 0.088150366)
(0.090162924 0.089608523 0.099307337)
(0.094667891 0.090721745 0.10005276)
(0.094471072 0.091003276 0.10014017)
(0.093131178 0.091067022 0.10019689)
(0.091034459 0.091034457 0.1002255)
(0.087493411 0.090905423 0.10035039)
(0.083082818 0.09057626 0.1003812)
(0.06777302 0.089434265 0.10189472)
(0.06371193 0.081170109 0.10589002)
(0.077392582 0.079375691 0.088225206)
(0.09031071 0.086819663 0.099428505)
(0.094689674 0.087561343 0.10017749)
(0.094413367 0.0876491 0.10026575)
(0.093027059 0.087593759 0.10032166)
(0.090905425 0.087493407 0.10035039)
(0.0873423 0.087342297 0.1004756)
(0.082896783 0.087094395 0.10050695)
(0.067533982 0.086244135 0.10201789)
(0.063588294 0.078970698 0.10596979)
(0.077320068 0.076872406 0.088237902)
(0.0901873 0.083135715 0.099481844)
(0.094347583 0.083489563 0.10022061)
(0.094006753 0.083396799 0.10030315)
(0.092636598 0.083240524 0.10035387)
(0.090576262 0.083082814 0.1003812)
(0.087094398 0.082896779 0.10050695)
(0.082707342 0.082707338 0.10054269)
(0.067345994 0.082066697 0.10206574)
(0.063597078 0.075974819 0.10599086)
(0.077376357 0.065137958 0.089630394)
(0.089278911 0.068685463 0.10102773)
(0.092967431 0.068472923 0.10175388)
(0.092532516 0.06820308 0.10182535)
(0.091280392 0.067972645 0.10186927)
(0.089434266 0.067773017 0.10189472)
(0.086244138 0.067533979 0.10201789)
(0.0820667 0.067345991 0.10206574)
(0.066891238 0.066891235 0.10360852)
(0.063009689 0.063306439 0.10738965)
(0.072578511 0.062474083 0.094585591)
(0.080696873 0.06427147 0.10533104)
(0.083456367 0.064034523 0.10586937)
(0.083143193 0.063904277 0.10588039)
(0.08235199 0.063792675 0.10588944)
(0.081170111 0.063711929 0.10589002)
(0.078970701 0.063588293 0.10596978)
(0.075974823 0.063597076 0.10599085)
(0.063306442 0.063009688 0.10738965)
(0.059576052 0.05957605 0.11051889)
(0.035786848 0.03578685 0.049578928)
(0.051822048 0.045814667 0.067359908)
(0.058020122 0.047464711 0.069791845)
(0.058426347 0.047901247 0.07031874)
(0.057215203 0.048170232 0.070517095)
(0.054861832 0.048334939 0.070720005)
(0.050314908 0.048562097 0.071221408)
(0.044468549 0.048373727 0.072432211)
(0.023680497 0.048503208 0.076608547)
(0.022960447 0.041181735 0.091284041)
(0.045814665 0.051822053 0.067359909)
(0.067577607 0.067577613 0.090919889)
(0.076099829 0.071342984 0.094426338)
(0.076408488 0.072764869 0.095345116)
(0.074200934 0.073536799 0.095766096)
(0.070204932 0.073997452 0.096173932)
(0.063079728 0.074292743 0.096975324)
(0.053973635 0.073875867 0.098643546)
(0.026729315 0.07147289 0.10336884)
(0.022965207 0.055541932 0.11561884)
(0.047464709 0.058020128 0.069791848)
(0.071342979 0.076099835 0.09442634)
(0.08038689 0.080386896 0.09828478)
(0.080565692 0.082022325 0.09938573)
(0.077837445 0.082844053 0.09991484)
(0.073082542 0.083235647 0.10039526)
(0.064924834 0.083254819 0.1012504)
(0.054767406 0.082311352 0.10290445)
(0.026173666 0.078666683 0.10735665)
(0.022393187 0.060117594 0.11823291)
(0.047901245 0.058426352 0.070318744)
(0.072764863 0.076408493 0.095345119)
(0.082022318 0.080565697 0.099385732)
(0.082091065 0.08209107 0.10058633)
(0.079034356 0.08278917 0.10117075)
(0.073849603 0.083046152 0.1016762)
(0.065177512 0.08287431 0.10252571)
(0.054562416 0.081761359 0.10411176)
(0.025580579 0.077861915 0.10835956)
(0.022124822 0.059507503 0.11872216)
(0.04817023 0.057215205 0.070517099)
(0.073536793 0.074200936 0.095766099)
(0.082844047 0.077837446 0.099914842)
(0.082789165 0.079034357 0.10117075)
(0.079493316 0.079493317 0.10178136)
(0.074028855 0.079578896 0.10229333)
(0.065050902 0.079292786 0.10312868)
(0.054190304 0.078228383 0.10466148)
(0.025061262 0.074664516 0.10878657)
(0.021895725 0.057576211 0.1188928)
(0.048334937 0.05486183 0.07072001)
(0.073997447 0.070204929 0.096173935)
(0.083235641 0.073082539 0.10039526)
(0.083046147 0.073849601 0.1016762)
(0.079578894 0.074028853 0.10229333)
(0.073945084 0.073945082 0.1028053)
(0.064795619 0.073599367 0.10363414)
(0.053800412 0.072711758 0.10514197)
(0.02460203 0.069778122 0.1091946)
(0.021731455 0.054618444 0.11909626)
(0.048562095 0.050314903 0.071221411)
(0.074292738 0.063079723 0.096975326)
(0.083254813 0.064924829 0.1012504)
(0.082874306 0.065177507 0.10252571)
(0.079292785 0.065050897 0.10312868)
(0.073599369 0.064795614 0.10363413)
(0.064401882 0.064401877 0.10446523)
(0.053337014 0.063747354 0.10597685)
(0.024057977 0.061659933 0.10999068)
(0.021465424 0.049347333 0.11962692)
(0.048373725 0.044468543 0.072432213)
(0.073875862 0.053973629 0.098643547)
(0.082311346 0.0547674 0.10290445)
(0.081761355 0.05456241 0.10411175)
(0.078228381 0.054190298 0.10466148)
(0.07271176 0.053800406 0.10514197)
(0.063747359 0.053337008 0.10597685)
(0.052858674 0.052858668 0.10752499)
(0.023650602 0.051435673 0.11157535)
(0.021486486 0.04247759 0.12087703)
(0.048503207 0.023680492 0.076608547)
(0.071472885 0.02672931 0.10336883)
(0.078666677 0.026173661 0.10735664)
(0.077861911 0.025580574 0.10835956)
(0.074664514 0.025061257 0.10878657)
(0.069778124 0.024602026 0.1091946)
(0.061659938 0.024057972 0.10999068)
(0.051435679 0.023650597 0.11157535)
(0.022852477 0.022852473 0.11581984)
(0.020279478 0.020039334 0.12487405)
(0.041181734 0.022960445 0.091284041)
(0.055541928 0.022965205 0.11561884)
(0.060117588 0.022393185 0.11823291)
(0.059507498 0.02212482 0.11872215)
(0.05757621 0.021895723 0.1188928)
(0.054618446 0.021731453 0.11909626)
(0.049347338 0.021465422 0.11962692)
(0.042477596 0.021486485 0.12087703)
(0.020039339 0.020279476 0.12487405)
(0.017607537 0.017607535 0.1330212)
(0.018421373 0.018421375 0.031567551)
(0.034102044 0.027443234 0.051688006)
(0.040642056 0.029355847 0.055766003)
(0.041095381 0.0299123 0.056929101)
(0.039326978 0.030251291 0.05743541)
(0.03592943 0.030451614 0.057989112)
(0.029631287 0.030728011 0.05911212)
(0.021935211 0.030475351 0.061781338)
(-0.00042260529 0.030534162 0.067864057)
(0.0029526878 0.022775401 0.08374277)
(0.027443232 0.034102049 0.051688008)
(0.051304984 0.05130499 0.081524258)
(0.061422084 0.056275989 0.088127989)
(0.061896986 0.058235318 0.090316498)
(0.058613452 0.059294059 0.091408645)
(0.052627745 0.059908372 0.09249561)
(0.04235616 0.060258161 0.094325006)
(0.029882576 0.059581906 0.098022998)
(-0.00065548634 0.056244049 0.10481604)
(0.0010717919 0.038395071 0.1154468)
(0.029355845 0.040642062 0.055766006)
(0.056275984 0.06142209 0.088127991)
(0.06740212 0.067402126 0.095760005)
(0.06777322 0.069773879 0.098480978)
(0.063709457 0.070959869 0.099887763)
(0.056536123 0.071513932 0.10118729)
(0.044677459 0.071507725 0.10315585)
(0.030645107 0.07009688 0.10681191)
(-0.0016635247 0.064947725 0.11283357)
(0.0002946645 0.043318306 0.12030543)
(0.029912298 0.041095385 0.056929105)
(0.058235313 0.061896991 0.090316502)
(0.069773873 0.067773225 0.098480979)
(0.070025397 0.070025402 0.10149405)
(0.065480908 0.071055832 0.10306364)
(0.057654198 0.071429674 0.10443831)
(0.045026225 0.071160262 0.10638819)
(0.030340487 0.069502713 0.10985584)
(-0.0024501304 0.063978083 0.11531022)
(-3.7518527e-05 0.042558395 0.12148093)
(0.030251289 0.039326979 0.057435415)
(0.059294054 0.058613453 0.091408649)
(0.070959863 0.063709459 0.099887766)
(0.071055827 0.065480909 0.10306364)
(0.066166048 0.066166049 0.10471269)
(0.057923708 0.066293123 0.10610949)
(0.044849103 0.065863347 0.108019)
(0.029823303 0.064288456 0.11133977)
(-0.0031335616 0.059296745 0.1164481)
(-0.0003158581 0.039815837 0.12195103)
(0.030451612 0.035929428 0.057989117)
(0.059908367 0.052627742 0.092495614)
(0.071513926 0.05653612 0.10118729)
(0.071429669 0.057654195 0.10443831)
(0.066293121 0.057923706 0.10610949)
(0.057801448 0.057801446 0.10750633)
(0.044479709 0.057290374 0.10939386)
(0.029273145 0.055998849 0.11263977)
(-0.0037450251 0.05201981 0.1175362)
(-0.00051534735 0.035573524 0.12250604)
(0.030728009 0.029631282 0.059112124)
(0.060258156 0.042356154 0.094325008)
(0.071507719 0.044677454 0.10315586)
(0.071160257 0.04502622 0.10638819)
(0.065863346 0.044849098 0.108019)
(0.057290377 0.044479703 0.10939386)
(0.04390853 0.043908525 0.11128315)
(0.028621397 0.042986003 0.11453264)
(-0.0044628922 0.040344928 0.11932297)
(-0.00085052069 0.02829534 0.12366872)
(0.03047535 0.021935205 0.06178134)
(0.059581901 0.029882569 0.098022999)
(0.070096874 0.030645101 0.10681191)
(0.069502708 0.030340481 0.10985584)
(0.064288454 0.029823297 0.11133977)
(0.055998851 0.029273139 0.11263977)
(0.042986008 0.028621391 0.11453264)
(0.02798217 0.027982164 0.11786775)
(-0.0049497312 0.026416495 0.12273655)
(-0.00081983699 0.019374594 0.12633136)
(0.03053416 -0.00042261039 0.067864058)
(0.056244044 -0.00065549148 0.10481604)
(0.064947719 -0.0016635297 0.11283357)
(0.063978078 -0.0024501351 0.11531022)
(0.059296743 -0.0031335663 0.1164481)
(0.052019812 -0.0037450298 0.11753619)
(0.040344933 -0.0044628969 0.11932296)
(0.026416501 -0.0049497362 0.12273655)
(-0.0055564426 -0.0055564476 0.12812348)
(-0.0020102201 -0.0046391143 0.13164539)
(0.0227754 0.002952686 0.08374277)
(0.038395067 0.0010717901 0.1154468)
(0.043318301 0.00029466274 0.12030543)
(0.04255839 -3.7520236e-05 0.12148092)
(0.039815836 -0.00031585979 0.12195102)
(0.035573526 -0.00051534904 0.12250603)
(0.028295345 -0.00085052242 0.12366871)
(0.0193746 -0.00081983874 0.12633136)
(-0.0046391096 -0.0020102218 0.13164539)
(-0.0013717522 -0.0013717539 0.13597827)
(0.0095121352 0.0095121373 0.021145107)
(0.022392573 0.016376541 0.04013079)
(0.028275977 0.018188956 0.045351298)
(0.028600968 0.018776935 0.047191458)
(0.026404074 0.019138058 0.048097809)
(0.022298909 0.019346657 0.049113934)
(0.015024164 0.01963666 0.050939679)
(0.0066835717 0.019369077 0.055040748)
(-0.013633922 0.019353191 0.061848144)
(-0.0064943088 0.012229886 0.07457462)
(0.016376539 0.022392578 0.040130791)
(0.038288909 0.038288915 0.071889089)
(0.048379402 0.0436643 0.081313307)
(0.048807742 0.045899507 0.085025011)
(0.044676567 0.047114444 0.087025444)
(0.037226198 0.047805281 0.089019251)
(0.024965885 0.04816174 0.09203764)
(0.010990943 0.0473144 0.097728129)
(-0.017605248 0.043600875 0.10496158)
(-0.0097059695 0.026646591 0.10912866)
(0.018188954 0.028275984 0.0453513)
(0.043664294 0.048379409 0.081313309)
(0.055155233 0.05515524 0.092688458)
(0.055525865 0.05798198 0.097438794)
(0.05040999 0.059404603 0.10005642)
(0.041419798 0.060061551 0.10246284)
(0.027147441 0.060028021 0.10572447)
(0.011287162 0.058317999 0.11129855)
(-0.019175502 0.052436289 0.11706285)
(-0.010617867 0.031154548 0.11603318)
(0.018776933 0.028600973 0.047191462)
(0.045899501 0.048807748 0.085025014)
(0.057981973 0.05552587 0.097438795)
(0.058246075 0.058246081 0.10276971)
(0.052537472 0.059504771 0.10571306)
(0.042717928 0.059959853 0.10827038)
(0.027487072 0.059622836 0.11149172)
(0.010854408 0.057618221 0.11669976)
(-0.020092666 0.051294616 0.12138954)
(-0.010975821 0.030265447 0.11803282)
(0.019138056 0.026404076 0.048097814)
(0.047114438 0.044676569 0.087025448)
(0.059404596 0.050409991 0.10005642)
(0.059504765 0.052537474 0.10571306)
(0.053377062 0.053377064 0.10881837)
(0.04304043 0.053534678 0.11142287)
(0.027263831 0.053010386 0.11456495)
(0.010238555 0.051125073 0.11948906)
(-0.020858245 0.045510543 0.12351395)
(-0.011264662 0.026960848 0.1189205)
(0.019346655 0.022298907 0.049113938)
(0.047805276 0.037226196 0.089019254)
(0.060061545 0.041419795 0.10246284)
(0.059959848 0.042717926 0.10827038)
(0.053534676 0.043040428 0.11142287)
(0.042891145 0.042891143 0.11402753)
(0.026816327 0.04227498 0.11712289)
(0.0095878165 0.040767474 0.12189674)
(-0.021545011 0.036494447 0.12551062)
(-0.011472246 0.021864245 0.11993919)
(0.019636657 0.015024158 0.050939682)
(0.048161734 0.024965879 0.092037643)
(0.060028014 0.027147436 0.10572447)
(0.059622831 0.027487066 0.11149172)
(0.053010385 0.027263825 0.11456495)
(0.042274983 0.026816321 0.11712289)
(0.026137617 0.026137611 0.12021607)
(0.0088305982 0.025112007 0.12499004)
(-0.022341046 0.022573058 0.1284123)
(-0.011832407 0.013474503 0.12179001)
(0.019369075 0.0066835649 0.05504075)
(0.047314394 0.010990936 0.09772813)
(0.058317992 0.011287155 0.11129855)
(0.057618216 0.010854402 0.11669976)
(0.051125071 0.010238549 0.11948906)
(0.040767476 0.00958781 0.12189674)
(0.025112012 0.0088305915 0.12499004)
(0.0081702545 0.0081702477 0.12991742)
(-0.022799013 0.0070115107 0.13349653)
(-0.011792219 0.0039048452 0.12574271)
(0.019353189 -0.013633927 0.061848145)
(0.043600869 -0.017605254 0.10496158)
(0.052436283 -0.019175508 0.11706285)
(0.051294611 -0.020092671 0.12138954)
(0.045510542 -0.02085825 0.12351395)
(0.03649445 -0.021545016 0.12551061)
(0.022573063 -0.022341052 0.1284123)
(0.0070115175 -0.022799018 0.13349653)
(-0.022872139 -0.022872145 0.13807268)
(-0.012674028 -0.017831735 0.13088939)
(0.012229884 -0.0064943108 0.07457462)
(0.026646586 -0.0097059714 0.10912866)
(0.031154542 -0.010617868 0.11603318)
(0.030265442 -0.010975823 0.11803281)
(0.026960846 -0.011264664 0.11892049)
(0.021864247 -0.011472248 0.11993919)
(0.013474508 -0.011832409 0.12179001)
(0.0039048515 -0.011792221 0.1257427)
(-0.01783173 -0.01267403 0.13088939)
(-0.0091982155 -0.0091982173 0.128084)
(0.0048744618 0.0048744642 0.014785137)
(0.014596318 0.0097077956 0.031688606)
(0.019430801 0.011256665 0.037592882)
(0.019506908 0.011815655 0.040055283)
(0.016990562 0.012167912 0.041408566)
(0.012470184 0.012368537 0.04293322)
(0.0048452224 0.012652587 0.04542701)
(-0.0032787341 0.012397209 0.050613964)
(-0.020064742 0.012360773 0.057244655)
(-0.010291931 0.006342088 0.065630461)
(0.0097077931 0.014596324 0.031688607)
(0.028039275 0.028039281 0.063195477)
(0.037132876 0.03325115 0.074899338)
(0.03729551 0.035550735 0.080178165)
(0.032513762 0.036819254 0.083229662)
(0.024102668 0.037532572 0.086240917)
(0.01088647 0.037876628 0.090410853)
(-0.0031120092 0.036963107 0.097586208)
(-0.027190166 0.03332028 0.10391409)
(-0.014242071 0.018554698 0.10050088)
(0.011256662 0.019430809 0.037592884)
(0.033251144 0.037132884 0.074899339)
(0.043969935 0.043969943 0.089587366)
(0.044102937 0.046989226 0.096516547)
(0.038177995 0.048533121 0.10055977)
(0.027959711 0.049244912 0.10422298)
(0.01244727 0.049197038 0.10873683)
(-0.003578277 0.047363717 0.11565321)
(-0.029351234 0.041404974 0.11967951)
(-0.015231442 0.022290744 0.10905341)
(0.011815653 0.019506914 0.040055286)
(0.035550729 0.037295516 0.080178167)
(0.046989218 0.044102943 0.096516548)
(0.047033319 0.047033325 0.10439183)
(0.04043615 0.048418164 0.10897055)
(0.0292591 0.04892369 0.1128808)
(0.012663285 0.048558015 0.11732284)
(-0.0041824991 0.046412273 0.12364583)
(-0.030370179 0.040005446 0.12599191)
(-0.015591199 0.021247297 0.11189744)
(0.012167909 0.016990564 0.041408569)
(0.036819248 0.032513764 0.083229664)
(0.048533113 0.038177997 0.10055977)
(0.048418158 0.040436151 0.10897055)
(0.041354451 0.041354453 0.11381955)
(0.029590135 0.041532556 0.11781032)
(0.012386681 0.040968971 0.12212318)
(-0.0048693021 0.03898133 0.12798934)
(-0.031166626 0.033437128 0.12928244)
(-0.015868919 0.017573845 0.11327887)
(0.012368534 0.012470182 0.042933223)
(0.037532566 0.024102665 0.086240919)
(0.049244904 0.027959708 0.10422298)
(0.048923684 0.029259097 0.1128808)
(0.041532554 0.029590132 0.11781032)
(0.029423664 0.029423661 0.12180151)
(0.011891527 0.028766224 0.12603488)
(-0.0055729967 0.027234969 0.13165524)
(-0.03187517 0.023293108 0.13229885)
(-0.016068573 0.011987088 0.11480794)
(0.012652584 0.004845216 0.045427013)
(0.037876622 0.010886464 0.090410855)
(0.049197031 0.012447263 0.10873683)
(0.048558009 0.012663279 0.11732284)
(0.040968969 0.012386675 0.12212318)
(0.028766227 0.011891521 0.12603488)
(0.011174316 0.01117431 0.1302588)
(-0.0063624593 0.010208078 0.13587529)
(-0.032680398 0.0082792453 0.136242)
(-0.016425345 0.0031966624 0.11728425)
(0.012397207 -0.0032787419 0.050613966)
(0.036963101 -0.0031120173 0.097586209)
(0.047363709 -0.0035782848 0.11565321)
(0.046412268 -0.0041825067 0.12364583)
(0.038981328 -0.0048693095 0.12798933)
(0.027234971 -0.0055730042 0.13165523)
(0.010208085 -0.006362467 0.13587529)
(-0.0069177834 -0.0069177912 0.14173634)
(-0.033034566 -0.0073032113 0.14239948)
(-0.01636724 -0.0060635769 0.12210639)
(0.012360771 -0.020064748 0.057244656)
(0.033320274 -0.027190172 0.10391409)
(0.041404967 -0.02935124 0.11967951)
(0.040005441 -0.030370185 0.12599191)
(0.033437126 -0.031166632 0.12928244)
(0.02329311 -0.031875176 0.13229885)
(0.0082792516 -0.032680404 0.136242)
(-0.0073032035 -0.033034572 0.14239948)
(-0.032430088 -0.032430094 0.14469487)
(-0.01689017 -0.023990147 0.12612038)
(0.0063420859 -0.010291933 0.065630461)
(0.018554692 -0.014242073 0.10050088)
(0.022290737 -0.015231444 0.10905341)
(0.021247291 -0.015591201 0.11189743)
(0.017573843 -0.015868921 0.11327887)
(0.01198709 -0.016068575 0.11480794)
(0.0031966682 -0.016425347 0.11728425)
(-0.0060635697 -0.016367242 0.12210639)
(-0.023990141 -0.016890172 0.12612038)
(-0.011757539 -0.011757542 0.11656845)
(0.0024424928 0.0024424954 0.010780489)
(0.0093703157 0.0056847408 0.025607389)
(0.013062226 0.0069251655 0.031875297)
(0.012826679 0.00742077 0.034873015)
(0.010089935 0.0077455145 0.036683404)
(0.0054002398 0.0079294405 0.038708623)
(-0.0020993197 0.0081980559 0.041761742)
(-0.0094503547 0.0079725455 0.047577996)
(-0.022344435 0.0079664225 0.053438218)
(-0.011111916 0.0031324084 0.057468146)
(0.0056847381 0.0093703227 0.025607389)
(0.020069262 0.020069269 0.055921467)
(0.027647576 0.02476116 0.069361342)
(0.027374122 0.026965928 0.076130489)
(0.022119847 0.028210313 0.080291766)
(0.013204692 0.02890966 0.084329916)
(-0.00011338486 0.029239089 0.089478408)
(-0.013079958 0.028357006 0.097444464)
(-0.031687495 0.025092005 0.10193612)
(-0.015310724 0.012952915 0.091282197)
(0.0069251626 0.013062234 0.031875298)
(0.024761152 0.027647584 0.069361343)
(0.034011605 0.034011614 0.086824617)
(0.033697831 0.036999052 0.095911917)
(0.027179946 0.038564651 0.10148571)
(0.01627698 0.03929397 0.10643406)
(0.00051815309 0.039253388 0.11200574)
(-0.014448052 0.037458967 0.11949327)
(-0.034385963 0.031915787 0.12077196)
(-0.016326838 0.015789098 0.10104776)
(0.0074207671 0.012826685 0.034873017)
(0.026965921 0.027374129 0.07613049)
(0.036999044 0.033697837 0.095911918)
(0.036605591 0.036605598 0.10636496)
(0.02936138 0.038021998 0.11271958)
(0.017414412 0.038552293 0.11802489)
(0.00050823227 0.038200662 0.12348148)
(-0.015262843 0.036105266 0.13010682)
(-0.035491636 0.030166033 0.12904134)
(-0.016674092 0.014561552 0.10468399)
(0.0077455116 0.010089936 0.036683406)
(0.028210306 0.022119849 0.080291768)
(0.038564642 0.027179948 0.10148571)
(0.038021991 0.029361382 0.11271958)
(0.030284525 0.030284528 0.11947371)
(0.0177078 0.030474224 0.12489927)
(0.00016475582 0.02992727 0.1301674)
(-0.01600566 0.028029809 0.1361355)
(-0.036288705 0.023082727 0.13358511)
(-0.016929635 0.010672661 0.10659234)
(0.0079294377 0.0054002367 0.038708625)
(0.028909653 0.013204689 0.084329918)
(0.039293962 0.016276976 0.10643406)
(0.038552287 0.017414409 0.11802489)
(0.030474222 0.017707796 0.12489927)
(0.017532203 0.0175322 0.13032567)
(-0.00035324442 0.016895255 0.13547546)
(-0.016725856 0.01551372 0.14108879)
(-0.036983251 0.012353838 0.13763121)
(-0.017112768 0.0048931708 0.1086241)
(0.0081980532 -0.0020993267 0.041761744)
(0.029239082 -0.0001133922 0.089478409)
(0.039253379 0.0005181459 0.11200574)
(0.038200656 0.00050822527 0.12348148)
(0.029927268 0.00016474892 0.1301674)
(0.016895258 -0.00035325133 0.13547546)
(-0.0010459441 -0.0010459511 0.140607)
(-0.01748686 -0.0018136071 0.14621694)
(-0.037749554 -0.0028067224 0.14241533)
(-0.017449268 -0.003767466 0.11159452)
(0.0079725429 -0.0094503631 0.047577997)
(0.028356999 -0.013079967 0.097444465)
(0.037458958 -0.014448061 0.11949327)
(0.03610526 -0.015262851 0.13010682)
(0.028029807 -0.016005668 0.1361355)
(0.015513723 -0.016725864 0.14108879)
(-0.0018136001 -0.017486868 0.14621694)
(-0.01783975 -0.017839758 0.15219243)
(-0.03795604 -0.017275139 0.14890519)
(-0.017371472 -0.012127387 0.11679483)
(0.0079664201 -0.022344442 0.053438219)
(0.025091998 -0.031687502 0.10193612)
(0.031915779 -0.03438597 0.12077196)
(0.030166026 -0.035491643 0.12904134)
(0.023082725 -0.036288711 0.13358511)
(0.012353841 -0.036983257 0.13763121)
(-0.0028067155 -0.03774956 0.14241533)
(-0.017275131 -0.037956047 0.14890519)
(-0.036679626 -0.036679633 0.14803407)
(-0.017591709 -0.025913682 0.1191918)
(0.0031324062 -0.011111919 0.057468146)
(0.012952909 -0.015310727 0.091282197)
(0.015789091 -0.01632684 0.10104776)
(0.014561546 -0.016674095 0.10468399)
(0.010672659 -0.016929638 0.10659234)
(0.0048931734 -0.01711277 0.1086241)
(-0.0037674597 -0.01744927 0.11159452)
(-0.012127379 -0.017371474 0.11679483)
(-0.025913676 -0.017591711 0.1191918)
(-0.011806647 -0.011806649 0.10425392)
(0.0011631854 0.0011631881 0.0082983359)
(0.0058385629 0.003251402 0.02134378)
(0.0084454979 0.0041986266 0.027778903)
(0.007883295 0.0046161896 0.031226423)
(0.0050174948 0.0049037612 0.033477103)
(0.0003579553 0.0050673376 0.03595589)
(-0.0066785442 0.0053169124 0.039420664)
(-0.012947087 0.0051333275 0.045426657)
(-0.02217979 0.0051855675 0.050145723)
(-0.010455399 0.0014311727 0.050192565)
(0.0032513991 0.0058385703 0.02134378)
(0.013933661 0.013933669 0.050178302)
(0.019789692 0.017917848 0.064903112)
(0.018977009 0.019918468 0.073029091)
(0.013413984 0.021083208 0.078289787)
(0.0043880079 0.021745558 0.083285112)
(-0.0083739713 0.02206671 0.089159438)
(-0.019643931 0.021294484 0.0972223)
(-0.032800127 0.018586033 0.099295527)
(-0.014555467 0.0090507973 0.082234082)
(0.0041986236 0.0084455065 0.027778903)
(0.017917841 0.019789701 0.064903112)
(0.025337996 0.025338005 0.084629875)
(0.024429371 0.028117929 0.095755377)
(0.017514217 0.029624071 0.10287054)
(0.0064028844 0.030343275 0.10903453)
(-0.0088163626 0.030334613 0.1153766)
(-0.021919415 0.028713541 0.12266559)
(-0.035927886 0.023913109 0.12058353)
(-0.015556051 0.010992084 0.092818045)
(0.0046161866 0.0078833014 0.031226423)
(0.01991846 0.018977016 0.073029091)
(0.02811792 0.024429378 0.095755377)
(0.027122802 0.027122809 0.10869657)
(0.019446577 0.028488555 0.11686065)
(0.0072464247 0.029023088 0.12349801)
(-0.0091291069 0.02872686 0.12966822)
(-0.022968839 0.026842818 0.13579358)
(-0.037108311 0.021748413 0.13068003)
(-0.015883248 0.0095641516 0.097158574)
(0.0049037582 0.0050174968 0.033477103)
(0.021083201 0.013413986 0.078289788)
(0.029624063 0.017514219 0.10287054)
(0.028488548 0.019446579 0.11686065)
(0.020307964 0.020307966 0.12556826)
(0.0074593634 0.020501694 0.13236964)
(-0.0095544322 0.020022934 0.13828442)
(-0.023760297 0.018376231 0.14353321)
(-0.037889595 0.014378447 0.13648284)
(-0.016112193 0.0055831999 0.099589792)
(0.0050673346 0.00035795207 0.03595589)
(0.02174555 0.0043880045 0.083285113)
(0.030343267 0.0064028811 0.10903453)
(0.029023081 0.0072464215 0.12349801)
(0.020501691 0.0074593603 0.13236964)
(0.0072809441 0.007280941 0.13917243)
(-0.01007596 0.0067193245 0.1449263)
(-0.024470396 0.0056271218 0.14970504)
(-0.038547764 0.0035240294 0.14148938)
(-0.016275231 -0.00015511648 0.10207723)
(0.0053169095 -0.0066785514 0.039420665)
(0.022066703 -0.008373979 0.089159439)
(0.030334604 -0.0088163701 0.1153766)
(0.028726854 -0.0091291142 0.12966822)
(0.020022932 -0.0095544394 0.13828442)
(0.0067193276 -0.010075967 0.1449263)
(-0.010691179 -0.010691187 0.15065434)
(-0.0251562 -0.011156482 0.15544015)
(-0.039243791 -0.011059912 0.14684654)
(-0.016582763 -0.0083156601 0.10538091)
(0.0051333248 -0.012947096 0.045426658)
(0.021294477 -0.01964394 0.097222301)
(0.028713532 -0.021919424 0.12266559)
(0.026842811 -0.022968848 0.13579358)
(0.018376229 -0.023760305 0.14353321)
(0.0056271249 -0.024470405 0.14970504)
(-0.011156474 -0.025156208 0.15544015)
(-0.025244414 -0.025244423 0.16074731)
(-0.039285049 -0.023709105 0.15297034)
(-0.016490131 -0.01546565 0.11052111)
(0.0051855649 -0.022179797 0.050145724)
(0.018586026 -0.032800134 0.099295527)
(0.0239131 -0.035927893 0.12058353)
(0.021748406 -0.037108318 0.13068003)
(0.014378445 -0.037889602 0.13648284)
(0.0035240324 -0.03854777 0.14148938)
(-0.011059905 -0.039243798 0.14684654)
(-0.023709096 -0.039285056 0.15297034)
(-0.037434667 -0.037434674 0.14851492)
(-0.016492361 -0.02539296 0.11112501)
(0.0014311703 -0.010455402 0.050192565)
(0.0090507906 -0.014555469 0.082234082)
(0.010992076 -0.015556054 0.092818044)
(0.0095641456 -0.015883251 0.097158573)
(0.0055831978 -0.016112196 0.099589791)
(-0.00015511373 -0.016275234 0.10207723)
(-0.0083156534 -0.016582766 0.10538091)
(-0.015465642 -0.016490133 0.1105211)
(-0.025392953 -0.016492364 0.11112501)
(-0.010731295 -0.010731298 0.092184232)
(0.00048529311 0.00048529591 0.0068365455)
(0.0034288942 0.0017716674 0.01847976)
(0.0050797009 0.0024666147 0.024978087)
(0.0042106451 0.0028042491 0.02880115)
(0.0012986952 0.0030511616 0.03145591)
(-0.0031759333 0.0031938778 0.034315072)
(-0.009530153 0.0034237809 0.038028721)
(-0.014592592 0.0032883567 0.043852307)
(-0.020670131 0.0034069426 0.047227362)
(-0.0091649098 0.00056650485 0.043826354)
(0.0017716644 0.0034289018 0.01847976)
(0.0092498823 0.0092498903 0.04590883)
(0.013382588 0.012461196 0.061580176)
(0.011994112 0.014192116 0.070906772)
(0.0062725232 0.015240952 0.077202009)
(-0.0025426647 0.015853301 0.083026355)
(-0.014281074 0.016175565 0.089336063)
(-0.023516175 0.015567673 0.096888055)
(-0.031775602 0.013491838 0.096240969)
(-0.012954443 0.0063120773 0.073786171)
(0.0024666116 0.0050797098 0.024978087)
(0.012461188 0.013382598 0.061580176)
(0.017933682 0.017933691 0.083134353)
(0.016353125 0.020382064 0.096121516)
(0.0092183596 0.02176716 0.10471114)
(-0.0017046883 0.022456979 0.11194631)
(-0.015808284 0.022503346 0.1187249)
(-0.026608485 0.021155178 0.12514068)
(-0.035199414 0.017279474 0.11940537)
(-0.013907625 0.0074378761 0.08486319)
(0.002804246 0.0042106518 0.028801149)
(0.014192108 0.01199412 0.070906772)
(0.020382054 0.016353133 0.096121516)
(0.018689454 0.018689461 0.11138199)
(0.010773463 0.019938137 0.12129805)
(-0.0012476742 0.020461265 0.12912207)
(-0.016469347 0.020256279 0.13565752)
(-0.027897518 0.018705267 0.14058556)
(-0.036441028 0.014675484 0.13113773)
(-0.014211298 0.0058121222 0.089804363)
(0.0030511585 0.0012986973 0.031455909)
(0.015240944 0.0062725255 0.077202009)
(0.021767151 0.0092183619 0.10471114)
(0.01993813 0.010773466 0.12129805)
(0.011517927 0.011517929 0.13190962)
(-0.0011505674 0.011709542 0.13994285)
(-0.016989108 0.011342168 0.14615005)
(-0.028733677 0.010065858 0.1499723)
(-0.037198653 0.007211597 0.13813733)
(-0.014413152 0.0018384249 0.092724571)
(0.0031938747 -0.0031759366 0.034315072)
(0.015853294 -0.0025426681 0.083026355)
(0.02245697 -0.0017046917 0.11194631)
(0.020461258 -0.0012476774 0.12912207)
(0.01170954 -0.0011505705 0.13994285)
(-0.0013271162 -0.0013271193 0.14797819)
(-0.01749984 -0.0017691133 0.15398074)
(-0.029415431 -0.0024737415 0.1572187)
(-0.037807934 -0.0033989899 0.14397636)
(-0.014555618 -0.0036828511 0.095594286)
(0.0034237779 -0.0095301604 0.038028721)
(0.016175557 -0.014281082 0.089336064)
(0.022503337 -0.015808292 0.1187249)
(0.020256272 -0.016469354 0.13565752)
(0.011342166 -0.016989115 0.14615006)
(-0.0017691101 -0.017499848 0.15398074)
(-0.017997199 -0.017997207 0.15995399)
(-0.029993603 -0.018096108 0.16322443)
(-0.038415627 -0.016895308 0.14961356)