/*--------------------------------*- C++ -*----------------------------------*\
| =========                 |                                                 |
| \\      /  F ield         | OpenFOAM: The Open Source CFD Toolbox           |
|  \\    /   O peration     | Version:  dev                                   |
|   \\  /    A nd           | Web:      www.OpenFOAM.org                      |
|    \\/     M anipulation  |                                                 |
\*---------------------------------------------------------------------------*/
FoamFile
{
    version     2.0;
    format      ascii;
    class       volScalarField;
    location    "18";
    object      A;
}
// * * * * * * * * * * * * * * * * * * * * * * * * * * * * * * * * * * * * * //

dimensions      [0 0 0 0 1 0 0];

internalField   nonuniform List<scalar> 
10000
(
2.8224555e-56
2.8220407e-56
2.8218611e-56
2.8217912e-56
2.8217677e-56
2.8217608e-56
2.8217594e-56
2.8217603e-56
2.8217641e-56
2.8217766e-56
2.8220407e-56
2.8216261e-56
2.8214466e-56
2.8213768e-56
2.8213532e-56
2.8213464e-56
2.8213451e-56
2.8213464e-56
2.8213515e-56
2.8213683e-56
2.8218611e-56
2.8214466e-56
2.821267e-56
2.8211972e-56
2.8211737e-56
2.8211669e-56
2.8211657e-56
2.8211673e-56
2.8211732e-56
2.8211913e-56
2.8217912e-56
2.8213768e-56
2.8211972e-56
2.8211274e-56
2.8211039e-56
2.8210971e-56
2.821096e-56
2.8210977e-56
2.8211039e-56
2.8211225e-56
2.8217677e-56
2.8213532e-56
2.8211737e-56
2.8211039e-56
2.8210804e-56
2.8210736e-56
2.8210725e-56
2.8210743e-56
2.8210806e-56
2.8210992e-56
2.8217608e-56
2.8213464e-56
2.8211669e-56
2.8210971e-56
2.8210736e-56
2.8210669e-56
2.8210658e-56
2.8210676e-56
2.8210739e-56
2.8210926e-56
2.8217594e-56
2.8213451e-56
2.8211657e-56
2.821096e-56
2.8210725e-56
2.8210658e-56
2.8210647e-56
2.8210665e-56
2.8210728e-56
2.8210915e-56
2.8217603e-56
2.8213464e-56
2.8211673e-56
2.8210977e-56
2.8210743e-56
2.8210676e-56
2.8210665e-56
2.8210683e-56
2.8210746e-56
2.8210933e-56
2.8217641e-56
2.8213515e-56
2.8211732e-56
2.8211039e-56
2.8210806e-56
2.8210739e-56
2.8210728e-56
2.8210746e-56
2.8210809e-56
2.8210996e-56
2.8217766e-56
2.8213683e-56
2.8211913e-56
2.8211225e-56
2.8210992e-56
2.8210926e-56
2.8210915e-56
2.8210933e-56
2.8210996e-56
2.8211183e-56
1.4562873e-55
1.4560793e-55
1.4559882e-55
1.4559528e-55
1.4559409e-55
1.4559374e-55
1.4559367e-55
1.4559371e-55
1.455939e-55
1.4559456e-55
1.4560793e-55
1.4558714e-55
1.4557804e-55
1.455745e-55
1.455733e-55
1.4557296e-55
1.4557289e-55
1.4557296e-55
1.4557322e-55
1.4557409e-55
1.4559882e-55
1.4557804e-55
1.4556894e-55
1.455654e-55
1.455642e-55
1.4556386e-55
1.455638e-55
1.4556388e-55
1.4556418e-55
1.4556512e-55
1.4559528e-55
1.455745e-55
1.455654e-55
1.4556186e-55
1.4556066e-55
1.4556032e-55
1.4556026e-55
1.4556035e-55
1.4556066e-55
1.4556163e-55
1.4559409e-55
1.455733e-55
1.455642e-55
1.4556066e-55
1.4555947e-55
1.4555913e-55
1.4555907e-55
1.4555916e-55
1.4555948e-55
1.4556045e-55
1.4559374e-55
1.4557296e-55
1.4556386e-55
1.4556032e-55
1.4555913e-55
1.4555878e-55
1.4555873e-55
1.4555882e-55
1.4555914e-55
1.4556011e-55
1.4559367e-55
1.4557289e-55
1.455638e-55
1.4556026e-55
1.4555907e-55
1.4555873e-55
1.4555867e-55
1.4555876e-55
1.4555909e-55
1.4556006e-55
1.4559371e-55
1.4557296e-55
1.4556388e-55
1.4556035e-55
1.4555916e-55
1.4555882e-55
1.4555876e-55
1.4555886e-55
1.4555918e-55
1.4556015e-55
1.455939e-55
1.4557322e-55
1.4556418e-55
1.4556066e-55
1.4555948e-55
1.4555914e-55
1.4555909e-55
1.4555918e-55
1.455595e-55
1.4556047e-55
1.4559456e-55
1.4557409e-55
1.4556512e-55
1.4556163e-55
1.4556045e-55
1.4556011e-55
1.4556006e-55
1.4556015e-55
1.4556047e-55
1.4556145e-55
5.8901931e-55
5.8893754e-55
5.889016e-55
5.888876e-55
5.8888287e-55
5.888815e-55
5.8888122e-55
5.8888139e-55
5.8888214e-55
5.8888471e-55
5.8893754e-55
5.8885582e-55
5.8881988e-55
5.8880589e-55
5.8880116e-55
5.8879979e-55
5.8879954e-55
5.8879979e-55
5.8880082e-55
5.8880427e-55
5.889016e-55
5.8881988e-55
5.8878396e-55
5.8876997e-55
5.8876524e-55
5.8876388e-55
5.8876365e-55
5.8876396e-55
5.8876514e-55
5.8876887e-55
5.888876e-55
5.8880589e-55
5.8876997e-55
5.8875597e-55
5.8875125e-55
5.8874989e-55
5.8874967e-55
5.8875002e-55
5.8875126e-55
5.8875507e-55
5.8888287e-55
5.8880116e-55
5.8876524e-55
5.8875125e-55
5.8874652e-55
5.8874517e-55
5.8874495e-55
5.8874531e-55
5.8874657e-55
5.887504e-55
5.888815e-55
5.8879979e-55
5.8876388e-55
5.8874989e-55
5.8874517e-55
5.8874382e-55
5.887436e-55
5.8874396e-55
5.8874523e-55
5.8874907e-55
5.8888122e-55
5.8879954e-55
5.8876365e-55
5.8874967e-55
5.8874495e-55
5.887436e-55
5.8874338e-55
5.8874375e-55
5.8874502e-55
5.8874886e-55
5.8888139e-55
5.8879979e-55
5.8876396e-55
5.8875002e-55
5.8874531e-55
5.8874396e-55
5.8874375e-55
5.8874411e-55
5.8874538e-55
5.8874922e-55
5.8888214e-55
5.8880082e-55
5.8876514e-55
5.8875126e-55
5.8874657e-55
5.8874523e-55
5.8874502e-55
5.8874538e-55
5.8874665e-55
5.8875049e-55
5.8888471e-55
5.8880427e-55
5.8876887e-55
5.8875507e-55
5.887504e-55
5.8874907e-55
5.8874886e-55
5.8874922e-55
5.8875049e-55
5.8875433e-55
2.3968523e-54
2.3965291e-54
2.3963865e-54
2.396331e-54
2.3963122e-54
2.3963067e-54
2.3963056e-54
2.3963063e-54
2.3963092e-54
2.3963192e-54
2.3965291e-54
2.396206e-54
2.3960635e-54
2.396008e-54
2.3959892e-54
2.3959837e-54
2.3959827e-54
2.3959837e-54
2.3959878e-54
2.3960013e-54
2.3963865e-54
2.3960635e-54
2.3959211e-54
2.3958655e-54
2.3958467e-54
2.3958413e-54
2.3958404e-54
2.3958417e-54
2.3958463e-54
2.3958609e-54
2.396331e-54
2.396008e-54
2.3958655e-54
2.39581e-54
2.3957912e-54
2.3957858e-54
2.3957849e-54
2.3957863e-54
2.3957912e-54
2.3958061e-54
2.3963122e-54
2.3959892e-54
2.3958467e-54
2.3957912e-54
2.3957724e-54
2.395767e-54
2.3957662e-54
2.3957676e-54
2.3957726e-54
2.3957876e-54
2.3963067e-54
2.3959837e-54
2.3958413e-54
2.3957858e-54
2.395767e-54
2.3957617e-54
2.3957608e-54
2.3957623e-54
2.3957673e-54
2.3957823e-54
2.3963056e-54
2.3959827e-54
2.3958404e-54
2.3957849e-54
2.3957662e-54
2.3957608e-54
2.39576e-54
2.3957614e-54
2.3957664e-54
2.3957815e-54
2.3963063e-54
2.3959837e-54
2.3958417e-54
2.3957863e-54
2.3957676e-54
2.3957623e-54
2.3957614e-54
2.3957629e-54
2.3957679e-54
2.3957829e-54
2.3963092e-54
2.3959878e-54
2.3958463e-54
2.3957912e-54
2.3957726e-54
2.3957673e-54
2.3957664e-54
2.3957679e-54
2.3957729e-54
2.395788e-54
2.3963192e-54
2.3960013e-54
2.3958609e-54
2.3958061e-54
2.3957876e-54
2.3957823e-54
2.3957815e-54
2.3957829e-54
2.395788e-54
2.395803e-54
9.9494513e-54
9.9481486e-54
9.9475723e-54
9.9473473e-54
9.9472712e-54
9.9472491e-54
9.9472446e-54
9.9472474e-54
9.9472593e-54
9.9472983e-54
9.9481486e-54
9.9468465e-54
9.9462704e-54
9.9460455e-54
9.9459694e-54
9.9459474e-54
9.9459433e-54
9.9459475e-54
9.9459638e-54
9.9460174e-54
9.9475723e-54
9.9462704e-54
9.9456945e-54
9.9454696e-54
9.9453936e-54
9.9453717e-54
9.9453679e-54
9.9453731e-54
9.945392e-54
9.9454501e-54
9.9473473e-54
9.9460455e-54
9.9454696e-54
9.9452447e-54
9.9451687e-54
9.9451469e-54
9.9451433e-54
9.945149e-54
9.9451689e-54
9.9452284e-54
9.9472712e-54
9.9459694e-54
9.9453936e-54
9.9451687e-54
9.9450927e-54
9.9450709e-54
9.9450674e-54
9.9450733e-54
9.9450935e-54
9.9451534e-54
9.9472491e-54
9.9459474e-54
9.9453717e-54
9.9451469e-54
9.9450709e-54
9.9450492e-54
9.9450457e-54
9.9450516e-54
9.945072e-54
9.9451319e-54
9.9472446e-54
9.9459433e-54
9.9453679e-54
9.9451433e-54
9.9450674e-54
9.9450457e-54
9.9450422e-54
9.9450482e-54
9.9450686e-54
9.9451285e-54
9.9472474e-54
9.9459475e-54
9.9453731e-54
9.945149e-54
9.9450733e-54
9.9450516e-54
9.9450482e-54
9.9450541e-54
9.9450745e-54
9.9451345e-54
9.9472593e-54
9.9459638e-54
9.945392e-54
9.9451689e-54
9.9450935e-54
9.945072e-54
9.9450686e-54
9.9450745e-54
9.9450949e-54
9.9451549e-54
9.9472983e-54
9.9460174e-54
9.9454501e-54
9.9452284e-54
9.9451534e-54
9.9451319e-54
9.9451285e-54
9.9451345e-54
9.9451549e-54
9.9452149e-54
4.216887e-53
4.2163511e-53
4.2161134e-53
4.2160204e-53
4.215989e-53
4.2159798e-53
4.215978e-53
4.2159791e-53
4.215984e-53
4.2159997e-53
4.2163511e-53
4.2158155e-53
4.2155778e-53
4.2154849e-53
4.2154535e-53
4.2154444e-53
4.2154427e-53
4.2154444e-53
4.2154511e-53
4.2154729e-53
4.2161134e-53
4.2155778e-53
4.2153402e-53
4.2152473e-53
4.2152159e-53
4.2152068e-53
4.2152053e-53
4.2152075e-53
4.2152153e-53
4.2152389e-53
4.2160204e-53
4.2154849e-53
4.2152473e-53
4.2151544e-53
4.215123e-53
4.215114e-53
4.2151125e-53
4.2151149e-53
4.2151231e-53
4.2151473e-53
4.215989e-53
4.2154535e-53
4.2152159e-53
4.215123e-53
4.2150916e-53
4.2150826e-53
4.2150812e-53
4.2150836e-53
4.215092e-53
4.2151163e-53
4.2159798e-53
4.2154444e-53
4.2152068e-53
4.215114e-53
4.2150826e-53
4.2150736e-53
4.2150722e-53
4.2150746e-53
4.2150831e-53
4.2151075e-53
4.215978e-53
4.2154427e-53
4.2152053e-53
4.2151125e-53
4.2150812e-53
4.2150722e-53
4.2150708e-53
4.2150732e-53
4.2150817e-53
4.2151061e-53
4.2159791e-53
4.2154444e-53
4.2152075e-53
4.2151149e-53
4.2150836e-53
4.2150746e-53
4.2150732e-53
4.2150757e-53
4.2150841e-53
4.2151086e-53
4.215984e-53
4.2154511e-53
4.2152153e-53
4.2151231e-53
4.215092e-53
4.2150831e-53
4.2150817e-53
4.2150841e-53
4.2150926e-53
4.215117e-53
4.2159997e-53
4.2154729e-53
4.2152389e-53
4.2151473e-53
4.2151163e-53
4.2151075e-53
4.2151061e-53
4.2151086e-53
4.215117e-53
4.2151414e-53
1.8249911e-52
1.8247662e-52
1.8246661e-52
1.8246269e-52
1.8246136e-52
1.8246098e-52
1.824609e-52
1.8246095e-52
1.8246115e-52
1.8246179e-52
1.8247662e-52
1.8245413e-52
1.8244412e-52
1.824402e-52
1.8243888e-52
1.8243849e-52
1.8243842e-52
1.824385e-52
1.8243878e-52
1.8243968e-52
1.8246661e-52
1.8244412e-52
1.8243412e-52
1.824302e-52
1.8242887e-52
1.8242849e-52
1.8242843e-52
1.8242852e-52
1.8242885e-52
1.8242983e-52
1.8246269e-52
1.824402e-52
1.824302e-52
1.8242628e-52
1.8242496e-52
1.8242458e-52
1.8242452e-52
1.8242462e-52
1.8242496e-52
1.8242597e-52
1.8246136e-52
1.8243888e-52
1.8242887e-52
1.8242496e-52
1.8242363e-52
1.8242325e-52
1.8242319e-52
1.824233e-52
1.8242365e-52
1.8242466e-52
1.8246098e-52
1.8243849e-52
1.8242849e-52
1.8242458e-52
1.8242325e-52
1.8242287e-52
1.8242281e-52
1.8242292e-52
1.8242327e-52
1.8242429e-52
1.824609e-52
1.8243842e-52
1.8242843e-52
1.8242452e-52
1.8242319e-52
1.8242281e-52
1.8242275e-52
1.8242286e-52
1.8242322e-52
1.8242423e-52
1.8246095e-52
1.824385e-52
1.8242852e-52
1.8242462e-52
1.824233e-52
1.8242292e-52
1.8242286e-52
1.8242297e-52
1.8242332e-52
1.8242434e-52
1.8246115e-52
1.8243878e-52
1.8242885e-52
1.8242496e-52
1.8242365e-52
1.8242327e-52
1.8242322e-52
1.8242332e-52
1.8242368e-52
1.8242469e-52
1.8246179e-52
1.8243968e-52
1.8242983e-52
1.8242597e-52
1.8242466e-52
1.8242429e-52
1.8242423e-52
1.8242434e-52
1.8242469e-52
1.8242571e-52
8.065327e-52
8.0643628e-52
8.0639326e-52
8.063764e-52
8.0637069e-52
8.0636903e-52
8.0636869e-52
8.0636891e-52
8.0636977e-52
8.0637246e-52
8.0643628e-52
8.0633991e-52
8.062969e-52
8.0628004e-52
8.0627433e-52
8.0627269e-52
8.0627238e-52
8.062727e-52
8.0627392e-52
8.0627775e-52
8.0639326e-52
8.062969e-52
8.062539e-52
8.0623705e-52
8.0623134e-52
8.062297e-52
8.0622943e-52
8.0622982e-52
8.0623124e-52
8.0623542e-52
8.063764e-52
8.0628004e-52
8.0623705e-52
8.062202e-52
8.0621449e-52
8.0621286e-52
8.062126e-52
8.0621303e-52
8.0621453e-52
8.0621881e-52
8.0637069e-52
8.0627433e-52
8.0623134e-52
8.0621449e-52
8.0620879e-52
8.0620716e-52
8.062069e-52
8.0620735e-52
8.0620888e-52
8.0621319e-52
8.0636903e-52
8.0627269e-52
8.062297e-52
8.0621286e-52
8.0620716e-52
8.0620552e-52
8.0620527e-52
8.0620573e-52
8.0620726e-52
8.0621158e-52
8.0636869e-52
8.0627238e-52
8.0622943e-52
8.062126e-52
8.062069e-52
8.0620527e-52
8.0620502e-52
8.0620547e-52
8.0620701e-52
8.0621133e-52
8.0636891e-52
8.062727e-52
8.0622982e-52
8.0621303e-52
8.0620735e-52
8.0620573e-52
8.0620547e-52
8.0620593e-52
8.0620747e-52
8.0621179e-52
8.0636977e-52
8.0627392e-52
8.0623124e-52
8.0621453e-52
8.0620888e-52
8.0620726e-52
8.0620701e-52
8.0620747e-52
8.06209e-52
8.0621332e-52
8.0637246e-52
8.0627775e-52
8.0623542e-52
8.0621881e-52
8.0621319e-52
8.0621158e-52
8.0621133e-52
8.0621179e-52
8.0621332e-52
8.0621765e-52
3.6398728e-51
3.639451e-51
3.6392623e-51
3.6391883e-51
3.6391632e-51
3.6391559e-51
3.6391544e-51
3.6391554e-51
3.6391592e-51
3.6391707e-51
3.639451e-51
3.6390295e-51
3.6388408e-51
3.6387668e-51
3.6387417e-51
3.6387345e-51
3.6387331e-51
3.6387346e-51
3.6387399e-51
3.6387565e-51
3.6392623e-51
3.6388408e-51
3.6386522e-51
3.6385782e-51
3.6385531e-51
3.6385459e-51
3.6385447e-51
3.6385465e-51
3.6385527e-51
3.6385709e-51
3.6391883e-51
3.6387668e-51
3.6385782e-51
3.6385042e-51
3.6384792e-51
3.638472e-51
3.6384708e-51
3.6384728e-51
3.6384794e-51
3.638498e-51
3.6391632e-51
3.6387417e-51
3.6385531e-51
3.6384792e-51
3.6384541e-51
3.6384469e-51
3.6384458e-51
3.6384478e-51
3.6384545e-51
3.6384732e-51
3.6391559e-51
3.6387345e-51
3.6385459e-51
3.638472e-51
3.6384469e-51
3.6384398e-51
3.6384386e-51
3.6384407e-51
3.6384474e-51
3.6384662e-51
3.6391544e-51
3.6387331e-51
3.6385447e-51
3.6384708e-51
3.6384458e-51
3.6384386e-51
3.6384375e-51
3.6384396e-51
3.6384463e-51
3.6384651e-51
3.6391554e-51
3.6387346e-51
3.6385465e-51
3.6384728e-51
3.6384478e-51
3.6384407e-51
3.6384396e-51
3.6384416e-51
3.6384484e-51
3.6384671e-51
3.6391592e-51
3.6387399e-51
3.6385527e-51
3.6384794e-51
3.6384545e-51
3.6384474e-51
3.6384463e-51
3.6384484e-51
3.6384551e-51
3.6384739e-51
3.6391707e-51
3.6387565e-51
3.6385709e-51
3.638498e-51
3.6384732e-51
3.6384662e-51
3.6384651e-51
3.6384671e-51
3.6384739e-51
3.6384927e-51
1.6774866e-50
1.6772983e-50
1.6772138e-50
1.6771806e-50
1.6771694e-50
1.6771661e-50
1.6771655e-50
1.6771659e-50
1.6771676e-50
1.6771726e-50
1.6772983e-50
1.6771101e-50
1.6770256e-50
1.6769924e-50
1.6769812e-50
1.676978e-50
1.6769774e-50
1.676978e-50
1.6769804e-50
1.6769877e-50
1.6772138e-50
1.6770256e-50
1.6769412e-50
1.676908e-50
1.6768968e-50
1.6768935e-50
1.676893e-50
1.6768938e-50
1.6768966e-50
1.6769046e-50
1.6771806e-50
1.6769924e-50
1.676908e-50
1.6768749e-50
1.6768636e-50
1.6768604e-50
1.6768599e-50
1.6768608e-50
1.6768637e-50
1.676872e-50
1.6771694e-50
1.6769812e-50
1.6768968e-50
1.6768636e-50
1.6768524e-50
1.6768492e-50
1.6768487e-50
1.6768496e-50
1.6768526e-50
1.6768609e-50
1.6771661e-50
1.676978e-50
1.6768935e-50
1.6768604e-50
1.6768492e-50
1.6768459e-50
1.6768455e-50
1.6768464e-50
1.6768494e-50
1.6768577e-50
1.6771655e-50
1.6769774e-50
1.676893e-50
1.6768599e-50
1.6768487e-50
1.6768455e-50
1.676845e-50
1.6768459e-50
1.6768489e-50
1.6768573e-50
1.6771659e-50
1.676978e-50
1.6768938e-50
1.6768608e-50
1.6768496e-50
1.6768464e-50
1.6768459e-50
1.6768468e-50
1.6768498e-50
1.6768582e-50
1.6771676e-50
1.6769804e-50
1.6768966e-50
1.6768637e-50
1.6768526e-50
1.6768494e-50
1.6768489e-50
1.6768498e-50
1.6768529e-50
1.6768612e-50
1.6771726e-50
1.6769877e-50
1.6769046e-50
1.676872e-50
1.6768609e-50
1.6768577e-50
1.6768573e-50
1.6768582e-50
1.6768612e-50
1.6768695e-50
7.8947984e-50
7.8939403e-50
7.8935544e-50
7.8934026e-50
7.8933511e-50
7.8933361e-50
7.8933331e-50
7.8933351e-50
7.8933428e-50
7.8933652e-50
7.8939403e-50
7.8930826e-50
7.8926968e-50
7.892545e-50
7.8924935e-50
7.8924787e-50
7.892476e-50
7.8924789e-50
7.8924899e-50
7.892523e-50
7.8935544e-50
7.8926968e-50
7.892311e-50
7.8921592e-50
7.8921078e-50
7.892093e-50
7.8920906e-50
7.8920942e-50
7.8921071e-50
7.8921435e-50
7.8934026e-50
7.892545e-50
7.8921592e-50
7.8920075e-50
7.8919561e-50
7.8919414e-50
7.8919391e-50
7.8919431e-50
7.8919567e-50
7.8919941e-50
7.8933511e-50
7.8924935e-50
7.8921078e-50
7.8919561e-50
7.8919047e-50
7.89189e-50
7.8918877e-50
7.8918919e-50
7.8919058e-50
7.8919435e-50
7.8933361e-50
7.8924787e-50
7.892093e-50
7.8919414e-50
7.89189e-50
7.8918753e-50
7.891873e-50
7.8918773e-50
7.8918912e-50
7.891929e-50
7.8933331e-50
7.892476e-50
7.8920906e-50
7.8919391e-50
7.8918877e-50
7.891873e-50
7.8918708e-50
7.891875e-50
7.891889e-50
7.8919268e-50
7.8933351e-50
7.8924789e-50
7.8920942e-50
7.8919431e-50
7.8918919e-50
7.8918773e-50
7.891875e-50
7.8918793e-50
7.8918933e-50
7.891931e-50
7.8933428e-50
7.8924899e-50
7.8921071e-50
7.8919567e-50
7.8919058e-50
7.8918912e-50
7.891889e-50
7.8918933e-50
7.8919072e-50
7.891945e-50
7.8933652e-50
7.892523e-50
7.8921435e-50
7.8919941e-50
7.8919435e-50
7.891929e-50
7.8919268e-50
7.891931e-50
7.891945e-50
7.8919828e-50
3.7942625e-49
3.7938634e-49
3.7936834e-49
3.7936126e-49
3.7935885e-49
3.7935815e-49
3.7935801e-49
3.793581e-49
3.7935846e-49
3.7935948e-49
3.7938634e-49
3.7934645e-49
3.7932845e-49
3.7932137e-49
3.7931896e-49
3.7931827e-49
3.7931814e-49
3.7931828e-49
3.793188e-49
3.7932033e-49
3.7936834e-49
3.7932845e-49
3.7931046e-49
3.7930338e-49
3.7930098e-49
3.7930029e-49
3.7930017e-49
3.7930035e-49
3.7930095e-49
3.7930263e-49
3.7936126e-49
3.7932137e-49
3.7930338e-49
3.792963e-49
3.792939e-49
3.7929321e-49
3.792931e-49
3.7929329e-49
3.7929393e-49
3.7929566e-49
3.7935885e-49
3.7931896e-49
3.7930098e-49
3.792939e-49
3.7929149e-49
3.7929081e-49
3.792907e-49
3.792909e-49
3.7929155e-49
3.792933e-49
3.7935815e-49
3.7931827e-49
3.7930029e-49
3.7929321e-49
3.7929081e-49
3.7929012e-49
3.7929002e-49
3.7929022e-49
3.7929087e-49
3.7929262e-49
3.7935801e-49
3.7931814e-49
3.7930017e-49
3.792931e-49
3.792907e-49
3.7929002e-49
3.7928991e-49
3.7929011e-49
3.7929077e-49
3.7929252e-49
3.793581e-49
3.7931828e-49
3.7930035e-49
3.7929329e-49
3.792909e-49
3.7929022e-49
3.7929011e-49
3.7929031e-49
3.7929097e-49
3.7929272e-49
3.7935846e-49
3.793188e-49
3.7930095e-49
3.7929393e-49
3.7929155e-49
3.7929087e-49
3.7929077e-49
3.7929097e-49
3.7929162e-49
3.7929337e-49
3.7935948e-49
3.7932033e-49
3.7930263e-49
3.7929566e-49
3.792933e-49
3.7929262e-49
3.7929252e-49
3.7929272e-49
3.7929337e-49
3.7929512e-49
1.8621204e-48
1.8619309e-48
1.8618452e-48
1.8618115e-48
1.8618e-48
1.8617967e-48
1.861796e-48
1.8617965e-48
1.8617982e-48
1.8618029e-48
1.8619309e-48
1.8617415e-48
1.8616559e-48
1.8616221e-48
1.8616107e-48
1.8616074e-48
1.8616068e-48
1.8616074e-48
1.8616099e-48
1.8616171e-48
1.8618452e-48
1.8616559e-48
1.8615703e-48
1.8615365e-48
1.8615251e-48
1.8615218e-48
1.8615212e-48
1.8615221e-48
1.861525e-48
1.8615329e-48
1.8618115e-48
1.8616221e-48
1.8615365e-48
1.8615028e-48
1.8614913e-48
1.861488e-48
1.8614875e-48
1.8614885e-48
1.8614915e-48
1.8614997e-48
1.8618e-48
1.8616107e-48
1.8615251e-48
1.8614913e-48
1.8614799e-48
1.8614766e-48
1.8614761e-48
1.8614771e-48
1.8614802e-48
1.8614884e-48
1.8617967e-48
1.8616074e-48
1.8615218e-48
1.861488e-48
1.8614766e-48
1.8614733e-48
1.8614728e-48
1.8614738e-48
1.8614769e-48
1.8614852e-48
1.861796e-48
1.8616068e-48
1.8615212e-48
1.8614875e-48
1.8614761e-48
1.8614728e-48
1.8614724e-48
1.8614733e-48
1.8614765e-48
1.8614847e-48
1.8617965e-48
1.8616074e-48
1.8615221e-48
1.8614885e-48
1.8614771e-48
1.8614738e-48
1.8614733e-48
1.8614743e-48
1.8614774e-48
1.8614857e-48
1.8617982e-48
1.8616099e-48
1.861525e-48
1.8614915e-48
1.8614802e-48
1.8614769e-48
1.8614765e-48
1.8614774e-48
1.8614806e-48
1.8614889e-48
1.8618029e-48
1.8616171e-48
1.8615329e-48
1.8614997e-48
1.8614884e-48
1.8614852e-48
1.8614847e-48
1.8614857e-48
1.8614889e-48
1.8614971e-48
9.3318158e-48
9.3308979e-48
9.3304819e-48
9.3303178e-48
9.330262e-48
9.3302458e-48
9.3302426e-48
9.3302448e-48
9.330253e-48
9.3302757e-48
9.3308979e-48
9.3299804e-48
9.3295645e-48
9.3294004e-48
9.3293447e-48
9.3293286e-48
9.3293257e-48
9.329329e-48
9.329341e-48
9.3293757e-48
9.3304819e-48
9.3295645e-48
9.3291487e-48
9.3289846e-48
9.3289289e-48
9.3289129e-48
9.3289103e-48
9.3289144e-48
9.3289285e-48
9.328967e-48
9.3303178e-48
9.3294004e-48
9.3289846e-48
9.3288206e-48
9.3287649e-48
9.328749e-48
9.3287465e-48
9.3287511e-48
9.328766e-48
9.3288056e-48
9.330262e-48
9.3293447e-48
9.3289289e-48
9.3287649e-48
9.3287092e-48
9.3286933e-48
9.3286909e-48
9.3286956e-48
9.3287109e-48
9.3287508e-48
9.3302458e-48
9.3293286e-48
9.3289129e-48
9.328749e-48
9.3286933e-48
9.3286774e-48
9.328675e-48
9.3286798e-48
9.3286951e-48
9.3287351e-48
9.3302426e-48
9.3293257e-48
9.3289103e-48
9.3287465e-48
9.3286909e-48
9.328675e-48
9.3286727e-48
9.3286774e-48
9.3286928e-48
9.3287328e-48
9.3302448e-48
9.329329e-48
9.3289144e-48
9.3287511e-48
9.3286956e-48
9.3286798e-48
9.3286774e-48
9.3286822e-48
9.3286976e-48
9.3287376e-48
9.330253e-48
9.329341e-48
9.3289285e-48
9.328766e-48
9.3287109e-48
9.3286951e-48
9.3286928e-48
9.3286976e-48
9.3287129e-48
9.3287529e-48
9.3302757e-48
9.3293757e-48
9.328967e-48
9.3288056e-48
9.3287508e-48
9.3287351e-48
9.3287328e-48
9.3287376e-48
9.3287529e-48
9.328793e-48
4.7750801e-47
4.7746263e-47
4.7744201e-47
4.7743387e-47
4.774311e-47
4.774303e-47
4.7743014e-47
4.7743025e-47
4.7743066e-47
4.7743176e-47
4.7746263e-47
4.7741726e-47
4.7739665e-47
4.7738851e-47
4.7738575e-47
4.7738495e-47
4.7738481e-47
4.7738497e-47
4.7738557e-47
4.7738728e-47
4.7744201e-47
4.7739665e-47
4.7737604e-47
4.7736791e-47
4.7736514e-47
4.7736435e-47
4.7736422e-47
4.7736443e-47
4.7736513e-47
4.7736703e-47
4.7743387e-47
4.7738851e-47
4.7736791e-47
4.7735977e-47
4.7735701e-47
4.7735621e-47
4.7735609e-47
4.7735632e-47
4.7735707e-47
4.7735902e-47
4.774311e-47
4.7738575e-47
4.7736514e-47
4.7735701e-47
4.7735424e-47
4.7735345e-47
4.7735334e-47
4.7735357e-47
4.7735433e-47
4.773563e-47
4.774303e-47
4.7738495e-47
4.7736435e-47
4.7735621e-47
4.7735345e-47
4.7735266e-47
4.7735255e-47
4.7735279e-47
4.7735355e-47
4.7735553e-47
4.7743014e-47
4.7738481e-47
4.7736422e-47
4.7735609e-47
4.7735334e-47
4.7735255e-47
4.7735243e-47
4.7735267e-47
4.7735344e-47
4.7735541e-47
4.7743025e-47
4.7738497e-47
4.7736443e-47
4.7735632e-47
4.7735357e-47
4.7735279e-47
4.7735267e-47
4.7735291e-47
4.7735368e-47
4.7735565e-47
4.7743066e-47
4.7738557e-47
4.7736513e-47
4.7735707e-47
4.7735433e-47
4.7735355e-47
4.7735344e-47
4.7735368e-47
4.7735445e-47
4.7735642e-47
4.7743176e-47
4.7738728e-47
4.7736703e-47
4.7735902e-47
4.773563e-47
4.7735553e-47
4.7735541e-47
4.7735565e-47
4.7735642e-47
4.773584e-47
2.4947277e-46
2.4944987e-46
2.4943945e-46
2.4943533e-46
2.4943393e-46
2.4943352e-46
2.4943344e-46
2.494335e-46
2.494337e-46
2.4943425e-46
2.4944987e-46
2.4942699e-46
2.4941657e-46
2.4941245e-46
2.4941105e-46
2.4941064e-46
2.4941057e-46
2.4941066e-46
2.4941096e-46
2.4941182e-46
2.4943945e-46
2.4941657e-46
2.4940615e-46
2.4940203e-46
2.4940063e-46
2.4940023e-46
2.4940016e-46
2.4940027e-46
2.4940063e-46
2.4940158e-46
2.4943533e-46
2.4941245e-46
2.4940203e-46
2.4939791e-46
2.4939651e-46
2.4939611e-46
2.4939605e-46
2.4939617e-46
2.4939655e-46
2.4939753e-46
2.4943393e-46
2.4941105e-46
2.4940063e-46
2.4939651e-46
2.4939511e-46
2.4939471e-46
2.4939465e-46
2.4939477e-46
2.4939516e-46
2.4939616e-46
2.4943352e-46
2.4941064e-46
2.4940023e-46
2.4939611e-46
2.4939471e-46
2.4939431e-46
2.4939425e-46
2.4939438e-46
2.4939477e-46
2.4939576e-46
2.4943344e-46
2.4941057e-46
2.4940016e-46
2.4939605e-46
2.4939465e-46
2.4939425e-46
2.4939419e-46
2.4939432e-46
2.4939471e-46
2.4939571e-46
2.494335e-46
2.4941066e-46
2.4940027e-46
2.4939617e-46
2.4939477e-46
2.4939438e-46
2.4939432e-46
2.4939444e-46
2.4939483e-46
2.4939583e-46
2.494337e-46
2.4941096e-46
2.4940063e-46
2.4939655e-46
2.4939516e-46
2.4939477e-46
2.4939471e-46
2.4939483e-46
2.4939522e-46
2.4939622e-46
2.4943425e-46
2.4941182e-46
2.4940158e-46
2.4939753e-46
2.4939616e-46
2.4939576e-46
2.4939571e-46
2.4939583e-46
2.4939622e-46
2.4939722e-46
1.3306355e-45
1.3305177e-45
1.3304639e-45
1.3304426e-45
1.3304354e-45
1.3304333e-45
1.3304329e-45
1.3304332e-45
1.3304342e-45
1.330437e-45
1.3305177e-45
1.3303999e-45
1.3303461e-45
1.3303249e-45
1.3303176e-45
1.3303155e-45
1.3303152e-45
1.3303156e-45
1.3303172e-45
1.3303216e-45
1.3304639e-45
1.3303461e-45
1.3302924e-45
1.3302711e-45
1.3302639e-45
1.3302618e-45
1.3302615e-45
1.330262e-45
1.3302639e-45
1.3302688e-45
1.3304426e-45
1.3303249e-45
1.3302711e-45
1.3302498e-45
1.3302426e-45
1.3302405e-45
1.3302402e-45
1.3302408e-45
1.3302428e-45
1.3302479e-45
1.3304354e-45
1.3303176e-45
1.3302639e-45
1.3302426e-45
1.3302354e-45
1.3302333e-45
1.330233e-45
1.3302336e-45
1.3302357e-45
1.3302408e-45
1.3304333e-45
1.3303155e-45
1.3302618e-45
1.3302405e-45
1.3302333e-45
1.3302312e-45
1.3302309e-45
1.3302316e-45
1.3302336e-45
1.3302388e-45
1.3304329e-45
1.3303152e-45
1.3302615e-45
1.3302402e-45
1.330233e-45
1.3302309e-45
1.3302307e-45
1.3302313e-45
1.3302333e-45
1.3302385e-45
1.3304332e-45
1.3303156e-45
1.330262e-45
1.3302408e-45
1.3302336e-45
1.3302316e-45
1.3302313e-45
1.3302319e-45
1.330234e-45
1.3302391e-45
1.3304342e-45
1.3303172e-45
1.3302639e-45
1.3302428e-45
1.3302357e-45
1.3302336e-45
1.3302333e-45
1.330234e-45
1.330236e-45
1.3302411e-45
1.330437e-45
1.3303216e-45
1.3302688e-45
1.3302479e-45
1.3302408e-45
1.3302388e-45
1.3302385e-45
1.3302391e-45
1.3302411e-45
1.3302463e-45
7.2451502e-45
7.2445314e-45
7.2442484e-45
7.2441363e-45
7.2440981e-45
7.244087e-45
7.2440849e-45
7.2440864e-45
7.2440921e-45
7.2441064e-45
7.2445314e-45
7.2439128e-45
7.2436299e-45
7.2435178e-45
7.2434797e-45
7.2434687e-45
7.2434668e-45
7.2434691e-45
7.2434775e-45
7.2435007e-45
7.2442484e-45
7.2436299e-45
7.243347e-45
7.243235e-45
7.2431968e-45
7.2431859e-45
7.2431842e-45
7.2431872e-45
7.2431971e-45
7.243223e-45
7.2441363e-45
7.2435178e-45
7.243235e-45
7.2431229e-45
7.2430848e-45
7.2430739e-45
7.2430723e-45
7.2430756e-45
7.2430861e-45
7.2431128e-45
7.2440981e-45
7.2434797e-45
7.2431968e-45
7.2430848e-45
7.2430467e-45
7.2430359e-45
7.2430343e-45
7.2430377e-45
7.2430484e-45
7.2430754e-45
7.244087e-45
7.2434687e-45
7.2431859e-45
7.2430739e-45
7.2430359e-45
7.243025e-45
7.2430234e-45
7.2430269e-45
7.2430377e-45
7.2430646e-45
7.2440849e-45
7.2434668e-45
7.2431842e-45
7.2430723e-45
7.2430343e-45
7.2430234e-45
7.2430219e-45
7.2430253e-45
7.2430361e-45
7.2430631e-45
7.2440864e-45
7.2434691e-45
7.2431872e-45
7.2430756e-45
7.2430377e-45
7.2430269e-45
7.2430253e-45
7.2430288e-45
7.2430396e-45
7.2430666e-45
7.2440921e-45
7.2434775e-45
7.2431971e-45
7.2430861e-45
7.2430484e-45
7.2430377e-45
7.2430361e-45
7.2430396e-45
7.2430504e-45
7.2430774e-45
7.2441064e-45
7.2435007e-45
7.243223e-45
7.2431128e-45
7.2430754e-45
7.2430646e-45
7.2430631e-45
7.2430666e-45
7.2430774e-45
7.2431044e-45
4.0266129e-44
4.0262814e-44
4.0261295e-44
4.0260693e-44
4.0260488e-44
4.0260428e-44
4.0260417e-44
4.0260425e-44
4.0260456e-44
4.0260531e-44
4.0262814e-44
4.0259501e-44
4.0257982e-44
4.025738e-44
4.0257175e-44
4.0257116e-44
4.0257106e-44
4.0257119e-44
4.0257164e-44
4.0257288e-44
4.0261295e-44
4.0257982e-44
4.0256464e-44
4.0255862e-44
4.0255657e-44
4.0255598e-44
4.0255589e-44
4.0255605e-44
4.0255659e-44
4.0255798e-44
4.0260693e-44
4.025738e-44
4.0255862e-44
4.025526e-44
4.0255055e-44
4.0254997e-44
4.0254988e-44
4.0255006e-44
4.0255063e-44
4.0255206e-44
4.0260488e-44
4.0257175e-44
4.0255657e-44
4.0255055e-44
4.0254851e-44
4.0254792e-44
4.0254784e-44
4.0254802e-44
4.0254861e-44
4.0255005e-44
4.0260428e-44
4.0257116e-44
4.0255598e-44
4.0254997e-44
4.0254792e-44
4.0254734e-44
4.0254725e-44
4.0254744e-44
4.0254803e-44
4.0254948e-44
4.0260417e-44
4.0257106e-44
4.0255589e-44
4.0254988e-44
4.0254784e-44
4.0254725e-44
4.0254717e-44
4.0254736e-44
4.0254795e-44
4.025494e-44
4.0260425e-44
4.0257119e-44
4.0255605e-44
4.0255006e-44
4.0254802e-44
4.0254744e-44
4.0254736e-44
4.0254755e-44
4.0254814e-44
4.0254959e-44
4.0260456e-44
4.0257164e-44
4.0255659e-44
4.0255063e-44
4.0254861e-44
4.0254803e-44
4.0254795e-44
4.0254814e-44
4.0254872e-44
4.0255017e-44
4.0260531e-44
4.0257288e-44
4.0255798e-44
4.0255206e-44
4.0255005e-44
4.0254948e-44
4.025494e-44
4.0254959e-44
4.0255017e-44
4.0255162e-44
2.2839219e-43
2.2837408e-43
2.2836577e-43
2.2836247e-43
2.2836134e-43
2.2836102e-43
2.2836095e-43
2.28361e-43
2.2836117e-43
2.2836158e-43
2.2837408e-43
2.2835599e-43
2.2834767e-43
2.2834437e-43
2.2834325e-43
2.2834292e-43
2.2834287e-43
2.2834294e-43
2.2834319e-43
2.2834387e-43
2.2836577e-43
2.2834767e-43
2.2833936e-43
2.2833606e-43
2.2833494e-43
2.2833462e-43
2.2833457e-43
2.2833466e-43
2.2833495e-43
2.2833571e-43
2.2836247e-43
2.2834437e-43
2.2833606e-43
2.2833276e-43
2.2833164e-43
2.2833132e-43
2.2833127e-43
2.2833137e-43
2.2833169e-43
2.2833247e-43
2.2836134e-43
2.2834325e-43
2.2833494e-43
2.2833164e-43
2.2833052e-43
2.283302e-43
2.2833015e-43
2.2833026e-43
2.2833058e-43
2.2833137e-43
2.2836102e-43
2.2834292e-43
2.2833462e-43
2.2833132e-43
2.283302e-43
2.2832988e-43
2.2832983e-43
2.2832994e-43
2.2833026e-43
2.2833106e-43
2.2836095e-43
2.2834287e-43
2.2833457e-43
2.2833127e-43
2.2833015e-43
2.2832983e-43
2.2832979e-43
2.2832989e-43
2.2833022e-43
2.2833101e-43
2.28361e-43
2.2834294e-43
2.2833466e-43
2.2833137e-43
2.2833026e-43
2.2832994e-43
2.2832989e-43
2.2833e-43
2.2833032e-43
2.2833112e-43
2.2836117e-43
2.2834319e-43
2.2833495e-43
2.2833169e-43
2.2833058e-43
2.2833026e-43
2.2833022e-43
2.2833032e-43
2.2833065e-43
2.2833144e-43
2.2836158e-43
2.2834387e-43
2.2833571e-43
2.2833247e-43
2.2833137e-43
2.2833106e-43
2.2833101e-43
2.2833112e-43
2.2833144e-43
2.2833224e-43
1.3219306e-42
1.3218297e-42
1.3217833e-42
1.3217649e-42
1.3217586e-42
1.3217568e-42
1.3217564e-42
1.3217567e-42
1.3217576e-42
1.3217599e-42
1.3218297e-42
1.3217289e-42
1.3216825e-42
1.3216641e-42
1.3216578e-42
1.321656e-42
1.3216557e-42
1.3216561e-42
1.3216575e-42
1.3216613e-42
1.3217833e-42
1.3216825e-42
1.3216361e-42
1.3216177e-42
1.3216114e-42
1.3216096e-42
1.3216093e-42
1.3216098e-42
1.3216115e-42
1.3216158e-42
1.3217649e-42
1.3216641e-42
1.3216177e-42
1.3215993e-42
1.321593e-42
1.3215912e-42
1.3215909e-42
1.3215915e-42
1.3215933e-42
1.3215977e-42
1.3217586e-42
1.3216578e-42
1.3216114e-42
1.321593e-42
1.3215867e-42
1.3215849e-42
1.3215847e-42
1.3215853e-42
1.3215871e-42
1.3215915e-42
1.3217568e-42
1.321656e-42
1.3216096e-42
1.3215912e-42
1.3215849e-42
1.3215831e-42
1.3215829e-42
1.3215835e-42
1.3215853e-42
1.3215898e-42
1.3217564e-42
1.3216557e-42
1.3216093e-42
1.3215909e-42
1.3215847e-42
1.3215829e-42
1.3215826e-42
1.3215832e-42
1.3215851e-42
1.3215895e-42
1.3217567e-42
1.3216561e-42
1.3216098e-42
1.3215915e-42
1.3215853e-42
1.3215835e-42
1.3215832e-42
1.3215838e-42
1.3215857e-42
1.3215901e-42
1.3217576e-42
1.3216575e-42
1.3216115e-42
1.3215933e-42
1.3215871e-42
1.3215853e-42
1.3215851e-42
1.3215857e-42
1.3215875e-42
1.3215919e-42
1.3217599e-42
1.3216613e-42
1.3216158e-42
1.3215977e-42
1.3215915e-42
1.3215898e-42
1.3215895e-42