/*--------------------------------*- C++ -*----------------------------------*\
| =========                 |                                                 |
| \\      /  F ield         | OpenFOAM: The Open Source CFD Toolbox           |
|  \\    /   O peration     | Version:  dev                                   |
|   \\  /    A nd           | Web:      www.OpenFOAM.org                      |
|    \\/     M anipulation  |                                                 |
\*---------------------------------------------------------------------------*/
FoamFile
{
    version     2.0;
    format      ascii;
    class       volScalarField;
    location    "18";
    object      A_0;
}
// * * * * * * * * * * * * * * * * * * * * * * * * * * * * * * * * * * * * * //

dimensions      [0 0 0 0 1 0 0];

internalField   nonuniform List<scalar> 
10000
(
2.7769212e-56
2.776513e-56
2.7763361e-56
2.7762674e-56
2.7762442e-56
2.7762375e-56
2.7762362e-56
2.776237e-56
2.7762407e-56
2.776253e-56
2.776513e-56
2.7761049e-56
2.7759281e-56
2.7758595e-56
2.7758363e-56
2.7758296e-56
2.7758283e-56
2.7758296e-56
2.7758346e-56
2.7758512e-56
2.7763361e-56
2.7759281e-56
2.7757514e-56
2.7756827e-56
2.7756596e-56
2.7756529e-56
2.7756518e-56
2.7756533e-56
2.7756591e-56
2.7756769e-56
2.7762674e-56
2.7758595e-56
2.7756827e-56
2.7756141e-56
2.7755909e-56
2.7755843e-56
2.7755832e-56
2.7755849e-56
2.775591e-56
2.7756092e-56
2.7762442e-56
2.7758363e-56
2.7756596e-56
2.7755909e-56
2.7755678e-56
2.7755611e-56
2.7755601e-56
2.7755618e-56
2.775568e-56
2.7755863e-56
2.7762375e-56
2.7758296e-56
2.7756529e-56
2.7755843e-56
2.7755611e-56
2.7755545e-56
2.7755534e-56
2.7755552e-56
2.7755614e-56
2.7755798e-56
2.7762362e-56
2.7758283e-56
2.7756518e-56
2.7755832e-56
2.7755601e-56
2.7755534e-56
2.7755524e-56
2.7755541e-56
2.7755604e-56
2.7755787e-56
2.776237e-56
2.7758296e-56
2.7756533e-56
2.7755849e-56
2.7755618e-56
2.7755552e-56
2.7755541e-56
2.7755559e-56
2.7755621e-56
2.7755805e-56
2.7762407e-56
2.7758346e-56
2.7756591e-56
2.775591e-56
2.775568e-56
2.7755614e-56
2.7755604e-56
2.7755621e-56
2.7755683e-56
2.7755867e-56
2.776253e-56
2.7758512e-56
2.7756769e-56
2.7756092e-56
2.7755863e-56
2.7755798e-56
2.7755787e-56
2.7755805e-56
2.7755867e-56
2.7756051e-56
1.4329849e-55
1.4327802e-55
1.4326906e-55
1.4326557e-55
1.4326439e-55
1.4326405e-55
1.4326398e-55
1.4326402e-55
1.4326421e-55
1.4326486e-55
1.4327802e-55
1.4325756e-55
1.432486e-55
1.4324511e-55
1.4324393e-55
1.4324359e-55
1.4324353e-55
1.4324359e-55
1.4324385e-55
1.4324471e-55
1.4326906e-55
1.432486e-55
1.4323964e-55
1.4323615e-55
1.4323498e-55
1.4323464e-55
1.4323458e-55
1.4323466e-55
1.4323495e-55
1.4323588e-55
1.4326557e-55
1.4324511e-55
1.4323615e-55
1.4323267e-55
1.4323149e-55
1.4323115e-55
1.432311e-55
1.4323118e-55
1.4323149e-55
1.4323244e-55
1.4326439e-55
1.4324393e-55
1.4323498e-55
1.4323149e-55
1.4323032e-55
1.4322998e-55
1.4322992e-55
1.4323001e-55
1.4323033e-55
1.4323128e-55
1.4326405e-55
1.4324359e-55
1.4323464e-55
1.4323115e-55
1.4322998e-55
1.4322964e-55
1.4322959e-55
1.4322968e-55
1.4322999e-55
1.4323095e-55
1.4326398e-55
1.4324353e-55
1.4323458e-55
1.432311e-55
1.4322992e-55
1.4322959e-55
1.4322953e-55
1.4322962e-55
1.4322994e-55
1.432309e-55
1.4326402e-55
1.4324359e-55
1.4323466e-55
1.4323118e-55
1.4323001e-55
1.4322968e-55
1.4322962e-55
1.4322971e-55
1.4323003e-55
1.4323099e-55
1.4326421e-55
1.4324385e-55
1.4323495e-55
1.4323149e-55
1.4323033e-55
1.4322999e-55
1.4322994e-55
1.4323003e-55
1.4323035e-55
1.432313e-55
1.4326486e-55
1.4324471e-55
1.4323588e-55
1.4323244e-55
1.4323128e-55
1.4323095e-55
1.432309e-55
1.4323099e-55
1.432313e-55
1.4323226e-55
5.797006e-55
5.7962009e-55
5.795847e-55
5.7957092e-55
5.7956626e-55
5.7956492e-55
5.7956464e-55
5.7956481e-55
5.7956555e-55
5.7956808e-55
5.7962009e-55
5.7953962e-55
5.7950424e-55
5.7949047e-55
5.7948581e-55
5.7948447e-55
5.7948422e-55
5.7948447e-55
5.7948547e-55
5.7948888e-55
5.795847e-55
5.7950424e-55
5.7946888e-55
5.794551e-55
5.7945045e-55
5.7944911e-55
5.7944888e-55
5.7944919e-55
5.7945035e-55
5.7945402e-55
5.7957092e-55
5.7949047e-55
5.794551e-55
5.7944133e-55
5.7943668e-55
5.7943534e-55
5.7943512e-55
5.7943546e-55
5.7943668e-55
5.7944043e-55
5.7956626e-55
5.7948581e-55
5.7945045e-55
5.7943668e-55
5.7943203e-55
5.7943069e-55
5.7943048e-55
5.7943083e-55
5.7943207e-55
5.7943584e-55
5.7956492e-55
5.7948447e-55
5.7944911e-55
5.7943534e-55
5.7943069e-55
5.7942936e-55
5.7942915e-55
5.7942951e-55
5.7943075e-55
5.7943453e-55
5.7956464e-55
5.7948422e-55
5.7944888e-55
5.7943512e-55
5.7943048e-55
5.7942915e-55
5.7942894e-55
5.7942929e-55
5.7943054e-55
5.7943432e-55
5.7956481e-55
5.7948447e-55
5.7944919e-55
5.7943546e-55
5.7943083e-55
5.7942951e-55
5.7942929e-55
5.7942965e-55
5.794309e-55
5.7943468e-55
5.7956555e-55
5.7948547e-55
5.7945035e-55
5.7943668e-55
5.7943207e-55
5.7943075e-55
5.7943054e-55
5.794309e-55
5.7943215e-55
5.7943593e-55
5.7956808e-55
5.7948888e-55
5.7945402e-55
5.7944043e-55
5.7943584e-55
5.7943453e-55
5.7943432e-55
5.7943468e-55
5.7943593e-55
5.7943971e-55
2.3593879e-54
2.3590696e-54
2.3589292e-54
2.3588745e-54
2.358856e-54
2.3588506e-54
2.3588495e-54
2.3588502e-54
2.3588531e-54
2.3588629e-54
2.3590696e-54
2.3587514e-54
2.3586111e-54
2.3585564e-54
2.3585379e-54
2.3585326e-54
2.3585316e-54
2.3585326e-54
2.3585365e-54
2.3585498e-54
2.3589292e-54
2.3586111e-54
2.3584708e-54
2.3584161e-54
2.3583976e-54
2.3583923e-54
2.3583914e-54
2.3583927e-54
2.3583973e-54
2.3584116e-54
2.3588745e-54
2.3585564e-54
2.3584161e-54
2.3583614e-54
2.3583429e-54
2.3583376e-54
2.3583368e-54
2.3583381e-54
2.358343e-54
2.3583577e-54
2.358856e-54
2.3585379e-54
2.3583976e-54
2.3583429e-54
2.3583245e-54
2.3583192e-54
2.3583183e-54
2.3583197e-54
2.3583247e-54
2.3583394e-54
2.3588506e-54
2.3585326e-54
2.3583923e-54
2.3583376e-54
2.3583192e-54
2.3583139e-54
2.358313e-54
2.3583145e-54
2.3583194e-54
2.3583342e-54
2.3588495e-54
2.3585316e-54
2.3583914e-54
2.3583368e-54
2.3583183e-54
2.358313e-54
2.3583122e-54
2.3583136e-54
2.3583186e-54
2.3583334e-54
2.3588502e-54
2.3585326e-54
2.3583927e-54
2.3583381e-54
2.3583197e-54
2.3583145e-54
2.3583136e-54
2.3583151e-54
2.35832e-54
2.3583348e-54
2.3588531e-54
2.3585365e-54
2.3583973e-54
2.358343e-54
2.3583247e-54
2.3583194e-54
2.3583186e-54
2.35832e-54
2.358325e-54
2.3583398e-54
2.3588629e-54
2.3585498e-54
2.3584116e-54
2.3583577e-54
2.3583394e-54
2.3583342e-54
2.3583334e-54
2.3583348e-54
2.3583398e-54
2.3583546e-54
9.7958524e-54
9.7945692e-54
9.7940017e-54
9.7937801e-54
9.7937051e-54
9.7936834e-54
9.793679e-54
9.7936817e-54
9.7936934e-54
9.7937318e-54
9.7945692e-54
9.7932866e-54
9.7927193e-54
9.7924978e-54
9.7924228e-54
9.7924012e-54
9.7923972e-54
9.7924013e-54
9.7924174e-54
9.7924702e-54
9.7940017e-54
9.7927193e-54
9.7921521e-54
9.7919306e-54
9.7918557e-54
9.7918342e-54
9.7918305e-54
9.7918356e-54
9.7918542e-54
9.7919114e-54
9.7937801e-54
9.7924978e-54
9.7919306e-54
9.7917091e-54
9.7916343e-54
9.7916128e-54
9.7916093e-54
9.7916149e-54
9.7916345e-54
9.791693e-54
9.7937051e-54
9.7924228e-54
9.7918557e-54
9.7916343e-54
9.7915594e-54
9.791538e-54
9.7915346e-54
9.7915403e-54
9.7915603e-54
9.7916192e-54
9.7936834e-54
9.7924012e-54
9.7918342e-54
9.7916128e-54
9.791538e-54
9.7915166e-54
9.7915132e-54
9.791519e-54
9.7915391e-54
9.7915981e-54
9.793679e-54
9.7923972e-54
9.7918305e-54
9.7916093e-54
9.7915346e-54
9.7915132e-54
9.7915098e-54
9.7915156e-54
9.7915357e-54
9.7915947e-54
9.7936817e-54
9.7924013e-54
9.7918356e-54
9.7916149e-54
9.7915403e-54
9.791519e-54
9.7915156e-54
9.7915215e-54
9.7915415e-54
9.7916006e-54
9.7936934e-54
9.7924174e-54
9.7918542e-54
9.7916345e-54
9.7915603e-54
9.7915391e-54
9.7915357e-54
9.7915415e-54
9.7915616e-54
9.7916207e-54
9.7937318e-54
9.7924702e-54
9.7919114e-54
9.791693e-54
9.7916192e-54
9.7915981e-54
9.7915947e-54
9.7916006e-54
9.7916207e-54
9.7916797e-54
4.152608e-53
4.15208e-53
4.1518458e-53
4.1517543e-53
4.1517233e-53
4.1517143e-53
4.1517125e-53
4.1517136e-53
4.1517184e-53
4.1517338e-53
4.15208e-53
4.1515523e-53
4.1513182e-53
4.1512267e-53
4.1511957e-53
4.1511868e-53
4.1511851e-53
4.1511868e-53
4.1511934e-53
4.1512149e-53
4.1518458e-53
4.1513182e-53
4.1510841e-53
4.1509926e-53
4.1509617e-53
4.1509528e-53
4.1509513e-53
4.1509534e-53
4.1509611e-53
4.1509844e-53
4.1517543e-53
4.1512267e-53
4.1509926e-53
4.1509011e-53
4.1508702e-53
4.1508613e-53
4.1508599e-53
4.1508622e-53
4.1508703e-53
4.1508942e-53
4.1517233e-53
4.1511957e-53
4.1509617e-53
4.1508702e-53
4.1508393e-53
4.1508304e-53
4.150829e-53
4.1508314e-53
4.1508396e-53
4.1508636e-53
4.1517143e-53
4.1511868e-53
4.1509528e-53
4.1508613e-53
4.1508304e-53
4.1508215e-53
4.1508201e-53
4.1508226e-53
4.1508309e-53
4.1508549e-53
4.1517125e-53
4.1511851e-53
4.1509513e-53
4.1508599e-53
4.150829e-53
4.1508201e-53
4.1508188e-53
4.1508212e-53
4.1508295e-53
4.1508535e-53
4.1517136e-53
4.1511868e-53
4.1509534e-53
4.1508622e-53
4.1508314e-53
4.1508226e-53
4.1508212e-53
4.1508236e-53
4.1508319e-53
4.150856e-53
4.1517184e-53
4.1511934e-53
4.1509611e-53
4.1508703e-53
4.1508396e-53
4.1508309e-53
4.1508295e-53
4.1508319e-53
4.1508402e-53
4.1508643e-53
4.1517338e-53
4.1512149e-53
4.1509844e-53
4.1508942e-53
4.1508636e-53
4.1508549e-53
4.1508535e-53
4.150856e-53
4.1508643e-53
4.1508884e-53
1.7975311e-52
1.7973094e-52
1.7972107e-52
1.7971721e-52
1.7971591e-52
1.7971553e-52
1.7971545e-52
1.797155e-52
1.797157e-52
1.7971633e-52
1.7973094e-52
1.7970878e-52
1.7969892e-52
1.7969506e-52
1.7969375e-52
1.7969337e-52
1.796933e-52
1.7969338e-52
1.7969366e-52
1.7969454e-52
1.7972107e-52
1.7969892e-52
1.7968906e-52
1.796852e-52
1.7968389e-52
1.7968352e-52
1.7968346e-52
1.7968355e-52
1.7968387e-52
1.7968484e-52
1.7971721e-52
1.7969506e-52
1.796852e-52
1.7968134e-52
1.7968004e-52
1.7967966e-52
1.796796e-52
1.796797e-52
1.7968004e-52
1.7968104e-52
1.7971591e-52
1.7969375e-52
1.7968389e-52
1.7968004e-52
1.7967873e-52
1.7967836e-52
1.796783e-52
1.796784e-52
1.7967875e-52
1.7967975e-52
1.7971553e-52
1.7969337e-52
1.7968352e-52
1.7967966e-52
1.7967836e-52
1.7967798e-52
1.7967793e-52
1.7967803e-52
1.7967838e-52
1.7967938e-52
1.7971545e-52
1.796933e-52
1.7968346e-52
1.796796e-52
1.796783e-52
1.7967793e-52
1.7967787e-52
1.7967797e-52
1.7967832e-52
1.7967932e-52
1.797155e-52
1.7969338e-52
1.7968355e-52
1.796797e-52
1.796784e-52
1.7967803e-52
1.7967797e-52
1.7967807e-52
1.7967843e-52
1.7967943e-52
1.797157e-52
1.7969366e-52
1.7968387e-52
1.7968004e-52
1.7967875e-52
1.7967838e-52
1.7967832e-52
1.7967843e-52
1.7967878e-52
1.7967978e-52
1.7971633e-52
1.7969454e-52
1.7968484e-52
1.7968104e-52
1.7967975e-52
1.7967938e-52
1.7967932e-52
1.7967943e-52
1.7967978e-52
1.7968078e-52
7.9455704e-52
7.9446201e-52
7.9441962e-52
7.9440301e-52
7.9439738e-52
7.9439575e-52
7.9439542e-52
7.9439562e-52
7.9439648e-52
7.9439913e-52
7.9446201e-52
7.9436703e-52
7.9432465e-52
7.9430804e-52
7.9430241e-52
7.9430079e-52
7.9430049e-52
7.943008e-52
7.94302e-52
7.9430577e-52
7.9441962e-52
7.9432465e-52
7.9428227e-52
7.9426567e-52
7.9426005e-52
7.9425843e-52
7.9425816e-52
7.9425855e-52
7.9425995e-52
7.9426406e-52
7.9440301e-52
7.9430804e-52
7.9426567e-52
7.9424906e-52
7.9424344e-52
7.9424183e-52
7.9424157e-52
7.94242e-52
7.9424348e-52
7.942477e-52
7.9439738e-52
7.9430241e-52
7.9426005e-52
7.9424344e-52
7.9423782e-52
7.9423622e-52
7.9423596e-52
7.9423641e-52
7.9423791e-52
7.9424216e-52
7.9439575e-52
7.9430079e-52
7.9425843e-52
7.9424183e-52
7.9423622e-52
7.9423461e-52
7.9423436e-52
7.9423481e-52
7.9423632e-52
7.9424057e-52
7.9439542e-52
7.9430049e-52
7.9425816e-52
7.9424157e-52
7.9423596e-52
7.9423436e-52
7.9423411e-52
7.9423456e-52
7.9423607e-52
7.9424033e-52
7.9439562e-52
7.943008e-52
7.9425855e-52
7.94242e-52
7.9423641e-52
7.9423481e-52
7.9423456e-52
7.9423501e-52
7.9423652e-52
7.9424078e-52
7.9439648e-52
7.94302e-52
7.9425995e-52
7.9424348e-52
7.9423791e-52
7.9423632e-52
7.9423607e-52
7.9423652e-52
7.9423803e-52
7.9424229e-52
7.9439913e-52
7.9430577e-52
7.9426406e-52
7.942477e-52
7.9424216e-52
7.9424057e-52
7.9424033e-52
7.9424078e-52
7.9424229e-52
7.9424655e-52
3.5865554e-51
3.5861397e-51
3.5859537e-51
3.5858807e-51
3.585856e-51
3.5858488e-51
3.5858474e-51
3.5858483e-51
3.585852e-51
3.5858633e-51
3.5861397e-51
3.5857241e-51
3.5855382e-51
3.5854652e-51
3.5854405e-51
3.5854334e-51
3.5854321e-51
3.5854334e-51
3.5854387e-51
3.585455e-51
3.5859537e-51
3.5855382e-51
3.5853523e-51
3.5852793e-51
3.5852546e-51
3.5852475e-51
3.5852463e-51
3.5852481e-51
3.5852542e-51
3.5852721e-51
3.5858807e-51
3.5854652e-51
3.5852793e-51
3.5852064e-51
3.5851817e-51
3.5851746e-51
3.5851735e-51
3.5851754e-51
3.5851819e-51
3.5852002e-51
3.585856e-51
3.5854405e-51
3.5852546e-51
3.5851817e-51
3.585157e-51
3.5851499e-51
3.5851488e-51
3.5851508e-51
3.5851574e-51
3.5851759e-51
3.5858488e-51
3.5854334e-51
3.5852475e-51
3.5851746e-51
3.5851499e-51
3.5851429e-51
3.5851418e-51
3.5851438e-51
3.5851504e-51
3.5851689e-51
3.5858474e-51
3.5854321e-51
3.5852463e-51
3.5851735e-51
3.5851488e-51
3.5851418e-51
3.5851407e-51
3.5851427e-51
3.5851493e-51
3.5851678e-51
3.5858483e-51
3.5854334e-51
3.5852481e-51
3.5851754e-51
3.5851508e-51
3.5851438e-51
3.5851427e-51
3.5851447e-51
3.5851514e-51
3.5851699e-51
3.585852e-51
3.5854387e-51
3.5852542e-51
3.5851819e-51
3.5851574e-51
3.5851504e-51
3.5851493e-51
3.5851514e-51
3.585158e-51
3.5851765e-51
3.5858633e-51
3.585455e-51
3.5852721e-51
3.5852002e-51
3.5851759e-51
3.5851689e-51
3.5851678e-51
3.5851699e-51
3.5851765e-51
3.585195e-51
1.6532533e-50
1.6530677e-50
1.6529844e-50
1.6529517e-50
1.6529406e-50
1.6529374e-50
1.6529367e-50
1.6529371e-50
1.6529388e-50
1.6529438e-50
1.6530677e-50
1.6528821e-50
1.6527988e-50
1.6527661e-50
1.6527551e-50
1.6527519e-50
1.6527513e-50
1.6527519e-50
1.6527543e-50
1.6527615e-50
1.6529844e-50
1.6527988e-50
1.6527156e-50
1.6526829e-50
1.6526718e-50
1.6526686e-50
1.6526681e-50
1.6526689e-50
1.6526717e-50
1.6526796e-50
1.6529517e-50
1.6527661e-50
1.6526829e-50
1.6526502e-50
1.6526391e-50
1.652636e-50
1.6526355e-50
1.6526363e-50
1.6526392e-50
1.6526474e-50
1.6529406e-50
1.6527551e-50
1.6526718e-50
1.6526391e-50
1.6526281e-50
1.6526249e-50
1.6526244e-50
1.6526253e-50
1.6526283e-50
1.6526365e-50
1.6529374e-50
1.6527519e-50
1.6526686e-50
1.652636e-50
1.6526249e-50
1.6526217e-50
1.6526212e-50
1.6526221e-50
1.6526251e-50
1.6526333e-50
1.6529367e-50
1.6527513e-50
1.6526681e-50
1.6526355e-50
1.6526244e-50
1.6526212e-50
1.6526207e-50
1.6526217e-50
1.6526246e-50
1.6526329e-50
1.6529371e-50
1.6527519e-50
1.6526689e-50
1.6526363e-50
1.6526253e-50
1.6526221e-50
1.6526217e-50
1.6526226e-50
1.6526256e-50
1.6526338e-50
1.6529388e-50
1.6527543e-50
1.6526717e-50
1.6526392e-50
1.6526283e-50
1.6526251e-50
1.6526246e-50
1.6526256e-50
1.6526286e-50
1.6526368e-50
1.6529438e-50
1.6527615e-50
1.6526796e-50
1.6526474e-50
1.6526365e-50
1.6526333e-50
1.6526329e-50
1.6526338e-50
1.6526368e-50
1.652645e-50
7.7823573e-50
7.781511e-50
7.7811304e-50
7.7809807e-50
7.78093e-50
7.7809152e-50
7.7809123e-50
7.7809142e-50
7.7809218e-50
7.7809439e-50
7.781511e-50
7.7806651e-50
7.7802846e-50
7.780135e-50
7.7800843e-50
7.7800696e-50
7.780067e-50
7.7800698e-50
7.7800807e-50
7.7801133e-50
7.7811304e-50
7.7802846e-50
7.7799042e-50
7.7797546e-50
7.7797039e-50
7.7796893e-50
7.7796869e-50
7.7796905e-50
7.7797032e-50
7.7797391e-50
7.7809807e-50
7.780135e-50
7.7797546e-50
7.779605e-50
7.7795543e-50
7.7795398e-50
7.7795375e-50
7.7795415e-50
7.779555e-50
7.7795918e-50
7.78093e-50
7.7800843e-50
7.7797039e-50
7.7795543e-50
7.7795037e-50
7.7794891e-50
7.7794869e-50
7.779491e-50
7.7795047e-50
7.7795419e-50
7.7809152e-50
7.7800696e-50
7.7796893e-50
7.7795398e-50
7.7794891e-50
7.7794746e-50
7.7794724e-50
7.7794766e-50
7.7794904e-50
7.7795276e-50
7.7809123e-50
7.780067e-50
7.7796869e-50
7.7795375e-50
7.7794869e-50
7.7794724e-50
7.7794702e-50
7.7794744e-50
7.7794882e-50
7.7795254e-50
7.7809142e-50
7.7800698e-50
7.7796905e-50
7.7795415e-50
7.779491e-50
7.7794766e-50
7.7794744e-50
7.7794786e-50
7.7794924e-50
7.7795296e-50
7.7809218e-50
7.7800807e-50
7.7797032e-50
7.779555e-50
7.7795047e-50
7.7794904e-50
7.7794882e-50
7.7794924e-50
7.7795062e-50
7.7795434e-50
7.7809439e-50
7.7801133e-50
7.7797391e-50
7.7795918e-50
7.7795419e-50
7.7795276e-50
7.7795254e-50
7.7795296e-50
7.7795434e-50
7.7795807e-50
3.7410026e-49
3.7406089e-49
3.7404313e-49
3.7403615e-49
3.7403377e-49
3.7403309e-49
3.7403295e-49
3.7403304e-49
3.7403339e-49
3.740344e-49
3.7406089e-49
3.7402153e-49
3.7400379e-49
3.739968e-49
3.7399443e-49
3.7399375e-49
3.7399362e-49
3.7399376e-49
3.7399427e-49
3.7399577e-49
3.7404313e-49
3.7400379e-49
3.7398604e-49
3.7397906e-49
3.7397669e-49
3.7397601e-49
3.739759e-49
3.7397607e-49
3.7397666e-49
3.7397832e-49
3.7403615e-49
3.739968e-49
3.7397906e-49
3.7397207e-49
3.7396971e-49
3.7396903e-49
3.7396892e-49
3.7396911e-49
3.7396974e-49
3.7397145e-49
3.7403377e-49
3.7399443e-49
3.7397669e-49
3.7396971e-49
3.7396734e-49
3.7396666e-49
3.7396656e-49
3.7396675e-49
3.7396739e-49
3.7396912e-49
3.7403309e-49
3.7399375e-49
3.7397601e-49
3.7396903e-49
3.7396666e-49
3.7396598e-49
3.7396588e-49
3.7396608e-49
3.7396672e-49
3.7396845e-49
3.7403295e-49
3.7399362e-49
3.739759e-49
3.7396892e-49
3.7396656e-49
3.7396588e-49
3.7396578e-49
3.7396598e-49
3.7396662e-49
3.7396835e-49
3.7403304e-49
3.7399376e-49
3.7397607e-49
3.7396911e-49
3.7396675e-49
3.7396608e-49
3.7396598e-49
3.7396618e-49
3.7396682e-49
3.7396855e-49
3.7403339e-49
3.7399427e-49
3.7397666e-49
3.7396974e-49
3.7396739e-49
3.7396672e-49
3.7396662e-49
3.7396682e-49
3.7396747e-49
3.7396919e-49
3.740344e-49
3.7399577e-49
3.7397832e-49
3.7397145e-49
3.7396912e-49
3.7396845e-49
3.7396835e-49
3.7396855e-49
3.7396919e-49
3.7397092e-49
1.8363676e-48
1.8361807e-48
1.8360962e-48
1.8360629e-48
1.8360516e-48
1.8360483e-48
1.8360476e-48
1.8360481e-48
1.8360498e-48
1.8360544e-48
1.8361807e-48
1.8359938e-48
1.8359094e-48
1.8358761e-48
1.8358648e-48
1.8358615e-48
1.8358609e-48
1.8358616e-48
1.835864e-48
1.8358711e-48
1.8360962e-48
1.8359094e-48
1.8358249e-48
1.8357916e-48
1.8357803e-48
1.8357771e-48
1.8357765e-48
1.8357774e-48
1.8357802e-48
1.8357881e-48
1.8360629e-48
1.8358761e-48
1.8357916e-48
1.8357583e-48
1.835747e-48
1.8357438e-48
1.8357433e-48
1.8357442e-48
1.8357472e-48
1.8357553e-48
1.8360516e-48
1.8358648e-48
1.8357803e-48
1.835747e-48
1.8357357e-48
1.8357325e-48
1.835732e-48
1.835733e-48
1.835736e-48
1.8357442e-48
1.8360483e-48
1.8358615e-48
1.8357771e-48
1.8357438e-48
1.8357325e-48
1.8357293e-48
1.8357288e-48
1.8357298e-48
1.8357329e-48
1.835741e-48
1.8360476e-48
1.8358609e-48
1.8357765e-48
1.8357433e-48
1.835732e-48
1.8357288e-48
1.8357283e-48
1.8357293e-48
1.8357324e-48
1.8357405e-48
1.8360481e-48
1.8358616e-48
1.8357774e-48
1.8357442e-48
1.835733e-48
1.8357298e-48
1.8357293e-48
1.8357302e-48
1.8357333e-48
1.8357415e-48
1.8360498e-48
1.835864e-48
1.8357802e-48
1.8357472e-48
1.835736e-48
1.8357329e-48
1.8357324e-48
1.8357333e-48
1.8357364e-48
1.8357446e-48
1.8360544e-48
1.8358711e-48
1.8357881e-48
1.8357553e-48
1.8357442e-48
1.835741e-48
1.8357405e-48
1.8357415e-48
1.8357446e-48
1.8357528e-48
9.2047077e-48
9.2038019e-48
9.2033914e-48
9.2032295e-48
9.2031745e-48
9.2031585e-48
9.2031553e-48
9.2031575e-48
9.2031656e-48
9.2031879e-48
9.2038019e-48
9.2028964e-48
9.2024861e-48
9.2023242e-48
9.2022692e-48
9.2022533e-48
9.2022505e-48
9.2022537e-48
9.2022655e-48
9.2022998e-48
9.2033914e-48
9.2024861e-48
9.2020758e-48
9.2019139e-48
9.201859e-48
9.2018432e-48
9.2018406e-48
9.2018447e-48
9.2018586e-48
9.2018966e-48
9.2032295e-48
9.2023242e-48
9.2019139e-48
9.2017521e-48
9.2016972e-48
9.2016814e-48
9.201679e-48
9.2016835e-48
9.2016983e-48
9.2017373e-48
9.2031745e-48
9.2022692e-48
9.201859e-48
9.2016972e-48
9.2016423e-48
9.2016265e-48
9.2016242e-48
9.2016288e-48
9.2016439e-48
9.2016833e-48
9.2031585e-48
9.2022533e-48
9.2018432e-48
9.2016814e-48
9.2016265e-48
9.2016109e-48
9.2016085e-48
9.2016132e-48
9.2016283e-48
9.2016678e-48
9.2031553e-48
9.2022505e-48
9.2018406e-48
9.201679e-48
9.2016242e-48
9.2016085e-48
9.2016062e-48
9.2016109e-48
9.201626e-48
9.2016655e-48
9.2031575e-48
9.2022537e-48
9.2018447e-48
9.2016835e-48
9.2016288e-48
9.2016132e-48
9.2016109e-48
9.2016156e-48
9.2016308e-48
9.2016702e-48
9.2031656e-48
9.2022655e-48
9.2018586e-48
9.2016983e-48
9.2016439e-48
9.2016283e-48
9.201626e-48
9.2016308e-48
9.2016459e-48
9.2016854e-48
9.2031879e-48
9.2022998e-48
9.2018966e-48
9.2017373e-48
9.2016833e-48
9.2016678e-48
9.2016655e-48
9.2016702e-48
9.2016854e-48
9.2017249e-48
4.7110442e-47
4.7105963e-47
4.7103928e-47
4.7103125e-47
4.7102852e-47
4.7102772e-47
4.7102757e-47
4.7102767e-47
4.7102808e-47
4.7102916e-47
4.7105963e-47
4.7101485e-47
4.7099451e-47
4.7098648e-47
4.7098375e-47
4.7098296e-47
4.7098282e-47
4.7098299e-47
4.7098357e-47
4.7098526e-47
4.7103928e-47
4.7099451e-47
4.7097417e-47
4.7096614e-47
4.7096342e-47
4.7096263e-47
4.7096251e-47
4.7096271e-47
4.7096341e-47
4.7096528e-47
4.7103125e-47
4.7098648e-47
4.7096614e-47
4.7095811e-47
4.7095539e-47
4.7095461e-47
4.7095449e-47
4.7095471e-47
4.7095545e-47
4.7095738e-47
4.7102852e-47
4.7098375e-47
4.7096342e-47
4.7095539e-47
4.7095266e-47
4.7095188e-47
4.7095177e-47
4.70952e-47
4.7095275e-47
4.709547e-47
4.7102772e-47
4.7098296e-47
4.7096263e-47
4.7095461e-47
4.7095188e-47
4.709511e-47
4.7095099e-47
4.7095122e-47
4.7095198e-47
4.7095393e-47
4.7102757e-47
4.7098282e-47
4.7096251e-47
4.7095449e-47
4.7095177e-47
4.7095099e-47
4.7095087e-47
4.7095111e-47
4.7095187e-47
4.7095382e-47
4.7102767e-47
4.7098299e-47
4.7096271e-47
4.7095471e-47
4.70952e-47
4.7095122e-47
4.7095111e-47
4.7095135e-47
4.7095211e-47
4.7095406e-47
4.7102808e-47
4.7098357e-47
4.7096341e-47
4.7095545e-47
4.7095275e-47
4.7095198e-47
4.7095187e-47
4.7095211e-47
4.7095286e-47
4.7095481e-47
4.7102916e-47
4.7098526e-47
4.7096528e-47
4.7095738e-47
4.709547e-47
4.7095393e-47
4.7095382e-47
4.7095406e-47
4.7095481e-47
4.7095676e-47
2.4618016e-46
2.4615755e-46
2.4614726e-46
2.461432e-46
2.4614181e-46
2.4614141e-46
2.4614133e-46
2.4614139e-46
2.4614159e-46
2.4614213e-46
2.4615755e-46
2.4613496e-46
2.4612467e-46
2.4612061e-46
2.4611923e-46
2.4611883e-46
2.4611876e-46
2.4611884e-46
2.4611914e-46
2.4611999e-46
2.4614726e-46
2.4612467e-46
2.4611439e-46
2.4611032e-46
2.4610894e-46
2.4610854e-46
2.4610848e-46
2.4610859e-46
2.4610894e-46
2.4610988e-46
2.461432e-46
2.4612061e-46
2.4611032e-46
2.4610626e-46
2.4610488e-46
2.4610448e-46
2.4610442e-46
2.4610454e-46
2.4610491e-46
2.4610589e-46
2.4614181e-46
2.4611923e-46
2.4610894e-46
2.4610488e-46
2.461035e-46
2.461031e-46
2.4610304e-46
2.4610316e-46
2.4610355e-46
2.4610453e-46
2.4614141e-46
2.4611883e-46
2.4610854e-46
2.4610448e-46
2.461031e-46
2.4610271e-46
2.4610265e-46
2.4610277e-46
2.4610316e-46
2.4610414e-46
2.4614133e-46
2.4611876e-46
2.4610848e-46
2.4610442e-46
2.4610304e-46
2.4610265e-46
2.4610259e-46
2.4610271e-46
2.461031e-46
2.4610408e-46
2.4614139e-46
2.4611884e-46
2.4610859e-46
2.4610454e-46
2.4610316e-46
2.4610277e-46
2.4610271e-46
2.4610284e-46
2.4610322e-46
2.461042e-46
2.4614159e-46
2.4611914e-46
2.4610894e-46
2.4610491e-46
2.4610355e-46
2.4610316e-46
2.461031e-46
2.4610322e-46
2.4610361e-46
2.4610459e-46
2.4614213e-46
2.4611999e-46
2.4610988e-46
2.4610589e-46
2.4610453e-46
2.4610414e-46
2.4610408e-46
2.461042e-46
2.4610459e-46
2.4610557e-46
1.3133579e-45
1.3132415e-45
1.3131884e-45
1.3131674e-45
1.3131602e-45
1.3131582e-45
1.3131578e-45
1.313158e-45
1.3131591e-45
1.3131618e-45
1.3132415e-45
1.3131252e-45
1.3130721e-45
1.3130511e-45
1.3130439e-45
1.3130419e-45
1.3130415e-45
1.313042e-45
1.3130435e-45
1.3130479e-45
1.3131884e-45
1.3130721e-45
1.313019e-45
1.312998e-45
1.3129909e-45
1.3129888e-45
1.3129885e-45
1.3129891e-45
1.3129909e-45
1.3129958e-45
1.3131674e-45
1.3130511e-45
1.312998e-45
1.312977e-45
1.3129699e-45
1.3129678e-45
1.3129675e-45
1.3129681e-45
1.3129701e-45
1.3129751e-45
1.3131602e-45
1.3130439e-45
1.3129909e-45
1.3129699e-45
1.3129628e-45
1.3129607e-45
1.3129604e-45
1.312961e-45
1.312963e-45
1.3129681e-45
1.3131582e-45
1.3130419e-45
1.3129888e-45
1.3129678e-45
1.3129607e-45
1.3129587e-45
1.3129584e-45
1.312959e-45
1.312961e-45
1.3129661e-45
1.3131578e-45
1.3130415e-45
1.3129885e-45
1.3129675e-45
1.3129604e-45
1.3129584e-45
1.3129581e-45
1.3129587e-45
1.3129607e-45
1.3129658e-45
1.313158e-45
1.313042e-45
1.3129891e-45
1.3129681e-45
1.312961e-45
1.312959e-45
1.3129587e-45
1.3129594e-45
1.3129614e-45
1.3129664e-45
1.3131591e-45
1.3130435e-45
1.3129909e-45
1.3129701e-45
1.312963e-45
1.312961e-45
1.3129607e-45
1.3129614e-45
1.3129634e-45
1.3129684e-45
1.3131618e-45
1.3130479e-45
1.3129958e-45
1.3129751e-45
1.3129681e-45
1.3129661e-45
1.3129658e-45
1.3129664e-45
1.3129684e-45
1.3129735e-45
7.1526355e-45
7.1520243e-45
7.1517448e-45
7.1516341e-45
7.1515964e-45
7.1515855e-45
7.1515834e-45
7.1515849e-45
7.1515905e-45
7.1516046e-45
7.1520243e-45
7.1514134e-45
7.1511339e-45
7.1510233e-45
7.1509856e-45
7.1509748e-45
7.1509729e-45
7.1509752e-45
7.1509835e-45
7.1510063e-45
7.1517448e-45
7.1511339e-45
7.1508545e-45
7.1507439e-45
7.1507063e-45
7.1506955e-45
7.1506938e-45
7.1506967e-45
7.1507065e-45
7.1507321e-45
7.1516341e-45
7.1510233e-45
7.1507439e-45
7.1506333e-45
7.1505957e-45
7.1505849e-45
7.1505833e-45
7.1505866e-45
7.150597e-45
7.1506233e-45
7.1515964e-45
7.1509856e-45
7.1507063e-45
7.1505957e-45
7.1505581e-45
7.1505473e-45
7.1505458e-45
7.1505492e-45
7.1505597e-45
7.1505863e-45
7.1515855e-45
7.1509748e-45
7.1506955e-45
7.1505849e-45
7.1505473e-45
7.1505366e-45
7.1505351e-45
7.1505385e-45
7.1505491e-45
7.1505758e-45
7.1515834e-45
7.1509729e-45
7.1506938e-45
7.1505833e-45
7.1505458e-45
7.1505351e-45
7.1505335e-45
7.150537e-45
7.1505476e-45
7.1505743e-45
7.1515849e-45
7.1509752e-45
7.1506967e-45
7.1505866e-45
7.1505492e-45
7.1505385e-45
7.150537e-45
7.1505404e-45
7.150551e-45
7.1505777e-45
7.1515905e-45
7.1509835e-45
7.1507065e-45
7.150597e-45
7.1505597e-45
7.1505491e-45
7.1505476e-45
7.150551e-45
7.1505617e-45
7.1505884e-45
7.1516046e-45
7.1510063e-45
7.1507321e-45
7.1506233e-45
7.1505863e-45
7.1505758e-45
7.1505743e-45
7.1505777e-45
7.1505884e-45
7.1506151e-45
3.9760696e-44
3.9757421e-44
3.9755921e-44
3.9755326e-44
3.9755123e-44
3.9755065e-44
3.9755053e-44
3.9755062e-44
3.9755092e-44
3.9755166e-44
3.9757421e-44
3.9754148e-44
3.9752648e-44
3.9752054e-44
3.9751851e-44
3.9751793e-44
3.9751783e-44
3.9751795e-44
3.975184e-44
3.9751963e-44
3.9755921e-44
3.9752648e-44
3.9751148e-44
3.9750554e-44
3.9750351e-44
3.9750293e-44
3.9750284e-44
3.97503e-44
3.9750353e-44
3.975049e-44
3.9755326e-44
3.9752054e-44
3.9750554e-44
3.9749959e-44
3.9749757e-44
3.9749699e-44
3.9749691e-44
3.9749708e-44
3.9749765e-44
3.9749906e-44
3.9755123e-44
3.9751851e-44
3.9750351e-44
3.9749757e-44
3.9749555e-44
3.9749497e-44
3.9749489e-44
3.9749507e-44
3.9749565e-44
3.9749707e-44
3.9755065e-44
3.9751793e-44
3.9750293e-44
3.9749699e-44
3.9749497e-44
3.9749439e-44
3.9749431e-44
3.974945e-44
3.9749508e-44
3.9749651e-44
3.9755053e-44
3.9751783e-44
3.9750284e-44
3.9749691e-44
3.9749489e-44
3.9749431e-44
3.9749423e-44
3.9749442e-44
3.97495e-44
3.9749643e-44
3.9755062e-44
3.9751795e-44
3.97503e-44
3.9749708e-44
3.9749507e-44
3.974945e-44
3.9749442e-44
3.974946e-44
3.9749518e-44
3.9749662e-44
3.9755092e-44
3.975184e-44
3.9750353e-44
3.9749765e-44
3.9749565e-44
3.9749508e-44
3.97495e-44
3.9749518e-44
3.9749576e-44
3.9749719e-44
3.9755166e-44
3.9751963e-44
3.975049e-44
3.9749906e-44
3.9749707e-44
3.9749651e-44
3.9749643e-44
3.9749662e-44
3.9749719e-44
3.9749863e-44
2.2557522e-43
2.2555733e-43
2.2554911e-43
2.2554585e-43
2.2554474e-43
2.2554442e-43
2.2554436e-43
2.2554441e-43
2.2554457e-43
2.2554497e-43
2.2555733e-43
2.2553945e-43
2.2553123e-43
2.2552797e-43
2.2552686e-43
2.2552654e-43
2.2552649e-43
2.2552656e-43
2.2552681e-43
2.2552748e-43
2.2554911e-43
2.2553123e-43
2.2552302e-43
2.2551976e-43
2.2551865e-43
2.2551833e-43
2.2551828e-43
2.2551837e-43
2.2551867e-43
2.2551942e-43
2.2554585e-43
2.2552797e-43
2.2551976e-43
2.255165e-43
2.2551539e-43
2.2551508e-43
2.2551503e-43
2.2551513e-43
2.2551544e-43
2.2551622e-43
2.2554474e-43
2.2552686e-43
2.2551865e-43
2.2551539e-43
2.2551429e-43
2.2551397e-43
2.2551393e-43
2.2551403e-43
2.2551435e-43
2.2551513e-43
2.2554442e-43
2.2552654e-43
2.2551833e-43
2.2551508e-43
2.2551397e-43
2.2551365e-43
2.2551361e-43
2.2551371e-43
2.2551403e-43
2.2551482e-43
2.2554436e-43
2.2552649e-43
2.2551828e-43
2.2551503e-43
2.2551393e-43
2.2551361e-43
2.2551357e-43
2.2551367e-43
2.2551399e-43
2.2551478e-43
2.2554441e-43
2.2552656e-43
2.2551837e-43
2.2551513e-43
2.2551403e-43
2.2551371e-43
2.2551367e-43
2.2551377e-43
2.2551409e-43
2.2551488e-43
2.2554457e-43
2.2552681e-43
2.2551867e-43
2.2551544e-43
2.2551435e-43
2.2551403e-43
2.2551399e-43
2.2551409e-43
2.2551441e-43
2.255152e-43
2.2554497e-43
2.2552748e-43
2.2551942e-43
2.2551622e-43
2.2551513e-43
2.2551482e-43
2.2551478e-43
2.2551488e-43
2.255152e-43
2.2551599e-43
1.3059167e-42
1.305817e-42
1.3057711e-42
1.3057529e-42
1.3057467e-42
1.3057449e-42
1.3057446e-42
1.3057448e-42
1.3057458e-42
1.305748e-42
1.305817e-42
1.3057174e-42
1.3056715e-42
1.3056533e-42
1.3056471e-42
1.3056453e-42
1.305645e-42
1.3056454e-42
1.3056468e-42
1.3056505e-42
1.3057711e-42
1.3056715e-42
1.3056257e-42
1.3056075e-42
1.3056013e-42
1.3055995e-42
1.3055992e-42
1.3055997e-42
1.3056014e-42
1.3056056e-42
1.3057529e-42
1.3056533e-42
1.3056075e-42
1.3055893e-42
1.3055831e-42
1.3055813e-42
1.305581e-42
1.3055816e-42
1.3055834e-42
1.3055877e-42
1.3057467e-42
1.3056471e-42
1.3056013e-42
1.3055831e-42
1.3055769e-42
1.3055751e-42
1.3055748e-42
1.3055754e-42
1.3055772e-42
1.3055816e-42
1.3057449e-42
1.3056453e-42
1.3055995e-42
1.3055813e-42
1.3055751e-42
1.3055733e-42
1.3055731e-42
1.3055737e-42
1.3055755e-42
1.3055799e-42
1.3057446e-42
1.305645e-42
1.3055992e-42
1.305581e-42
1.3055748e-42
1.3055731e-42
1.3055728e-42
1.3055734e-42
1.3055752e-42
1.3055796e-42
1.3057448e-42
1.3056454e-42
1.3055997e-42
1.3055816e-42
1.3055754e-42
1.3055737e-42
1.3055734e-42
1.305574e-42
1.3055758e-42
1.3055802e-42
1.3057458e-42
1.3056468e-42
1.3056014e-42
1.3055834e-42
1.3055772e-42
1.3055755e-42
1.3055752e-42
1.3055758e-42
1.3055776e-42
1.305582e-42
1.305748e-42
1.3056505e-42
1.3056056e-42
1.3055877e-42
1.3055816e-42