/*--------------------------------*- C++ -*----------------------------------*\
| =========                 |                                                 |
| \\      /  F ield         | OpenFOAM: The Open Source CFD Toolbox           |
|  \\    /   O peration     | Version:  dev                                   |
|   \\  /    A nd           | Web:      www.OpenFOAM.org                      |
|    \\/     M anipulation  |                                                 |
\*---------------------------------------------------------------------------*/
FoamFile
{
    version     2.0;
    format      ascii;
    class       volScalarField;
    location    "58.995";
    object      A;
}
// * * * * * * * * * * * * * * * * * * * * * * * * * * * * * * * * * * * * * //

dimensions      [0 0 0 0 1 0 0];

internalField   nonuniform List<scalar> 
10000
(
9.7264079e-30
9.7095659e-30
9.7017115e-30
9.6982016e-30
9.6967922e-30
9.6963258e-30
9.6963177e-30
9.6967124e-30
9.6978271e-30
9.7003695e-30
9.7095659e-30
9.6928048e-30
9.6849776e-30
9.6814782e-30
9.6800736e-30
9.6796121e-30
9.6796151e-30
9.6800418e-30
9.6812502e-30
9.6840746e-30
9.7017115e-30
9.6849776e-30
9.6771648e-30
9.6736721e-30
9.6722712e-30
9.6718146e-30
9.6718292e-30
9.6722838e-30
9.6735512e-30
9.6764678e-30
9.6982016e-30
9.6814782e-30
9.6736721e-30
9.670183e-30
9.6687847e-30
9.6683314e-30
9.6683534e-30
9.6688238e-30
9.6701188e-30
9.6730666e-30
9.6967922e-30
9.6800736e-30
9.6722712e-30
9.6687847e-30
9.667388e-30
9.6669367e-30
9.6669624e-30
9.6674401e-30
9.6687461e-30
9.6717043e-30
9.6963258e-30
9.6796121e-30
9.6718146e-30
9.6683314e-30
9.6669367e-30
9.6664868e-30
9.6665143e-30
9.6669948e-30
9.6683049e-30
9.6712664e-30
9.6963177e-30
9.6796151e-30
9.6718292e-30
9.6683534e-30
9.6669624e-30
9.6665143e-30
9.6665428e-30
9.6670246e-30
9.6683361e-30
9.6712988e-30
9.6967124e-30
9.6800418e-30
9.6722838e-30
9.6688238e-30
9.6674401e-30
9.6669948e-30
9.6670246e-30
9.6675071e-30
9.6688195e-30
9.6717832e-30
9.6978271e-30
9.6812502e-30
9.6735512e-30
9.6701188e-30
9.6687461e-30
9.6683049e-30
9.6683361e-30
9.6688195e-30
9.6701334e-30
9.6730996e-30
9.7003695e-30
9.6840746e-30
9.6764678e-30
9.6730666e-30
9.6717043e-30
9.6712664e-30
9.6712988e-30
9.6717832e-30
9.6730996e-30
9.6760744e-30
3.4072209e-29
3.4015392e-29
3.3988221e-29
3.3976053e-29
3.3971163e-29
3.3969545e-29
3.3969514e-29
3.3970877e-29
3.3974732e-29
3.3983869e-29
3.4015392e-29
3.3958842e-29
3.3931763e-29
3.3919631e-29
3.3914758e-29
3.3913155e-29
3.3913164e-29
3.3914639e-29
3.3918822e-29
3.3928951e-29
3.3988221e-29
3.3931763e-29
3.3904733e-29
3.3892624e-29
3.3887764e-29
3.3886179e-29
3.3886228e-29
3.38878e-29
3.3892189e-29
3.390264e-29
3.3976053e-29
3.3919631e-29
3.3892624e-29
3.3880527e-29
3.3875676e-29
3.3874103e-29
3.3874178e-29
3.3875805e-29
3.3880291e-29
3.389085e-29
3.3971163e-29
3.3914758e-29
3.3887764e-29
3.3875676e-29
3.3870831e-29
3.3869264e-29
3.3869352e-29
3.3871004e-29
3.3875529e-29
3.3886125e-29
3.3969545e-29
3.3913155e-29
3.3886179e-29
3.3874103e-29
3.3869264e-29
3.3867703e-29
3.3867797e-29
3.3869459e-29
3.3873997e-29
3.3884605e-29
3.3969514e-29
3.3913164e-29
3.3886228e-29
3.3874178e-29
3.3869352e-29
3.3867797e-29
3.3867894e-29
3.3869561e-29
3.3874104e-29
3.3884716e-29
3.3970877e-29
3.3914639e-29
3.38878e-29
3.3875805e-29
3.3871004e-29
3.3869459e-29
3.3869561e-29
3.387123e-29
3.3875777e-29
3.3886392e-29
3.3974732e-29
3.3918822e-29
3.3892189e-29
3.3880291e-29
3.3875529e-29
3.3873997e-29
3.3874104e-29
3.3875777e-29
3.3880328e-29
3.3890952e-29
3.3983869e-29
3.3928951e-29
3.390264e-29
3.389085e-29
3.3886125e-29
3.3884605e-29
3.3884716e-29
3.3886392e-29
3.3890952e-29
3.3901608e-29
7.6088993e-29
7.596617e-29
7.5906754e-29
7.5880081e-29
7.5869351e-29
7.5865794e-29
7.586572e-29
7.5868684e-29
7.5877077e-29
7.5897568e-29
7.596617e-29
7.5843913e-29
7.5784697e-29
7.5758101e-29
7.5747406e-29
7.5743886e-29
7.5743898e-29
7.5747111e-29
7.5756233e-29
7.5778934e-29
7.5906754e-29
7.5784697e-29
7.5725587e-29
7.5699041e-29
7.5688375e-29
7.5684893e-29
7.5684994e-29
7.5688424e-29
7.5698004e-29
7.5721421e-29
7.5880081e-29
7.5758101e-29
7.5699041e-29
7.5672523e-29
7.5661876e-29
7.565842e-29
7.5658578e-29
7.566213e-29
7.5671924e-29
7.5695583e-29
7.5869351e-29
7.5747406e-29
7.5688375e-29
7.5661876e-29
7.5651241e-29
7.5647801e-29
7.5647988e-29
7.5651596e-29
7.5661476e-29
7.5685215e-29
7.5865794e-29
7.5743886e-29
7.5684893e-29
7.565842e-29
7.5647801e-29
7.564437e-29
7.5644572e-29
7.5648202e-29
7.5658113e-29
7.5681878e-29
7.586572e-29
7.5743898e-29
7.5684994e-29
7.5658578e-29
7.5647988e-29
7.5644572e-29
7.5644781e-29
7.5648421e-29
7.5658343e-29
7.5682118e-29
7.5868684e-29
7.5747111e-29
7.5688424e-29
7.566213e-29
7.5651596e-29
7.5648202e-29
7.5648421e-29
7.5652067e-29
7.5661996e-29
7.5685777e-29
7.5877077e-29
7.5756233e-29
7.5698004e-29
7.5671924e-29
7.5661476e-29
7.5658113e-29
7.5658343e-29
7.5661996e-29
7.5671935e-29
7.5695736e-29
7.5897568e-29
7.5778934e-29
7.5721421e-29
7.5695583e-29
7.5685215e-29
7.5681878e-29
7.5682118e-29
7.5685777e-29
7.5695736e-29
7.5719611e-29
1.5878175e-28
1.5853358e-28
1.5841274e-28
1.5835836e-28
1.5833645e-28
1.5832918e-28
1.5832901e-28
1.5833499e-28
1.583519e-28
1.5839344e-28
1.5853358e-28
1.5828653e-28
1.5816609e-28
1.5811187e-28
1.5809003e-28
1.5808284e-28
1.5808284e-28
1.5808934e-28
1.5810777e-28
1.5815389e-28
1.5841274e-28
1.5816609e-28
1.5804587e-28
1.5799174e-28
1.5796996e-28
1.5796285e-28
1.5796304e-28
1.5796999e-28
1.5798936e-28
1.5803697e-28
1.5835836e-28
1.5811187e-28
1.5799174e-28
1.5793767e-28
1.5791593e-28
1.5790887e-28
1.5790918e-28
1.5791639e-28
1.579362e-28
1.5798432e-28
1.5833645e-28
1.5809003e-28
1.5796996e-28
1.5791593e-28
1.5789422e-28
1.5788719e-28
1.5788756e-28
1.5789488e-28
1.5791488e-28
1.5796316e-28
1.5832918e-28
1.5808284e-28
1.5796285e-28
1.5790887e-28
1.5788719e-28
1.5788018e-28
1.5788058e-28
1.5788795e-28
1.57908e-28
1.5795634e-28
1.5832901e-28
1.5808284e-28
1.5796304e-28
1.5790918e-28
1.5788756e-28
1.5788058e-28
1.57881e-28
1.5788838e-28
1.5790846e-28
1.5795682e-28
1.5833499e-28
1.5808934e-28
1.5796999e-28
1.5791639e-28
1.5789488e-28
1.5788795e-28
1.5788838e-28
1.5789578e-28
1.5791587e-28
1.5796424e-28
1.583519e-28
1.5810777e-28
1.5798936e-28
1.579362e-28
1.5791488e-28
1.57908e-28
1.5790846e-28
1.5791587e-28
1.5793599e-28
1.579844e-28
1.5839344e-28
1.5815389e-28
1.5803697e-28
1.5798432e-28
1.5796316e-28
1.5795634e-28
1.5795682e-28
1.5796424e-28
1.579844e-28
1.5803296e-28
3.2931341e-28
3.2881517e-28
3.2857145e-28
3.2846151e-28
3.2841716e-28
3.2840242e-28
3.2840203e-28
3.28414e-28
3.2844769e-28
3.2853012e-28
3.2881517e-28
3.2831917e-28
3.2807624e-28
3.2796661e-28
3.2792241e-28
3.2790782e-28
3.279078e-28
3.2792083e-28
3.2795764e-28
3.2804955e-28
3.2857145e-28
3.2807624e-28
3.2783374e-28
3.2772432e-28
3.2768023e-28
3.276658e-28
3.2766616e-28
3.2768011e-28
3.2771888e-28
3.2781386e-28
3.2846151e-28
3.2796661e-28
3.2772432e-28
3.27615e-28
3.2757099e-28
3.2755668e-28
3.2755728e-28
3.2757175e-28
3.2761144e-28
3.2770745e-28
3.2841716e-28
3.2792241e-28
3.2768023e-28
3.2757099e-28
3.2752704e-28
3.2751279e-28
3.2751351e-28
3.2752822e-28
3.2756827e-28
3.2766463e-28
3.2840242e-28
3.2790782e-28
3.276658e-28
3.2755668e-28
3.2751279e-28
3.2749858e-28
3.2749936e-28
3.2751417e-28
3.2755435e-28
3.2765082e-28
3.2840203e-28
3.279078e-28
3.2766616e-28
3.2755728e-28
3.2751351e-28
3.2749936e-28
3.2750018e-28
3.2751503e-28
3.2755526e-28
3.2765176e-28
3.28414e-28
3.2792083e-28
3.2768011e-28
3.2757175e-28
3.2752822e-28
3.2751417e-28
3.2751503e-28
3.275299e-28
3.2757016e-28
3.2766669e-28
3.2844769e-28
3.2795764e-28
3.2771888e-28
3.2761144e-28
3.2756827e-28
3.2755435e-28
3.2755526e-28
3.2757016e-28
3.2761046e-28
3.2770707e-28
3.2853012e-28
3.2804955e-28
3.2781386e-28
3.2770745e-28
3.2766463e-28
3.2765082e-28
3.2765176e-28
3.2766669e-28
3.2770707e-28
3.2780398e-28
6.8842233e-28
6.874145e-28
6.8691957e-28
6.8669582e-28
6.8660542e-28
6.8657534e-28
6.8657446e-28
6.8659854e-28
6.8666606e-28
6.8683003e-28
6.874145e-28
6.8641118e-28
6.8591783e-28
6.8569468e-28
6.8560458e-28
6.8557481e-28
6.8557469e-28
6.8560098e-28
6.8567497e-28
6.8585867e-28
6.8691957e-28
6.8591783e-28
6.8542534e-28
6.8520261e-28
6.8511275e-28
6.850833e-28
6.8508397e-28
6.8511217e-28
6.8519023e-28
6.8538029e-28
6.8669582e-28
6.8569468e-28
6.8520261e-28
6.849801e-28
6.848904e-28
6.8486118e-28
6.8486236e-28
6.8489164e-28
6.8497159e-28
6.851638e-28
6.8660542e-28
6.8560458e-28
6.8511275e-28
6.848904e-28
6.8480081e-28
6.8477172e-28
6.8477315e-28
6.8480293e-28
6.8488364e-28
6.8507656e-28
6.8657534e-28
6.8557481e-28
6.850833e-28
6.8486118e-28
6.8477172e-28
6.8474273e-28
6.8474428e-28
6.8477426e-28
6.8485524e-28
6.8504839e-28
6.8657446e-28
6.8557469e-28
6.8508397e-28
6.8486236e-28
6.8477315e-28
6.8474428e-28
6.8474591e-28
6.8477596e-28
6.8485704e-28
6.8505027e-28
6.8659854e-28
6.8560098e-28
6.8511217e-28
6.8489164e-28
6.8480293e-28
6.8477426e-28
6.8477596e-28
6.8480607e-28
6.8488721e-28
6.850805e-28
6.8666606e-28
6.8567497e-28
6.8519023e-28
6.8497159e-28
6.8488364e-28
6.8485524e-28
6.8485704e-28
6.8488721e-28
6.8496842e-28
6.8516187e-28
6.8683003e-28
6.8585867e-28
6.8538029e-28
6.851638e-28
6.8507656e-28
6.8504839e-28
6.8505027e-28
6.850805e-28
6.8516187e-28
6.8535591e-28
1.4554983e-27
1.4534374e-27
1.4524215e-27
1.4519613e-27
1.4517751e-27
1.451713e-27
1.451711e-27
1.45176e-27
1.4518967e-27
1.4522259e-27
1.4534374e-27
1.4513856e-27
1.4503729e-27
1.4499139e-27
1.4497283e-27
1.4496669e-27
1.4496665e-27
1.4497201e-27
1.4498704e-27
1.4502411e-27
1.4524215e-27
1.4503729e-27
1.449362e-27
1.4489038e-27
1.4487187e-27
1.448658e-27
1.4486592e-27
1.4487169e-27
1.4488757e-27
1.4492597e-27
1.4519613e-27
1.4499139e-27
1.4489038e-27
1.4484461e-27
1.4482613e-27
1.4482011e-27
1.4482034e-27
1.4482633e-27
1.448426e-27
1.4488146e-27
1.4517751e-27
1.4497283e-27
1.4487187e-27
1.4482613e-27
1.4480767e-27
1.4480168e-27
1.4480196e-27
1.4480806e-27
1.4482449e-27
1.448635e-27
1.451713e-27
1.4496669e-27
1.448658e-27
1.4482011e-27
1.4480168e-27
1.447957e-27
1.4479601e-27
1.4480214e-27
1.4481864e-27
1.4485769e-27
1.451711e-27
1.4496665e-27
1.4486592e-27
1.4482034e-27
1.4480196e-27
1.4479601e-27
1.4479634e-27
1.4480249e-27
1.44819e-27
1.4485807e-27
1.45176e-27
1.4497201e-27
1.4487169e-27
1.4482633e-27
1.4480806e-27
1.4480214e-27
1.4480249e-27
1.4480865e-27
1.4482517e-27
1.4486426e-27
1.4518967e-27
1.4498704e-27
1.4488757e-27
1.448426e-27
1.4482449e-27
1.4481864e-27
1.44819e-27
1.4482517e-27
1.4484172e-27
1.4488083e-27
1.4522259e-27
1.4502411e-27
1.4492597e-27
1.4488146e-27
1.448635e-27
1.4485769e-27
1.4485807e-27
1.4486426e-27
1.4488083e-27
1.4492006e-27
3.1149428e-27
3.1106787e-27
3.1085693e-27
3.1076114e-27
3.1072234e-27
3.1070939e-27
3.1070894e-27
3.1071902e-27
3.1074703e-27
3.1081388e-27
3.1106787e-27
3.1064332e-27
3.1043303e-27
3.103375e-27
3.1029882e-27
3.10286e-27
3.102859e-27
3.1029696e-27
3.1032785e-27
3.1040352e-27
3.1085693e-27
3.1043303e-27
3.102231e-27
3.1012774e-27
3.1008917e-27
3.100765e-27
3.1007674e-27
3.1008865e-27
3.1012135e-27
3.1019986e-27
3.1076114e-27
3.103375e-27
3.1012774e-27
3.1003248e-27
3.0999397e-27
3.099814e-27
3.0998187e-27
3.0999426e-27
3.100278e-27
3.1010727e-27
3.1072234e-27
3.1029882e-27
3.1008917e-27
3.0999397e-27
3.0995551e-27
3.09943e-27
3.0994358e-27
3.0995619e-27
3.0999007e-27
3.1006985e-27
3.1070939e-27
3.10286e-27
3.100765e-27
3.099814e-27
3.09943e-27
3.0993053e-27
3.0993116e-27
3.0994386e-27
3.0997786e-27
3.1005775e-27
3.1070894e-27
3.102859e-27
3.1007674e-27
3.0998187e-27
3.0994358e-27
3.0993116e-27
3.0993182e-27
3.0994456e-27
3.099786e-27
3.1005852e-27
3.1071902e-27
3.1029696e-27
3.1008865e-27
3.0999426e-27
3.0995619e-27
3.0994386e-27
3.0994456e-27
3.0995732e-27
3.0999139e-27
3.1007134e-27
3.1074703e-27
3.1032785e-27
3.1012135e-27
3.100278e-27
3.0999007e-27
3.0997786e-27
3.099786e-27
3.0999139e-27
3.1002549e-27
3.101055e-27
3.1081388e-27
3.1040352e-27
3.1019986e-27
3.1010727e-27
3.1006985e-27
3.1005775e-27
3.1005852e-27
3.1007134e-27
3.101055e-27
3.1018574e-27
6.7496082e-27
6.7406792e-27
6.7362465e-27
6.7342293e-27
6.7334111e-27
6.7331376e-27
6.7331274e-27
6.7333376e-27
6.7339182e-27
6.735292e-27
6.7406792e-27
6.7317889e-27
6.7273697e-27
6.7253578e-27
6.7245421e-27
6.7242715e-27
6.7242686e-27
6.7244999e-27
6.7251425e-27
6.726706e-27
6.7362465e-27
6.7273697e-27
6.722958e-27
6.7209497e-27
6.7201361e-27
6.7198686e-27
6.7198733e-27
6.7201227e-27
6.7208042e-27
6.7224288e-27
6.7342293e-27
6.7253578e-27
6.7209497e-27
6.7189434e-27
6.7181313e-27
6.717866e-27
6.7178754e-27
6.7181352e-27
6.7188347e-27
6.7204798e-27
6.7334111e-27
6.7245421e-27
6.7201361e-27
6.7181313e-27
6.7173202e-27
6.7170561e-27
6.717068e-27
6.7173324e-27
6.7180392e-27
6.7196912e-27
6.7331376e-27
6.7242715e-27
6.7198686e-27
6.717866e-27
6.7170561e-27
6.7167929e-27
6.7168059e-27
6.7170722e-27
6.7177816e-27
6.7194358e-27
6.7331274e-27
6.7242686e-27
6.7198733e-27
6.7178754e-27
6.717068e-27
6.7168059e-27
6.7168196e-27
6.7170867e-27
6.717797e-27
6.719452e-27
6.7333376e-27
6.7244999e-27
6.7201227e-27
6.7181352e-27
6.7173324e-27
6.7170722e-27
6.7170867e-27
6.7173543e-27
6.7180651e-27
6.7197206e-27
6.7339182e-27
6.7251425e-27
6.7208042e-27
6.7188347e-27
6.7180392e-27
6.7177816e-27
6.717797e-27
6.7180651e-27
6.7187766e-27
6.7204334e-27
6.735292e-27
6.726706e-27
6.7224288e-27
6.7204798e-27
6.7196912e-27
6.7194358e-27
6.719452e-27
6.7197206e-27
6.7204334e-27
6.722095e-27
1.4809599e-26
1.4790675e-26
1.4781248e-26
1.4776949e-26
1.4775202e-26
1.4774618e-26
1.4774595e-26
1.4775038e-26
1.4776257e-26
1.4779115e-26
1.4790675e-26
1.4771832e-26
1.4762433e-26
1.4758145e-26
1.4756404e-26
1.4755826e-26
1.4755819e-26
1.4756308e-26
1.4757662e-26
1.4760932e-26
1.4781248e-26
1.4762433e-26
1.475305e-26
1.4748769e-26
1.4747033e-26
1.4746461e-26
1.474647e-26
1.4746999e-26
1.4748437e-26
1.4751841e-26
1.4776949e-26
1.4758145e-26
1.4748769e-26
1.4744493e-26
1.474276e-26
1.4742193e-26
1.4742212e-26
1.4742764e-26
1.4744241e-26
1.4747689e-26
1.4775202e-26
1.4756404e-26
1.4747033e-26
1.474276e-26
1.4741029e-26
1.4740465e-26
1.4740489e-26
1.4741051e-26
1.4742544e-26
1.4746007e-26
1.4774618e-26
1.4755826e-26
1.4746461e-26
1.4742193e-26
1.4740465e-26
1.4739902e-26
1.473993e-26
1.4740495e-26
1.4741994e-26
1.4745462e-26
1.4774595e-26
1.4755819e-26
1.474647e-26
1.4742212e-26
1.4740489e-26
1.473993e-26
1.4739958e-26
1.4740525e-26
1.4742026e-26
1.4745496e-26
1.4775038e-26
1.4756308e-26
1.4746999e-26
1.4742764e-26
1.4741051e-26
1.4740495e-26
1.4740525e-26
1.4741093e-26
1.4742595e-26
1.4746066e-26
1.4776257e-26
1.4757662e-26
1.4748437e-26
1.4744241e-26
1.4742544e-26
1.4741994e-26
1.4742026e-26
1.4742595e-26
1.4744098e-26
1.4747572e-26
1.4779115e-26
1.4760932e-26
1.4751841e-26
1.4747689e-26
1.4746007e-26
1.4745462e-26
1.4745496e-26
1.4746066e-26
1.4747572e-26
1.4751056e-26
3.2905919e-26
3.2865322e-26
3.2845028e-26
3.2835754e-26
3.2831982e-26
3.2830718e-26
3.2830666e-26
3.2831612e-26
3.2834202e-26
3.284022e-26
3.2865322e-26
3.2824897e-26
3.2804664e-26
3.2795413e-26
3.2791653e-26
3.2790403e-26
3.2790385e-26
3.2791432e-26
3.2794319e-26
3.2801248e-26
3.2845028e-26
3.2804664e-26
3.2784463e-26
3.2775229e-26
3.2771479e-26
3.2770243e-26
3.2770261e-26
3.2771396e-26
3.2774468e-26
3.2781689e-26
3.2835754e-26
3.2795413e-26
3.2775229e-26
3.2766004e-26
3.2762261e-26
3.2761035e-26
3.2761076e-26
3.276226e-26
3.2765419e-26
3.2772738e-26
3.2831982e-26
3.2791653e-26
3.2771479e-26
3.2762261e-26
3.2758522e-26
3.2757302e-26
3.2757354e-26
3.275856e-26
3.2761754e-26
3.2769107e-26
3.2830718e-26
3.2790403e-26
3.2770243e-26
3.2761035e-26
3.2757302e-26
3.2756087e-26
3.2756144e-26
3.275736e-26
3.2760566e-26
3.2767929e-26
3.2830666e-26
3.2790385e-26
3.2770261e-26
3.2761076e-26
3.2757354e-26
3.2756144e-26
3.2756205e-26
3.2757424e-26
3.2760635e-26
3.2768001e-26
3.2831612e-26
3.2791432e-26
3.2771396e-26
3.276226e-26
3.275856e-26
3.275736e-26
3.2757424e-26
3.2758645e-26
3.2761858e-26
3.2769227e-26
3.2834202e-26
3.2794319e-26
3.2774468e-26
3.2765419e-26
3.2761754e-26
3.2760566e-26
3.2760635e-26
3.2761858e-26
3.2765074e-26
3.2772449e-26
3.284022e-26
3.2801248e-26
3.2781689e-26
3.2772738e-26
3.2769107e-26
3.2767929e-26
3.2768001e-26
3.2769227e-26
3.2772449e-26
3.2779844e-26
7.4044703e-26
7.3956547e-26
7.3912329e-26
7.3892082e-26
7.3883836e-26
7.3881069e-26
7.3880948e-26
7.3882996e-26
7.3888569e-26
7.3901398e-26
7.3956547e-26
7.3868762e-26
7.3824674e-26
7.3804476e-26
7.3796255e-26
7.3793518e-26
7.3793475e-26
7.3795747e-26
7.3801982e-26
7.3816843e-26
7.3912329e-26
7.3824674e-26
7.3780657e-26
7.3760495e-26
7.3752295e-26
7.3749591e-26
7.3749627e-26
7.3752093e-26
7.3758741e-26
7.3774255e-26
7.3892082e-26
7.3804476e-26
7.3760495e-26
7.3740353e-26
7.3732168e-26
7.3729486e-26
7.3729573e-26
7.3732148e-26
7.3738989e-26
7.3754723e-26
7.3883836e-26
7.3796255e-26
7.3752295e-26
7.3732168e-26
7.3723994e-26
7.3721325e-26
7.3721437e-26
7.3724063e-26
7.373098e-26
7.3746787e-26
7.3881069e-26
7.3793518e-26
7.3749591e-26
7.3729486e-26
7.3721325e-26
7.3718667e-26
7.3718791e-26
7.3721436e-26
7.3728381e-26
7.3744212e-26
7.3880948e-26
7.3793475e-26
7.3749627e-26
7.3729573e-26
7.3721437e-26
7.3718791e-26
7.3718922e-26
7.3721576e-26
7.3728531e-26
7.3744369e-26
7.3882996e-26
7.3795747e-26
7.3752093e-26
7.3732148e-26
7.3724063e-26
7.3721436e-26
7.3721576e-26
7.3724234e-26
7.3731194e-26
7.3747038e-26
7.3888569e-26
7.3801982e-26
7.3758741e-26
7.3738989e-26
7.373098e-26
7.3728381e-26
7.3728531e-26
7.3731194e-26
7.3738161e-26
7.3754017e-26
7.3901398e-26
7.3816843e-26
7.3774255e-26
7.3754723e-26
7.3746787e-26
7.3744212e-26
7.3744369e-26
7.3747038e-26
7.3754017e-26
7.3769916e-26
1.6874159e-25
1.6854781e-25
1.6845029e-25
1.6840555e-25
1.683873e-25
1.6838117e-25
1.6838089e-25
1.6838538e-25
1.6839752e-25
1.6842521e-25
1.6854781e-25
1.6835484e-25
1.682576e-25
1.6821296e-25
1.6819477e-25
1.6818871e-25
1.6818861e-25
1.681936e-25
1.6820723e-25
1.6823951e-25
1.6845029e-25
1.682576e-25
1.6816052e-25
1.6811596e-25
1.6809781e-25
1.6809183e-25
1.680919e-25
1.6809733e-25
1.6811189e-25
1.6814565e-25
1.6840555e-25
1.6821296e-25
1.6811596e-25
1.6807144e-25
1.6805333e-25
1.6804739e-25
1.6804758e-25
1.6805325e-25
1.6806826e-25
1.6810251e-25
1.683873e-25
1.6819477e-25
1.6809781e-25
1.6805333e-25
1.6803524e-25
1.6802934e-25
1.6802958e-25
1.6803537e-25
1.6805054e-25
1.6808496e-25
1.6838117e-25
1.6818871e-25
1.6809183e-25
1.6804739e-25
1.6802934e-25
1.6802345e-25
1.6802372e-25
1.6802955e-25
1.6804479e-25
1.6807926e-25
1.6838089e-25
1.6818861e-25
1.680919e-25
1.6804758e-25
1.6802958e-25
1.6802372e-25
1.6802401e-25
1.6802986e-25
1.6804512e-25
1.680796e-25
1.6838538e-25
1.681936e-25
1.6809733e-25
1.6805325e-25
1.6803537e-25
1.6802955e-25
1.6802986e-25
1.6803572e-25
1.6805099e-25
1.6808549e-25
1.6839752e-25
1.6820723e-25
1.6811189e-25
1.6806826e-25
1.6805054e-25
1.6804479e-25
1.6804512e-25
1.6805099e-25
1.6806627e-25
1.681008e-25
1.6842521e-25
1.6823951e-25
1.6814565e-25
1.6810251e-25
1.6808496e-25
1.6807926e-25
1.680796e-25
1.6808549e-25
1.681008e-25
1.6813541e-25
3.8946926e-25
3.8903807e-25
3.8882036e-25
3.8872027e-25
3.886794e-25
3.8866566e-25
3.8866501e-25
3.8867496e-25
3.8870174e-25
3.8876227e-25
3.8903807e-25
3.8860867e-25
3.8839158e-25
3.8829172e-25
3.8825098e-25
3.8823739e-25
3.8823714e-25
3.8824824e-25
3.8827844e-25
3.8834945e-25
3.8882036e-25
3.8839158e-25
3.8817483e-25
3.8807515e-25
3.8803451e-25
3.8802109e-25
3.8802124e-25
3.8803333e-25
3.8806566e-25
3.8814004e-25
3.8872027e-25
3.8829172e-25
3.8807515e-25
3.8797557e-25
3.87935e-25
3.8792169e-25
3.8792211e-25
3.8793476e-25
3.8796808e-25
3.8804359e-25
3.886794e-25
3.8825098e-25
3.8803451e-25
3.87935e-25
3.8789449e-25
3.8788125e-25
3.8788179e-25
3.8789471e-25
3.8792842e-25
3.880043e-25
3.8866566e-25
3.8823739e-25
3.8802109e-25
3.8792169e-25
3.8788125e-25
3.8786806e-25
3.8786866e-25
3.8788168e-25
3.8791553e-25
3.8799154e-25
3.8866501e-25
3.8823714e-25
3.8802124e-25
3.8792211e-25
3.8788179e-25
3.8786866e-25
3.8786931e-25
3.8788236e-25
3.8791627e-25
3.8799232e-25
3.8867496e-25
3.8824824e-25
3.8803333e-25
3.8793476e-25
3.8789471e-25
3.8788168e-25
3.8788236e-25
3.8789545e-25
3.8792938e-25
3.8800545e-25
3.8870174e-25
3.8827844e-25
3.8806566e-25
3.8796808e-25
3.8792842e-25
3.8791553e-25
3.8791627e-25
3.8792938e-25
3.8796334e-25
3.8803947e-25
3.8876227e-25
3.8834945e-25
3.8814004e-25
3.8804359e-25
3.880043e-25
3.8799154e-25
3.8799232e-25
3.8800545e-25
3.8803947e-25
3.881158e-25
9.1045298e-25
9.0948174e-25
9.0898976e-25
9.0876314e-25
9.0867049e-25
9.0863931e-25
9.0863778e-25
9.0866011e-25
9.0871996e-25
9.088539e-25
9.0948174e-25
9.0851448e-25
9.0802387e-25
9.0779778e-25
9.0770541e-25
9.0767458e-25
9.0767396e-25
9.0769896e-25
9.077667e-25
9.079249e-25
9.0898976e-25
9.0802387e-25
9.0753405e-25
9.0730834e-25
9.0721621e-25
9.0718576e-25
9.0718608e-25
9.0721338e-25
9.0728603e-25
9.0745202e-25
9.0876314e-25
9.0779778e-25
9.0730834e-25
9.0708285e-25
9.0699089e-25
9.069607e-25
9.0696163e-25
9.0699023e-25
9.0706516e-25
9.0723377e-25
9.0867049e-25
9.0770541e-25
9.0721621e-25
9.0699089e-25
9.0689905e-25
9.0686902e-25
9.0687025e-25
9.0689944e-25
9.0697528e-25
9.0714476e-25
9.0863931e-25
9.0767458e-25
9.0718576e-25
9.069607e-25
9.0686902e-25
9.068391e-25
9.0684047e-25
9.068699e-25
9.0694607e-25
9.0711583e-25
9.0863778e-25
9.0767396e-25
9.0718608e-25
9.0696163e-25
9.0687025e-25
9.0684047e-25
9.0684192e-25
9.0687145e-25
9.0694774e-25
9.0711759e-25
9.0866011e-25
9.0769896e-25
9.0721338e-25
9.0699023e-25
9.0689944e-25
9.068699e-25
9.0687145e-25
9.0690103e-25
9.0697738e-25
9.0714729e-25
9.0871996e-25
9.077667e-25
9.0728603e-25
9.0706516e-25
9.0697528e-25
9.0694607e-25
9.0694774e-25
9.0697738e-25
9.070538e-25
9.0722383e-25
9.088539e-25
9.079249e-25
9.0745202e-25
9.0723377e-25
9.0714476e-25
9.0711583e-25
9.0711759e-25
9.0714729e-25
9.0722383e-25
9.073943e-25
2.1556636e-24
2.153449e-24
2.1523237e-24
2.1518043e-24
2.1515917e-24
2.1515201e-24
2.1515164e-24
2.1515672e-24
2.1517026e-24
2.1520028e-24
2.153449e-24
2.1512434e-24
2.1501211e-24
2.149603e-24
2.149391e-24
2.1493202e-24
2.1493187e-24
2.1493757e-24
2.1495296e-24
2.1498866e-24
2.1523237e-24
2.1501211e-24
2.1490006e-24
2.1484833e-24
2.1482719e-24
2.148202e-24
2.1482027e-24
2.1482651e-24
2.1484305e-24
2.1488057e-24
2.1518043e-24
2.149603e-24
2.1484833e-24
2.1479665e-24
2.1477555e-24
2.1476862e-24
2.1476883e-24
2.1477538e-24
2.1479245e-24
2.1483058e-24
2.1515917e-24
2.149391e-24
2.1482719e-24
2.1477555e-24
2.1475448e-24
2.1474758e-24
2.1474787e-24
2.1475455e-24
2.1477183e-24
2.1481017e-24
2.1515201e-24
2.1493202e-24
2.148202e-24
2.1476862e-24
2.1474758e-24
2.1474072e-24
2.1474103e-24
2.1474777e-24
2.1476513e-24
2.1480353e-24
2.1515164e-24
2.1493187e-24
2.1482027e-24
2.1476883e-24
2.1474787e-24
2.1474103e-24
2.1474137e-24
2.1474813e-24
2.1476551e-24
2.1480394e-24
2.1515672e-24
2.1493757e-24
2.1482651e-24
2.1477538e-24
2.1475455e-24
2.1474777e-24
2.1474813e-24
2.147549e-24
2.147723e-24
2.1481074e-24
2.1517026e-24
2.1495296e-24
2.1484305e-24
2.1479245e-24
2.1477183e-24
2.1476513e-24
2.1476551e-24
2.147723e-24
2.1478972e-24
2.1482818e-24
2.1520028e-24
2.1498866e-24
2.1488057e-24
2.1483058e-24
2.1481017e-24
2.1480353e-24
2.1480394e-24
2.1481074e-24
2.1482818e-24
2.1486674e-24
5.1694529e-24
5.1643413e-24
5.1617357e-24
5.1605309e-24
5.1600371e-24
5.1598707e-24
5.159862e-24
5.159979e-24
5.1602892e-24
5.1609702e-24
5.1643413e-24
5.1592503e-24
5.1566517e-24
5.1554496e-24
5.1549573e-24
5.1547928e-24
5.1547892e-24
5.154921e-24
5.1552749e-24
5.1560906e-24
5.1617357e-24
5.1566517e-24
5.1540572e-24
5.1528571e-24
5.1523661e-24
5.1522036e-24
5.1522052e-24
5.1523497e-24
5.1527309e-24
5.1535898e-24
5.1605309e-24
5.1554496e-24
5.1528571e-24
5.1516582e-24
5.1511681e-24
5.1510071e-24
5.151012e-24
5.1511637e-24
5.1515575e-24
5.1524309e-24
5.1600371e-24
5.1549573e-24
5.1523661e-24
5.1511681e-24
5.1506787e-24
5.1505185e-24
5.1505251e-24
5.1506801e-24
5.1510789e-24
5.1519572e-24
5.1598707e-24
5.1547928e-24
5.1522036e-24
5.1510071e-24
5.1505185e-24
5.150359e-24
5.1503663e-24
5.1505226e-24
5.1509232e-24
5.1518031e-24
5.159862e-24
5.1547892e-24
5.1522052e-24
5.151012e-24
5.1505251e-24
5.1503663e-24
5.1503742e-24
5.150531e-24
5.1509323e-24
5.1518126e-24
5.159979e-24
5.154921e-24
5.1523497e-24
5.1511637e-24
5.1506801e-24
5.1505226e-24
5.150531e-24
5.1506881e-24
5.1510897e-24
5.1519703e-24
5.1602892e-24
5.1552749e-24
5.1527309e-24
5.1515575e-24
5.1510789e-24
5.1509232e-24
5.1509323e-24
5.1510897e-24
5.1514917e-24
5.1523729e-24
5.1609702e-24
5.1560906e-24
5.1535898e-24
5.1524309e-24
5.1519572e-24
5.1518031e-24
5.1518126e-24
5.1519703e-24
5.1523729e-24
5.1532564e-24
1.2555794e-23
1.2543851e-23
1.2537745e-23
1.2534916e-23
1.2533756e-23
1.2533364e-23
1.2533343e-23
1.2533616e-23
1.2534336e-23
1.25359e-23
1.2543851e-23
1.2531956e-23
1.2525866e-23
1.2523044e-23
1.2521886e-23
1.2521499e-23
1.2521491e-23
1.2521799e-23
1.2522623e-23
1.2524512e-23
1.2537745e-23
1.2525866e-23
1.2519785e-23
1.2516967e-23
1.2515813e-23
1.2515431e-23
1.2515435e-23
1.2515774e-23
1.2516664e-23
1.2518655e-23
1.2534916e-23
1.2523044e-23
1.2516967e-23
1.2514152e-23
1.2513e-23
1.2512622e-23
1.2512633e-23
1.2512989e-23
1.2513909e-23
1.2515936e-23
1.2533756e-23
1.2521886e-23
1.2515813e-23
1.2513e-23
1.251185e-23
1.2511473e-23
1.2511489e-23
1.2511853e-23
1.2512785e-23
1.2514823e-23
1.2533364e-23
1.2521499e-23
1.2515431e-23
1.2512622e-23
1.2511473e-23
1.2511098e-23
1.2511116e-23
1.2511483e-23
1.2512419e-23
1.2514461e-23
1.2533343e-23
1.2521491e-23
1.2515435e-23
1.2512633e-23
1.2511489e-23
1.2511116e-23
1.2511134e-23
1.2511503e-23
1.2512441e-23
1.2514484e-23
1.2533616e-23
1.2521799e-23
1.2515774e-23
1.2512989e-23
1.2511853e-23
1.2511483e-23
1.2511503e-23
1.2511872e-23
1.251281e-23
1.2514854e-23
1.2534336e-23
1.2522623e-23
1.2516664e-23
1.2513909e-23
1.2512785e-23
1.2512419e-23
1.2512441e-23
1.251281e-23
1.251375e-23
1.2515795e-23
1.25359e-23
1.2524512e-23
1.2518655e-23
1.2515936e-23
1.2514823e-23
1.2514461e-23
1.2514484e-23
1.2514854e-23
1.2515795e-23
1.2517845e-23
3.088661e-23
3.0858367e-23
3.0843883e-23
3.0837161e-23
3.0834399e-23
3.0833467e-23
3.0833416e-23
3.0834061e-23
3.0835752e-23
3.0839392e-23
3.0858367e-23
3.0830236e-23
3.0815789e-23
3.0809082e-23
3.0806329e-23
3.0805407e-23
3.0805386e-23
3.0806117e-23
3.0808062e-23
3.0812488e-23
3.0843883e-23
3.0815789e-23
3.0801365e-23
3.0794668e-23
3.0791923e-23
3.0791013e-23
3.0791022e-23
3.0791826e-23
3.079393e-23
3.0798608e-23
3.0837161e-23
3.0809082e-23
3.0794668e-23
3.0787978e-23
3.0785238e-23
3.0784337e-23
3.0784365e-23
3.0785211e-23
3.0787388e-23
3.079215e-23
3.0834399e-23
3.0806329e-23
3.0791923e-23
3.0785238e-23
3.0782501e-23
3.0781605e-23
3.0781643e-23
3.0782508e-23
3.0784714e-23
3.0789504e-23
3.0833467e-23
3.0805407e-23
3.0791013e-23
3.0784337e-23
3.0781605e-23
3.0780712e-23
3.0780754e-23
3.0781627e-23
3.0783844e-23
3.0788643e-23
3.0833416e-23
3.0805386e-23
3.0791022e-23
3.0784365e-23
3.0781643e-23
3.0780754e-23
3.07808e-23
3.0781675e-23
3.0783896e-23
3.0788698e-23
3.0834061e-23
3.0806117e-23
3.0791826e-23
3.0785211e-23
3.0782508e-23
3.0781627e-23
3.0781675e-23
3.0782553e-23
3.0784776e-23
3.0789579e-23
3.0835752e-23
3.0808062e-23
3.079393e-23
3.0787388e-23
3.0784714e-23
3.0783844e-23
3.0783896e-23
3.0784776e-23
3.0787e-23
3.0791807e-23
3.0839392e-23
3.0812488e-23
3.0798608e-23
3.079215e-23
3.0789504e-23
3.0788643e-23
3.0788698e-23
3.0789579e-23
3.0791807e-23
3.0796626e-23
7.6949802e-23
7.68822e-23
7.6847427e-23
7.683126e-23
7.6824613e-23
7.6822366e-23
7.6822242e-23
7.6823784e-23
7.6827807e-23
7.6836382e-23
7.68822e-23
7.6814862e-23
7.6780179e-23
7.6764048e-23
7.6757419e-23
7.6755199e-23
7.6755147e-23
7.6756901e-23
7.6761549e-23
7.6772056e-23
7.6847427e-23
7.6780179e-23
7.6745549e-23
7.6729444e-23
7.6722833e-23
7.6720642e-23
7.6720664e-23
7.6722599e-23
7.6727636e-23
7.6738761e-23
7.683126e-23
7.6764048e-23
7.6729444e-23
7.6713354e-23
7.6706756e-23
7.6704585e-23
7.6704655e-23
7.6706692e-23
7.6711909e-23
7.6723242e-23
7.6824613e-23
7.6757419e-23
7.6722833e-23
7.6706756e-23
7.6700166e-23
7.6698008e-23
7.6698101e-23
7.6700185e-23
7.6705474e-23
7.6716876e-23
7.6822366e-23
7.6755199e-23
7.6720642e-23
7.6704585e-23
7.6698008e-23
7.6695858e-23
7.6695963e-23
7.6698065e-23
7.670338e-23
7.6714804e-23
7.6822242e-23
7.6755147e-23
7.6720664e-23
7.6704655e-23
7.6698101e-23
7.6695963e-23
7.6696074e-23
7.6698184e-23
7.6703508e-23
7.671494e-23
7.6823784e-23
7.6756901e-23
7.6722599e-23
7.6706692e-23
7.6700185e-23
7.6698065e-23
7.6698184e-23
7.6700298e-23
7.6705627e-23
7.6717062e-23
7.6827807e-23
7.6761549e-23
7.6727636e-23
7.6711909e-23
7.6705474e-23
7.670338e-23
7.6703508e-23
7.6705627e-23
7.671096e-23
7.6722403e-23
7.6836382e-23
7.6772056e-23
7.6738761e-23
7.6723242e-23
7.6716876e-23
7.6714804e-23
7.671494e-23
7.6717062e-23
7.6722403e-23
7.6733873e-23
1.9414875e-22
1.9398499e-22
1.9390051e-22
1.9386116e-22
1.9384496e-22
1.9383949e-22
1.9383918e-22
1.9384292e-22
1.9385261e-22
1.9387306e-22
1.9398499e-22
1.9382186e-22
1.9373759e-22
1.9369833e-22
1.9368218e-22
1.9367677e-22
1.9367664e-22
1.936809e-22
1.9369215e-22
1.9371741e-22
1.9390051e-22
1.9373759e-22
1.9365346e-22
1.9361426e-22
1.9359815e-22
1.9359281e-22
1.9359287e-22
1.9359758e-22
1.9360979e-22
1.9363659e-22
1.9386116e-22
1.9369833e-22
1.9361426e-22
1.935751e-22
1.9355902e-22
1.9355373e-22
1.9355391e-22
1.9355887e-22
1.9357153e-22
1.9359885e-22
1.9384496e-22
1.9368218e-22
1.9359815e-22
1.9355902e-22
1.9354297e-22
1.9353771e-22
1.9353794e-22
1.9354302e-22
1.9355586e-22
1.9358335e-22
1.9383949e-22
1.9367677e-22
1.9359281e-22
1.9355373e-22
1.9353771e-22
1.9353247e-22
1.9353273e-22
1.9353786e-22
1.9355076e-22
1.9357831e-22
1.9383918e-22
1.9367664e-22
1.9359287e-22
1.9355391e-22
1.9353794e-22
1.9353273e-22
1.9353301e-22
1.9353816e-22
1.9355108e-22
1.9357864e-22
1.9384292e-22
1.936809e-22
1.9359758e-22
1.9355887e-22
1.9354302e-22
1.9353786e-22
1.9353816e-22
1.9354331e-22
1.9355625e-22
1.9358382e-22
1.9385261e-22
1.9369215e-22
1.9360979e-22
1.9357153e-22
1.9355586e-22
1.9355076e-22
1.9355108e-22
1.9355625e-22
1.935692e-22
1.9359679e-22
1.9387306e-22
1.9371741e-22
1.9363659e-22
1.9359885e-22
1.9358335e-22
1.9357831e-22
1.9357864e-22