/*--------------------------------*- C++ -*----------------------------------*\
| =========                 |                                                 |
| \\      /  F ield         | OpenFOAM: The Open Source CFD Toolbox           |
|  \\    /   O peration     | Version:  dev                                   |
|   \\  /    A nd           | Web:      www.OpenFOAM.org                      |
|    \\/     M anipulation  |                                                 |
\*---------------------------------------------------------------------------*/
FoamFile
{
    version     2.0;
    format      ascii;
    class       volScalarField;
    location    "58.995";
    object      A_0;
}
// * * * * * * * * * * * * * * * * * * * * * * * * * * * * * * * * * * * * * //

dimensions      [0 0 0 0 1 0 0];

internalField   nonuniform List<scalar> 
10000
(
9.3775953e-30
9.3613387e-30
9.3537621e-30
9.3503793e-30
9.3490224e-30
9.348574e-30
9.3485664e-30
9.3489467e-30
9.3500213e-30
9.3524732e-30
9.3613387e-30
9.3451602e-30
9.3376099e-30
9.3342372e-30
9.332885e-30
9.3324412e-30
9.3324444e-30
9.3328557e-30
9.3340205e-30
9.3367448e-30
9.3537621e-30
9.3376099e-30
9.3300733e-30
9.3267071e-30
9.3253585e-30
9.3249195e-30
9.3249338e-30
9.3253719e-30
9.3265937e-30
9.3294069e-30
9.3503793e-30
9.3342372e-30
9.3267071e-30
9.3233445e-30
9.3219982e-30
9.3215624e-30
9.3215839e-30
9.3220372e-30
9.3232856e-30
9.3261288e-30
9.3490224e-30
9.332885e-30
9.3253585e-30
9.3219982e-30
9.3206536e-30
9.3202196e-30
9.3202447e-30
9.320705e-30
9.321964e-30
9.3248172e-30
9.348574e-30
9.3324412e-30
9.3249195e-30
9.3215624e-30
9.3202196e-30
9.319787e-30
9.3198138e-30
9.3202768e-30
9.3215398e-30
9.3243962e-30
9.3485664e-30
9.3324444e-30
9.3249338e-30
9.3215839e-30
9.3202447e-30
9.3198138e-30
9.3198416e-30
9.3203058e-30
9.3215701e-30
9.3244277e-30
9.3489467e-30
9.3328557e-30
9.3253719e-30
9.3220372e-30
9.320705e-30
9.3202768e-30
9.3203058e-30
9.3207707e-30
9.3220359e-30
9.3248944e-30
9.3500213e-30
9.3340205e-30
9.3265937e-30
9.3232856e-30
9.321964e-30
9.3215398e-30
9.3215701e-30
9.3220359e-30
9.3233024e-30
9.3261634e-30
9.3524732e-30
9.3367448e-30
9.3294069e-30
9.3261288e-30
9.3248172e-30
9.3243962e-30
9.3244277e-30
9.3248944e-30
9.3261634e-30
9.3290327e-30
3.2855547e-29
3.2800696e-29
3.2774481e-29
3.2762752e-29
3.2758044e-29
3.2756487e-29
3.2756459e-29
3.2757772e-29
3.2761489e-29
3.2770303e-29
3.2800696e-29
3.2746103e-29
3.2719977e-29
3.2708282e-29
3.270359e-29
3.270205e-29
3.2702059e-29
3.270348e-29
3.2707513e-29
3.2717284e-29
3.2774481e-29
3.2719977e-29
3.2693899e-29
3.2682227e-29
3.2677547e-29
3.2676023e-29
3.2676071e-29
3.2677586e-29
3.2681818e-29
3.26919e-29
3.2762752e-29
3.2708282e-29
3.2682227e-29
3.2670567e-29
3.2665895e-29
3.2664382e-29
3.2664456e-29
3.2666024e-29
3.2670349e-29
3.2680535e-29
3.2758044e-29
3.270359e-29
3.2677547e-29
3.2665895e-29
3.266123e-29
3.2659723e-29
3.2659809e-29
3.2661401e-29
3.2665764e-29
3.2675985e-29
3.2756487e-29
3.270205e-29
3.2676023e-29
3.2664382e-29
3.2659723e-29
3.2658222e-29
3.2658313e-29
3.2659915e-29
3.2664291e-29
3.2674524e-29
3.2756459e-29
3.2702059e-29
3.2676071e-29
3.2664456e-29
3.2659809e-29
3.2658313e-29
3.2658408e-29
3.2660014e-29
3.2664395e-29
3.2674632e-29
3.2757772e-29
3.270348e-29
3.2677586e-29
3.2666024e-29
3.2661401e-29
3.2659915e-29
3.2660014e-29
3.2661623e-29
3.2666007e-29
3.2676247e-29
3.2761489e-29
3.2707513e-29
3.2681818e-29
3.2670349e-29
3.2665764e-29
3.2664291e-29
3.2664395e-29
3.2666007e-29
3.2670395e-29
3.2680644e-29
3.2770303e-29
3.2717284e-29
3.26919e-29
3.2680535e-29
3.2675985e-29
3.2674524e-29
3.2674632e-29
3.2676247e-29
3.2680644e-29
3.2690923e-29
7.3392723e-29
7.3274115e-29
7.3216776e-29
7.3191058e-29
7.3180723e-29
7.3177302e-29
7.3177233e-29
7.318009e-29
7.3188184e-29
7.3207955e-29
7.3274115e-29
7.3156057e-29
7.3098909e-29
7.3073266e-29
7.3062965e-29
7.3059579e-29
7.3059593e-29
7.3062691e-29
7.3071488e-29
7.3093393e-29
7.3216776e-29
7.3098909e-29
7.3041865e-29
7.301627e-29
7.3005997e-29
7.3002647e-29
7.3002748e-29
7.3006054e-29
7.3015293e-29
7.3037889e-29
7.3191058e-29
7.3073266e-29
7.301627e-29
7.2990702e-29
7.2980447e-29
7.2977122e-29
7.2977277e-29
7.2980702e-29
7.2990147e-29
7.3012976e-29
7.3180723e-29
7.3062965e-29
7.3005997e-29
7.2980447e-29
7.2970204e-29
7.2966894e-29
7.2967077e-29
7.2970556e-29
7.2980084e-29
7.300299e-29
7.3177302e-29
7.3059579e-29
7.3002647e-29
7.2977122e-29
7.2966894e-29
7.2963594e-29
7.2963791e-29
7.296729e-29
7.2976848e-29
7.299978e-29
7.3177233e-29
7.3059593e-29
7.3002748e-29
7.2977277e-29
7.2967077e-29
7.2963791e-29
7.2963995e-29
7.2967504e-29
7.2977073e-29
7.3000013e-29
7.318009e-29
7.3062691e-29
7.3006054e-29
7.2980702e-29
7.2970556e-29
7.296729e-29
7.2967504e-29
7.2971018e-29
7.2980593e-29
7.3003541e-29
7.3188184e-29
7.3071488e-29
7.3015293e-29
7.2990147e-29
7.2980084e-29
7.2976848e-29
7.2977073e-29
7.2980593e-29
7.2990179e-29
7.3013146e-29
7.3207955e-29
7.3093393e-29
7.3037889e-29
7.3012976e-29
7.300299e-29
7.299978e-29
7.3000013e-29
7.3003541e-29
7.3013146e-29
7.3036183e-29
1.5320919e-28
1.5296945e-28
1.5285279e-28
1.5280034e-28
1.5277923e-28
1.5277224e-28
1.5277208e-28
1.5277785e-28
1.5279416e-28
1.5283425e-28
1.5296945e-28
1.527308e-28
1.5261453e-28
1.5256223e-28
1.5254119e-28
1.5253427e-28
1.5253428e-28
1.5254055e-28
1.5255832e-28
1.5260284e-28
1.5285279e-28
1.5261453e-28
1.5249846e-28
1.5244626e-28
1.5242528e-28
1.5241843e-28
1.5241862e-28
1.5242532e-28
1.5244401e-28
1.5248997e-28
1.5280034e-28
1.5256223e-28
1.5244626e-28
1.5239411e-28
1.5237317e-28
1.5236637e-28
1.5236667e-28
1.5237362e-28
1.5239274e-28
1.5243918e-28
1.5277923e-28
1.5254119e-28
1.5242528e-28
1.5237317e-28
1.5235225e-28
1.5234548e-28
1.5234584e-28
1.523529e-28
1.5237219e-28
1.5241879e-28
1.5277224e-28
1.5253427e-28
1.5241843e-28
1.5236637e-28
1.5234548e-28
1.5233873e-28
1.5233912e-28
1.5234623e-28
1.5236558e-28
1.5241223e-28
1.5277208e-28
1.5253428e-28
1.5241862e-28
1.5236667e-28
1.5234584e-28
1.5233912e-28
1.5233953e-28
1.5234665e-28
1.5236603e-28
1.524127e-28
1.5277785e-28
1.5254055e-28
1.5242532e-28
1.5237362e-28
1.523529e-28
1.5234623e-28
1.5234665e-28
1.5235378e-28
1.5237317e-28
1.5241986e-28
1.5279416e-28
1.5255832e-28
1.5244401e-28
1.5239274e-28
1.5237219e-28
1.5236558e-28
1.5236603e-28
1.5237317e-28
1.5239258e-28
1.5243931e-28
1.5283425e-28
1.5260284e-28
1.5248997e-28
1.5243918e-28
1.5241879e-28
1.5241223e-28
1.524127e-28
1.5241986e-28
1.5243931e-28
1.5248618e-28
3.178785e-28
3.1739701e-28
3.1716163e-28
3.1705556e-28
3.1701281e-28
3.1699862e-28
3.1699825e-28
3.170098e-28
3.1704231e-28
3.171219e-28
3.1739701e-28
3.1691769e-28
3.1668308e-28
3.165773e-28
3.1653469e-28
3.1652065e-28
3.1652064e-28
3.1653321e-28
3.1656873e-28
3.1665749e-28
3.1716163e-28
3.1668308e-28
3.1644888e-28
3.163433e-28
3.163008e-28
3.1628691e-28
3.1628727e-28
3.1630073e-28
3.1633815e-28
3.1642986e-28
3.1705556e-28
3.165773e-28
3.163433e-28
3.1623782e-28
3.161954e-28
3.1618162e-28
3.1618221e-28
3.1619618e-28
3.1623447e-28
3.1632718e-28
3.1701281e-28
3.1653469e-28
3.163008e-28
3.161954e-28
3.1615304e-28
3.1613932e-28
3.1614003e-28
3.1615422e-28
3.1619287e-28
3.1628591e-28
3.1699862e-28
3.1652065e-28
3.1628691e-28
3.1618162e-28
3.1613932e-28
3.1612564e-28
3.161264e-28
3.1614069e-28
3.1617947e-28
3.1627262e-28
3.1699825e-28
3.1652064e-28
3.1628727e-28
3.1618221e-28
3.1614003e-28
3.161264e-28
3.161272e-28
3.1614153e-28
3.1618035e-28
3.1627354e-28
3.170098e-28
3.1653321e-28
3.1630073e-28
3.1619618e-28
3.1615422e-28
3.1614069e-28
3.1614153e-28
3.1615587e-28
3.1619472e-28
3.1628794e-28
3.1704231e-28
3.1656873e-28
3.1633815e-28
3.1623447e-28
3.1619287e-28
3.1617947e-28
3.1618035e-28
3.1619472e-28
3.1623362e-28
3.1632691e-28
3.171219e-28
3.1665749e-28
3.1642986e-28
3.1632718e-28
3.1628591e-28
3.1627262e-28
3.1627354e-28
3.1628794e-28
3.1632691e-28
3.1642049e-28
6.6478476e-28
6.6381042e-28
6.6333224e-28
6.6311626e-28
6.630291e-28
6.6300012e-28
6.6299929e-28
6.6302254e-28
6.6308772e-28
6.632461e-28
6.6381042e-28
6.6284043e-28
6.6236378e-28
6.6214839e-28
6.6206151e-28
6.6203284e-28
6.6203275e-28
6.6205812e-28
6.6212956e-28
6.62307e-28
6.6333224e-28
6.6236378e-28
6.6188797e-28
6.6167297e-28
6.6158632e-28
6.6155797e-28
6.6155864e-28
6.6158586e-28
6.6166122e-28
6.6184482e-28
6.6311626e-28
6.6214839e-28
6.6167297e-28
6.6145819e-28
6.613717e-28
6.6134356e-28
6.6134472e-28
6.6137298e-28
6.6145017e-28
6.6163584e-28
6.630291e-28
6.6206151e-28
6.6158632e-28
6.613717e-28
6.6128531e-28
6.612573e-28
6.612587e-28
6.6128744e-28
6.6136536e-28
6.6155172e-28
6.6300012e-28
6.6203284e-28
6.6155797e-28
6.6134356e-28
6.612573e-28
6.6122938e-28
6.612309e-28
6.6125983e-28
6.6133801e-28
6.6152459e-28
6.6299929e-28
6.6203275e-28
6.6155864e-28
6.6134472e-28
6.612587e-28
6.612309e-28
6.6123248e-28
6.6126149e-28
6.6133977e-28
6.6152643e-28
6.6302254e-28
6.6205812e-28
6.6158586e-28
6.6137298e-28
6.6128744e-28
6.6125983e-28
6.6126149e-28
6.6129055e-28
6.6136888e-28
6.615556e-28
6.6308772e-28
6.6212956e-28
6.6166122e-28
6.6145017e-28
6.6136536e-28
6.6133801e-28
6.6133977e-28
6.6136888e-28
6.6144729e-28
6.6163416e-28
6.632461e-28
6.62307e-28
6.6184482e-28
6.6163584e-28
6.6155172e-28
6.6152459e-28
6.6152643e-28
6.615556e-28
6.6163416e-28
6.618216e-28
1.4060997e-27
1.4041064e-27
1.4031246e-27
1.4026801e-27
1.4025005e-27
1.4024407e-27
1.4024388e-27
1.4024861e-27
1.4026181e-27
1.4029363e-27
1.4041064e-27
1.402122e-27
1.4011432e-27
1.4006999e-27
1.4005209e-27
1.4004617e-27
1.4004614e-27
1.4005132e-27
1.4006583e-27
1.4010165e-27
1.4031246e-27
1.4011432e-27
1.4001661e-27
1.3997237e-27
1.3995451e-27
1.3994866e-27
1.3994879e-27
1.3995435e-27
1.3996969e-27
1.400068e-27
1.4026801e-27
1.4006999e-27
1.3997237e-27
1.3992817e-27
1.3991034e-27
1.3990454e-27
1.3990476e-27
1.3991055e-27
1.3992627e-27
1.3996382e-27
1.4025005e-27
1.4005209e-27
1.3995451e-27
1.3991034e-27
1.3989254e-27
1.3988676e-27
1.3988704e-27
1.3989292e-27
1.399088e-27
1.3994649e-27
1.4024407e-27
1.4004617e-27
1.3994866e-27
1.3990454e-27
1.3988676e-27
1.39881e-27
1.398813e-27
1.3988723e-27
1.3990316e-27
1.399409e-27
1.4024388e-27
1.4004614e-27
1.3994879e-27
1.3990476e-27
1.3988704e-27
1.398813e-27
1.3988162e-27
1.3988756e-27
1.3990351e-27
1.3994127e-27
1.4024861e-27
1.4005132e-27
1.3995435e-27
1.3991055e-27
1.3989292e-27
1.3988723e-27
1.3988756e-27
1.3989351e-27
1.3990947e-27
1.3994724e-27
1.4026181e-27
1.4006583e-27
1.3996969e-27
1.3992627e-27
1.399088e-27
1.3990316e-27
1.3990351e-27
1.3990947e-27
1.3992545e-27
1.3996325e-27
1.4029363e-27
1.4010165e-27
1.400068e-27
1.3996382e-27
1.3994649e-27
1.399409e-27
1.3994127e-27
1.3994724e-27
1.3996325e-27
1.4000116e-27
3.0104803e-27
3.0063544e-27
3.0043147e-27
3.0033894e-27
3.0030149e-27
3.0028901e-27
3.0028859e-27
3.0029833e-27
3.0032538e-27
3.0039001e-27
3.0063544e-27
3.0022466e-27
3.0002132e-27
2.9992903e-27
2.998917e-27
2.9987935e-27
2.9987926e-27
2.9988995e-27
2.9991979e-27
2.9999295e-27
3.0043147e-27
3.0002132e-27
2.9981834e-27
2.9972621e-27
2.9968898e-27
2.9967677e-27
2.9967701e-27
2.9968852e-27
2.9972012e-27
2.9979602e-27
3.0033894e-27
2.9992903e-27
2.9972621e-27
2.9963418e-27
2.9959702e-27
2.995849e-27
2.9958536e-27
2.9959734e-27
2.9962974e-27
2.9970657e-27
3.0030149e-27
2.998917e-27
2.9968898e-27
2.9959702e-27
2.995599e-27
2.9954784e-27
2.9954841e-27
2.995606e-27
2.9959333e-27
2.9967046e-27
3.0028901e-27
2.9987935e-27
2.9967677e-27
2.995849e-27
2.9954784e-27
2.9953583e-27
2.9953644e-27
2.9954871e-27
2.9958156e-27
2.996588e-27
3.0028859e-27
2.9987926e-27
2.9967701e-27
2.9958536e-27
2.9954841e-27
2.9953644e-27
2.9953709e-27
2.9954939e-27
2.9958229e-27
2.9965955e-27
3.0029833e-27
2.9988995e-27
2.9968852e-27
2.9959734e-27
2.995606e-27
2.9954871e-27
2.9954939e-27
2.9956172e-27
2.9959464e-27
2.9967193e-27
3.0032538e-27
2.9991979e-27
2.9972012e-27
2.9962974e-27
2.9959333e-27
2.9958156e-27
2.9958229e-27
2.9959464e-27
2.9962758e-27
2.9970494e-27
3.0039001e-27
2.9999295e-27
2.9979602e-27
2.9970657e-27
2.9967046e-27
2.996588e-27
2.9965955e-27
2.9967193e-27
2.9970494e-27
2.9978252e-27
6.5260185e-27
6.5173753e-27
6.5130873e-27
6.5111378e-27
6.5103478e-27
6.5100841e-27
6.5100745e-27
6.5102776e-27
6.5108388e-27
6.5121674e-27
6.5173753e-27
6.5087696e-27
6.5044947e-27
6.5025503e-27
6.5017627e-27
6.5015018e-27
6.5014993e-27
6.5017227e-27
6.5023439e-27
6.5038561e-27
6.5130873e-27
6.5044947e-27
6.500227e-27
6.4982861e-27
6.4975006e-27
6.4972427e-27
6.4972474e-27
6.4974884e-27
6.4981472e-27
6.4997185e-27
6.5111378e-27
6.5025503e-27
6.4982861e-27
6.4963471e-27
6.495563e-27
6.4953072e-27
6.4953165e-27
6.4955675e-27
6.4962437e-27
6.4978349e-27
6.5103478e-27
6.5017627e-27
6.4975006e-27
6.495563e-27
6.49478e-27
6.4945253e-27
6.4945369e-27
6.4947925e-27
6.4954757e-27
6.4970735e-27
6.5100841e-27
6.5015018e-27
6.4972427e-27
6.4953072e-27
6.4945253e-27
6.4942715e-27
6.4942842e-27
6.4945416e-27
6.4952273e-27
6.4968273e-27
6.5100745e-27
6.5014993e-27
6.4972474e-27
6.4953165e-27
6.4945369e-27
6.4942842e-27
6.4942976e-27
6.4945557e-27
6.4952424e-27
6.4968431e-27
6.5102776e-27
6.5017227e-27
6.4974884e-27
6.4955675e-27
6.4947925e-27
6.4945416e-27
6.4945557e-27
6.4948143e-27
6.4955014e-27
6.4971026e-27
6.5108388e-27
6.5023439e-27
6.4981472e-27
6.4962437e-27
6.4954757e-27
6.4952273e-27
6.4952424e-27
6.4955014e-27
6.4961892e-27
6.4977917e-27
6.5121674e-27
6.5038561e-27
6.4997185e-27
6.4978349e-27
6.4970735e-27
6.4968273e-27
6.4968431e-27
6.4971026e-27
6.4977917e-27
6.4993988e-27
1.4325168e-26
1.4306842e-26
1.4297718e-26
1.4293561e-26
1.4291875e-26
1.4291311e-26
1.4291289e-26
1.4291718e-26
1.4292896e-26
1.4295661e-26
1.4306842e-26
1.4288594e-26
1.4279498e-26
1.4275352e-26
1.427367e-26
1.4273113e-26
1.4273106e-26
1.4273579e-26
1.4274888e-26
1.4278053e-26
1.4297718e-26
1.4279498e-26
1.4270417e-26
1.4266278e-26
1.4264601e-26
1.426405e-26
1.4264059e-26
1.426457e-26
1.4265961e-26
1.4269255e-26
1.4293561e-26
1.4275352e-26
1.4266278e-26
1.4262144e-26
1.426047e-26
1.4259923e-26
1.4259942e-26
1.4260475e-26
1.4261903e-26
1.426524e-26
1.4291875e-26
1.427367e-26
1.4264601e-26
1.426047e-26
1.4258798e-26
1.4258254e-26
1.4258278e-26
1.425882e-26
1.4260264e-26
1.4263616e-26
1.4291311e-26
1.4273113e-26
1.426405e-26
1.4259923e-26
1.4258254e-26
1.4257711e-26
1.4257738e-26
1.4258284e-26
1.4259734e-26
1.426309e-26
1.4291289e-26
1.4273106e-26
1.4264059e-26
1.4259942e-26
1.4258278e-26
1.4257738e-26
1.4257766e-26
1.4258314e-26
1.4259765e-26
1.4263123e-26
1.4291718e-26
1.4273579e-26
1.426457e-26
1.4260475e-26
1.425882e-26
1.4258284e-26
1.4258314e-26
1.4258863e-26
1.4260316e-26
1.4263674e-26
1.4292896e-26
1.4274888e-26
1.4265961e-26
1.4261903e-26
1.4260264e-26
1.4259734e-26
1.4259765e-26
1.4260316e-26
1.4261769e-26
1.426513e-26
1.4295661e-26
1.4278053e-26
1.4269255e-26
1.426524e-26
1.4263616e-26
1.426309e-26
1.4263123e-26
1.4263674e-26
1.426513e-26
1.4268501e-26
3.1843423e-26
3.1804091e-26
3.1784443e-26
3.1775472e-26
3.1771828e-26
3.1770608e-26
3.1770558e-26
3.1771474e-26
3.1773979e-26
3.1779804e-26
3.1804091e-26
3.1764927e-26
3.1745337e-26
3.1736389e-26
3.1732755e-26
3.1731549e-26
3.1731532e-26
3.1732546e-26
3.1735339e-26
3.1742046e-26
3.1784443e-26
3.1745337e-26
3.1725779e-26
3.1716847e-26
3.1713223e-26
3.1712031e-26
3.1712049e-26
3.1713146e-26
3.1716119e-26
3.172311e-26
3.1775472e-26
3.1736389e-26
3.1716847e-26
3.1707924e-26
3.1704306e-26
3.1703124e-26
3.1703164e-26
3.1704309e-26
3.1707365e-26
3.1714451e-26
3.1771828e-26
3.1732755e-26
3.1713223e-26
3.1704306e-26
3.1700693e-26
3.1699517e-26
3.1699568e-26
3.1700734e-26
3.1703824e-26
3.1710942e-26
3.1770608e-26
3.1731549e-26
3.1712031e-26
3.1703124e-26
3.1699517e-26
3.1698344e-26
3.16984e-26
3.1699575e-26
3.1702677e-26
3.1709805e-26
3.1770558e-26
3.1731532e-26
3.1712049e-26
3.1703164e-26
3.1699568e-26
3.16984e-26
3.169846e-26
3.1699639e-26
3.1702745e-26
3.1709876e-26
3.1771474e-26
3.1732546e-26
3.1713146e-26
3.1704309e-26
3.1700734e-26
3.1699575e-26
3.1699639e-26
3.170082e-26
3.1703928e-26
3.1711062e-26
3.1773979e-26
3.1735339e-26
3.1716119e-26
3.1707365e-26
3.1703824e-26
3.1702677e-26
3.1702745e-26
3.1703928e-26
3.1707039e-26
3.1714179e-26
3.1779804e-26
3.1742046e-26
3.172311e-26
3.1714451e-26
3.1710942e-26
3.1709805e-26
3.1709876e-26
3.1711062e-26
3.1714179e-26
3.1721338e-26
7.1685556e-26
7.160011e-26
7.155728e-26
7.1537686e-26
7.1529714e-26
7.1527043e-26
7.1526928e-26
7.1528909e-26
7.1534303e-26
7.1546727e-26
7.160011e-26
7.1515023e-26
7.1472318e-26
7.1452773e-26
7.1444825e-26
7.1442184e-26
7.1442143e-26
7.1444342e-26
7.1450377e-26
7.146477e-26
7.155728e-26
7.1472318e-26
7.1429684e-26
7.1410172e-26
7.1402246e-26
7.1399635e-26
7.1399671e-26
7.1402058e-26
7.1408493e-26
7.1423518e-26
7.1537686e-26
7.1452773e-26
7.1410172e-26
7.139068e-26
7.1382768e-26
7.1380179e-26
7.1380264e-26
7.1382757e-26
7.1389378e-26
7.1404616e-26
7.1529714e-26
7.1444825e-26
7.1402246e-26
7.1382768e-26
7.1374866e-26
7.137229e-26
7.13724e-26
7.137494e-26
7.1381636e-26
7.1396945e-26
7.1527043e-26
7.1442184e-26
7.1399635e-26
7.1380179e-26
7.137229e-26
7.1369723e-26
7.1369845e-26
7.1372404e-26
7.1379127e-26
7.1394458e-26
7.1526928e-26
7.1442143e-26
7.1399671e-26
7.1380264e-26
7.13724e-26
7.1369845e-26
7.1369974e-26
7.1372541e-26
7.1379273e-26
7.1394612e-26
7.1528909e-26
7.1444342e-26
7.1402058e-26
7.1382757e-26
7.137494e-26
7.1372404e-26
7.1372541e-26
7.1375113e-26
7.138185e-26
7.1397194e-26
7.1534303e-26
7.1450377e-26
7.1408493e-26
7.1389378e-26
7.1381636e-26
7.1379127e-26
7.1379273e-26
7.138185e-26
7.1388593e-26
7.1403949e-26
7.1546727e-26
7.146477e-26
7.1423518e-26
7.1404616e-26
7.1396945e-26
7.1394458e-26
7.1394612e-26
7.1397194e-26
7.1403949e-26
7.1419347e-26
1.634385e-25
1.6325059e-25
1.6315609e-25
1.6311277e-25
1.6309512e-25
1.630892e-25
1.6308894e-25
1.6309328e-25
1.6310503e-25
1.6313186e-25
1.6325059e-25
1.6306347e-25
1.6296924e-25
1.6292602e-25
1.6290843e-25
1.6290258e-25
1.6290248e-25
1.6290731e-25
1.6292051e-25
1.6295179e-25
1.6315609e-25
1.6296924e-25
1.6287516e-25
1.6283202e-25
1.6281447e-25
1.6280869e-25
1.6280876e-25
1.6281402e-25
1.6282813e-25
1.6286083e-25
1.6311277e-25
1.6292602e-25
1.6283202e-25
1.6278892e-25
1.6277141e-25
1.6276567e-25
1.6276586e-25
1.6277135e-25
1.6278588e-25
1.6281906e-25
1.6309512e-25
1.6290843e-25
1.6281447e-25
1.6277141e-25
1.6275392e-25
1.6274821e-25
1.6274845e-25
1.6275405e-25
1.6276874e-25
1.6280209e-25
1.630892e-25
1.6290258e-25
1.6280869e-25
1.6276567e-25
1.6274821e-25
1.6274252e-25
1.6274279e-25
1.6274843e-25
1.6276319e-25
1.6279658e-25
1.6308894e-25
1.6290248e-25
1.6280876e-25
1.6276586e-25
1.6274845e-25
1.6274279e-25
1.6274307e-25
1.6274873e-25
1.6276351e-25
1.6279692e-25
1.6309328e-25
1.6290731e-25
1.6281402e-25
1.6277135e-25
1.6275405e-25
1.6274843e-25
1.6274873e-25
1.6275441e-25
1.6276919e-25
1.6280262e-25
1.6310503e-25
1.6292051e-25
1.6282813e-25
1.6278588e-25
1.6276874e-25
1.6276319e-25
1.6276351e-25
1.6276919e-25
1.6278399e-25
1.6281744e-25
1.6313186e-25
1.6295179e-25
1.6286083e-25
1.6281906e-25
1.6280209e-25
1.6279658e-25
1.6279692e-25
1.6280262e-25
1.6281744e-25
1.6285098e-25
3.7740061e-25
3.7698231e-25
3.7677124e-25
3.7667429e-25
3.7663475e-25
3.7662147e-25
3.7662085e-25
3.7663048e-25
3.7665643e-25
3.7671509e-25
3.7698231e-25
3.7656572e-25
3.7635525e-25
3.7625854e-25
3.7621912e-25
3.7620598e-25
3.7620575e-25
3.762165e-25
3.7624576e-25
3.7631459e-25
3.7677124e-25
3.7635525e-25
3.7614512e-25
3.7604857e-25
3.7600925e-25
3.7599628e-25
3.7599644e-25
3.7600815e-25
3.7603947e-25
3.7611157e-25
3.7667429e-25
3.7625854e-25
3.7604857e-25
3.7595212e-25
3.7591287e-25
3.7590001e-25
3.7590042e-25
3.7591268e-25
3.7594495e-25
3.7601815e-25
3.7663475e-25
3.7621912e-25
3.7600925e-25
3.7591287e-25
3.7587367e-25
3.7586088e-25
3.7586141e-25
3.7587392e-25
3.7590658e-25
3.7598014e-25
3.7662147e-25
3.7620598e-25
3.7599628e-25
3.7590001e-25
3.7586088e-25
3.7584813e-25
3.7584872e-25
3.7586133e-25
3.7589413e-25
3.759678e-25
3.7662085e-25
3.7620575e-25
3.7599644e-25
3.7590042e-25
3.7586141e-25
3.7584872e-25
3.7584935e-25
3.75862e-25
3.7589485e-25
3.7596856e-25
3.7663048e-25
3.762165e-25
3.7600815e-25
3.7591268e-25
3.7587392e-25
3.7586133e-25
3.75862e-25
3.7587467e-25
3.7590754e-25
3.7598128e-25
3.7665643e-25
3.7624576e-25
3.7603947e-25
3.7594495e-25
3.7590658e-25
3.7589413e-25
3.7589485e-25
3.7590754e-25
3.7594044e-25
3.7601424e-25
3.7671509e-25
3.7631459e-25
3.7611157e-25
3.7601815e-25
3.7598014e-25
3.759678e-25
3.7596856e-25
3.7598128e-25
3.7601424e-25
3.7608823e-25
8.8264639e-25
8.8170372e-25
8.8122653e-25
8.8100693e-25
8.8091725e-25
8.808871e-25
8.8088564e-25
8.8090728e-25
8.8096528e-25
8.8109515e-25
8.8170372e-25
8.8076491e-25
8.8028906e-25
8.8006997e-25
8.7998055e-25
8.7995074e-25
8.7995017e-25
8.7997439e-25
8.8004005e-25
8.8019347e-25
8.8122653e-25
8.8028906e-25
8.7981396e-25
8.7959524e-25
8.7950606e-25
8.7947662e-25
8.7947695e-25
8.7950341e-25
8.7957383e-25
8.797348e-25
8.8100693e-25
8.8006997e-25
8.7959524e-25
8.7937673e-25
8.7928772e-25
8.7925853e-25
8.7925945e-25
8.7928716e-25
8.7935979e-25
8.795233e-25
8.8091725e-25
8.7998055e-25
8.7950606e-25
8.7928772e-25
8.7919882e-25
8.7916979e-25
8.7917099e-25
8.7919928e-25
8.7927279e-25
8.7943715e-25
8.808871e-25
8.7995074e-25
8.7947662e-25
8.7925853e-25
8.7916979e-25
8.7914086e-25
8.791422e-25
8.7917071e-25
8.7924454e-25
8.7940917e-25
8.8088564e-25
8.7995017e-25
8.7947695e-25
8.7925945e-25
8.7917099e-25
8.791422e-25
8.7914363e-25
8.7917224e-25
8.7924618e-25
8.794109e-25
8.8090728e-25
8.7997439e-25
8.7950341e-25
8.7928716e-25
8.7919928e-25
8.7917071e-25
8.7917224e-25
8.792009e-25
8.792749e-25
8.7943967e-25
8.8096528e-25
8.8004005e-25
8.7957383e-25
8.7935979e-25
8.7927279e-25
8.7924454e-25
8.7924618e-25
8.792749e-25
8.7934897e-25
8.7951386e-25
8.8109515e-25
8.8019347e-25
8.797348e-25
8.795233e-25
8.7943715e-25
8.7940917e-25
8.794109e-25
8.7943967e-25
8.7951386e-25
8.7967918e-25
2.0908007e-24
2.0886503e-24
2.0875582e-24
2.0870547e-24
2.0868488e-24
2.0867796e-24
2.0867761e-24
2.0868253e-24
2.0869566e-24
2.0872478e-24
2.0886503e-24
2.0865085e-24
2.0854195e-24
2.0849171e-24
2.0847119e-24
2.0846434e-24
2.084642e-24
2.0846973e-24
2.0848465e-24
2.0851928e-24
2.0875582e-24
2.0854195e-24
2.0843322e-24
2.0838307e-24
2.0836259e-24
2.0835583e-24
2.083559e-24
2.0836195e-24
2.0837799e-24
2.0841439e-24
2.0870547e-24
2.0849171e-24
2.0838307e-24
2.0833296e-24
2.0831253e-24
2.0830583e-24
2.0830603e-24
2.0831238e-24
2.0832893e-24
2.0836593e-24
2.0868488e-24
2.0847119e-24
2.0836259e-24
2.0831253e-24
2.0829212e-24
2.0828545e-24
2.0828573e-24
2.0829221e-24
2.0830897e-24
2.0834616e-24
2.0867796e-24
2.0846434e-24
2.0835583e-24
2.0830583e-24
2.0828545e-24
2.0827881e-24
2.0827912e-24
2.0828565e-24
2.0830248e-24
2.0833974e-24
2.0867761e-24
2.084642e-24
2.083559e-24
2.0830603e-24
2.0828573e-24
2.0827912e-24
2.0827945e-24
2.08286e-24
2.0830286e-24
2.0834014e-24
2.0868253e-24
2.0846973e-24
2.0836195e-24
2.0831238e-24
2.0829221e-24
2.0828565e-24
2.08286e-24
2.0829257e-24
2.0830944e-24
2.0834673e-24
2.0869566e-24
2.0848465e-24
2.0837799e-24
2.0832893e-24
2.0830897e-24
2.0830248e-24
2.0830286e-24
2.0830944e-24
2.0832633e-24
2.0836365e-24
2.0872478e-24
2.0851928e-24
2.0841439e-24
2.0836593e-24
2.0834616e-24
2.0833974e-24
2.0834014e-24
2.0834673e-24
2.0836365e-24
2.0840106e-24
5.0162742e-24
5.0113083e-24
5.0087786e-24
5.00761e-24
5.0071316e-24
5.0069705e-24
5.0069623e-24
5.0070757e-24
5.0073766e-24
5.0080376e-24
5.0113083e-24
5.0063623e-24
5.0038395e-24
5.0026736e-24
5.0021966e-24
5.0020373e-24
5.002034e-24
5.0021618e-24
5.0025052e-24
5.003297e-24
5.0087786e-24
5.0038395e-24
5.0013207e-24
5.0001567e-24
4.999681e-24
4.9995237e-24
4.9995254e-24
4.9996655e-24
5.0000353e-24
5.0008691e-24
5.00761e-24
5.0026736e-24
5.0001567e-24
4.9989938e-24
4.998519e-24
4.9983631e-24
4.998368e-24
4.9985151e-24
4.9988972e-24
4.999745e-24
5.0071316e-24
5.0021966e-24
4.999681e-24
4.998519e-24
4.9980448e-24
4.9978898e-24
4.9978963e-24
4.9980465e-24
4.9984335e-24
4.999286e-24
5.0069705e-24
5.0020373e-24
4.9995237e-24
4.9983631e-24
4.9978898e-24
4.9977354e-24
4.9977426e-24
4.9978941e-24
4.9982828e-24
4.9991369e-24
5.0069623e-24
5.002034e-24
4.9995254e-24
4.998368e-24
4.9978963e-24
4.9977426e-24
4.9977503e-24
4.9979024e-24
4.9982917e-24
4.9991463e-24
5.0070757e-24
5.0021618e-24
4.9996655e-24
4.9985151e-24
4.9980465e-24
4.9978941e-24
4.9979024e-24
4.9980547e-24
4.9984443e-24
4.9992992e-24
5.0073766e-24
5.0025052e-24
5.0000353e-24
4.9988972e-24
4.9984335e-24
4.9982828e-24
4.9982917e-24
4.9984443e-24
4.9988343e-24
4.9996898e-24
5.0080376e-24
5.003297e-24
5.0008691e-24
4.999745e-24
4.999286e-24
4.9991369e-24
4.9991463e-24
4.9992992e-24
4.9996898e-24
5.0005474e-24
1.2189573e-23
1.2177965e-23
1.2172034e-23
1.2169289e-23
1.2168164e-23
1.2167785e-23
1.2167765e-23
1.2168029e-23
1.2168728e-23
1.2170247e-23
1.2177965e-23
1.2166403e-23
1.2160488e-23
1.2157749e-23
1.2156627e-23
1.2156253e-23
1.2156244e-23
1.2156544e-23
1.2157344e-23
1.2159178e-23
1.2172034e-23
1.2160488e-23
1.2154582e-23
1.2151847e-23
1.2150729e-23
1.2150359e-23
1.2150362e-23
1.2150691e-23
1.2151555e-23
1.2153489e-23
1.2169289e-23
1.2157749e-23
1.2151847e-23
1.2149116e-23
1.2147999e-23
1.2147632e-23
1.2147644e-23
1.2147989e-23
1.2148882e-23
1.215085e-23
1.2168164e-23
1.2156627e-23
1.2150729e-23
1.2147999e-23
1.2146884e-23
1.2146519e-23
1.2146535e-23
1.2146888e-23
1.2147792e-23
1.2149772e-23
1.2167785e-23
1.2156253e-23
1.2150359e-23
1.2147632e-23
1.2146519e-23
1.2146156e-23
1.2146173e-23
1.2146529e-23
1.2147438e-23
1.2149421e-23
1.2167765e-23
1.2156244e-23
1.2150362e-23
1.2147644e-23
1.2146535e-23
1.2146173e-23
1.2146192e-23
1.2146549e-23
1.2147459e-23
1.2149443e-23
1.2168029e-23
1.2156544e-23
1.2150691e-23
1.2147989e-23
1.2146888e-23
1.2146529e-23
1.2146549e-23
1.2146907e-23
1.2147818e-23
1.2149803e-23
1.2168728e-23
1.2157344e-23
1.2151555e-23
1.2148882e-23
1.2147792e-23
1.2147438e-23
1.2147459e-23
1.2147818e-23
1.214873e-23
1.2150716e-23
1.2170247e-23
1.2159178e-23
1.2153489e-23
1.215085e-23
1.2149772e-23
1.2149421e-23
1.2149443e-23
1.2149803e-23
1.2150716e-23
1.2152707e-23
3.0000243e-23
2.9972778e-23
2.9958702e-23
2.9952176e-23
2.9949498e-23
2.9948595e-23
2.9948547e-23
2.9949172e-23
2.9950814e-23
2.9954351e-23
2.9972778e-23
2.9945422e-23
2.9931383e-23
2.9924871e-23
2.9922201e-23
2.9921308e-23
2.9921289e-23
2.9921998e-23
2.9923887e-23
2.9928187e-23
2.9958702e-23
2.9931383e-23
2.9917366e-23
2.9910865e-23
2.9908202e-23
2.9907321e-23
2.990733e-23
2.9908111e-23
2.9910154e-23
2.9914699e-23
2.9952176e-23
2.9924871e-23
2.9910865e-23
2.990437e-23
2.9901712e-23
2.9900839e-23
2.9900867e-23
2.9901688e-23
2.9903803e-23
2.9908429e-23
2.9949498e-23
2.9922201e-23
2.9908202e-23
2.9901712e-23
2.9899058e-23
2.9898189e-23
2.9898227e-23
2.9899067e-23
2.9901209e-23
2.9905864e-23
2.9948595e-23
2.9921308e-23
2.9907321e-23
2.9900839e-23
2.9898189e-23
2.9897325e-23
2.9897366e-23
2.9898214e-23
2.9900367e-23
2.9905029e-23
2.9948547e-23
2.9921289e-23
2.990733e-23
2.9900867e-23
2.9898227e-23
2.9897366e-23
2.9897411e-23
2.9898261e-23
2.9900418e-23
2.9905083e-23
2.9949172e-23
2.9921998e-23
2.9908111e-23
2.9901688e-23
2.9899067e-23
2.9898214e-23
2.9898261e-23
2.9899113e-23
2.9901271e-23
2.9905939e-23
2.9950814e-23
2.9923887e-23
2.9910154e-23
2.9903803e-23
2.9901209e-23
2.9900367e-23
2.9900418e-23
2.9901271e-23
2.9903431e-23
2.9908102e-23
2.9954351e-23
2.9928187e-23
2.9914699e-23
2.9908429e-23
2.9905864e-23
2.9905029e-23
2.9905083e-23
2.9905939e-23
2.9908102e-23
2.9912784e-23
7.4778166e-23
7.4712395e-23
7.4678587e-23
7.4662883e-23
7.4656433e-23
7.4654256e-23
7.4654138e-23
7.4655635e-23
7.4659543e-23
7.4667878e-23
7.4712395e-23
7.464688e-23
7.4613161e-23
7.4597491e-23
7.459106e-23
7.4588908e-23
7.458886e-23
7.4590562e-23
7.4595079e-23
7.4605292e-23
7.4678587e-23
7.4613161e-23
7.4579492e-23
7.4563848e-23
7.4557433e-23
7.455531e-23
7.4555333e-23
7.4557213e-23
7.4562107e-23
7.4572922e-23
7.4662883e-23
7.4597491e-23
7.4563848e-23
7.4548219e-23
7.4541817e-23
7.4539714e-23
7.4539783e-23
7.4541761e-23
7.454683e-23
7.4557847e-23
7.4656433e-23
7.459106e-23
7.4557433e-23
7.4541817e-23
7.4535424e-23
7.4533332e-23
7.4533424e-23
7.4535448e-23
7.4540587e-23
7.4551671e-23
7.4654256e-23
7.4588908e-23
7.455531e-23
7.4539714e-23
7.4533332e-23
7.4531249e-23
7.4531352e-23
7.4533393e-23
7.4538557e-23
7.4549663e-23
7.4654138e-23
7.458886e-23
7.4555333e-23
7.4539783e-23
7.4533424e-23
7.4531352e-23
7.4531461e-23
7.453351e-23
7.4538683e-23
7.4549795e-23
7.4655635e-23
7.4590562e-23
7.4557213e-23
7.4541761e-23
7.4535448e-23
7.4533393e-23
7.453351e-23
7.4535563e-23
7.454074e-23
7.4551856e-23
7.4659543e-23
7.4595079e-23
7.4562107e-23
7.454683e-23
7.4540587e-23
7.4538557e-23
7.4538683e-23
7.454074e-23
7.4545922e-23
7.4557046e-23
7.4667878e-23
7.4605292e-23
7.4572922e-23
7.4557847e-23
7.4551671e-23
7.4549663e-23
7.4549795e-23
7.4551856e-23
7.4557046e-23
7.4568196e-23
1.8876316e-22
1.8860375e-22
1.8852158e-22
1.8848334e-22
1.8846762e-22
1.8846231e-22
1.8846201e-22
1.8846564e-22
1.8847506e-22
1.8849495e-22
1.8860375e-22
1.8844496e-22
1.88363e-22
1.8832484e-22
1.8830917e-22
1.8830392e-22
1.883038e-22
1.8830794e-22
1.8831887e-22
1.8834344e-22
1.8852158e-22
1.88363e-22
1.8828116e-22
1.8824306e-22
1.8822743e-22
1.8822225e-22
1.8822231e-22
1.8822689e-22
1.8823876e-22
1.8826482e-22
1.8848334e-22
1.8832484e-22
1.8824306e-22
1.8820501e-22
1.881894e-22
1.8818427e-22
1.8818444e-22
1.8818927e-22
1.8820158e-22
1.8822814e-22
1.8846762e-22
1.8830917e-22
1.8822743e-22
1.881894e-22
1.8817382e-22
1.8816872e-22
1.8816895e-22
1.8817388e-22
1.8818636e-22
1.882131e-22
1.8846231e-22
1.8830392e-22
1.8822225e-22
1.8818427e-22
1.8816872e-22
1.8816364e-22
1.881639e-22
1.8816888e-22
1.8818142e-22
1.8820821e-22
1.8846201e-22
1.883038e-22
1.8822231e-22
1.8818444e-22
1.8816895e-22
1.881639e-22
1.8816417e-22
1.8816917e-22
1.8818173e-22
1.8820854e-22
1.8846564e-22
1.8830794e-22
1.8822689e-22
1.8818927e-22
1.8817388e-22
1.8816888e-22
1.8816917e-22
1.8817418e-22
1.8818675e-22
1.8821357e-22
1.8847506e-22
1.8831887e-22
1.8823876e-22
1.8820158e-22
1.8818636e-22
1.8818142e-22
1.8818173e-22
1.8818675e-22
1.8819934e-22
1.8822617e-22
1.8849495e-22
1.8834344e-22
1.8826482e-22
1.8822814e-22
1.882131e-22
1.8820821e-22