/*--------------------------------*- C++ -*----------------------------------*\
| =========                 |                                                 |
| \\      /  F ield         | OpenFOAM: The Open Source CFD Toolbox           |
|  \\    /   O peration     | Version:  dev                                   |
|   \\  /    A nd           | Web:      www.OpenFOAM.org                      |
|    \\/     M anipulation  |                                                 |
\*---------------------------------------------------------------------------*/
FoamFile
{
    version     2.0;
    format      ascii;
    class       volScalarField;
    location    "85.995";
    object      A;
}
// * * * * * * * * * * * * * * * * * * * * * * * * * * * * * * * * * * * * * //

dimensions      [0 0 0 0 1 0 0];

internalField   nonuniform List<scalar> 
10000
(
3.3038446e-23
3.300599e-23
3.2988207e-23
3.2978101e-23
3.2972631e-23
3.2970064e-23
3.2969485e-23
3.2970662e-23
3.2974107e-23
3.2980943e-23
3.300599e-23
3.2973661e-23
3.2955922e-23
3.2945837e-23
3.2940383e-23
3.2937835e-23
3.2937291e-23
3.2938547e-23
3.2942194e-23
3.2949607e-23
3.2988207e-23
3.2955922e-23
3.2938212e-23
3.2928146e-23
3.2922709e-23
3.2920185e-23
3.2919684e-23
3.292102e-23
3.2924808e-23
3.2932421e-23
3.2978101e-23
3.2945837e-23
3.2928146e-23
3.2918096e-23
3.2912676e-23
3.2910175e-23
3.290971e-23
3.2911101e-23
3.2914968e-23
3.2922659e-23
3.2972631e-23
3.2940383e-23
3.2922709e-23
3.2912676e-23
3.2907274e-23
3.2904792e-23
3.2904351e-23
3.2905778e-23
3.2909686e-23
3.2917409e-23
3.2970064e-23
3.2937835e-23
3.2920185e-23
3.2910175e-23
3.2904792e-23
3.2902327e-23
3.2901905e-23
3.2903352e-23
3.2907281e-23
3.2915019e-23
3.2969485e-23
3.2937291e-23
3.2919684e-23
3.290971e-23
3.2904351e-23
3.2901905e-23
3.2901497e-23
3.2902957e-23
3.2906898e-23
3.2914643e-23
3.2970662e-23
3.2938547e-23
3.292102e-23
3.2911101e-23
3.2905778e-23
3.2903352e-23
3.2902957e-23
3.2904427e-23
3.2908375e-23
3.2916126e-23
3.2974107e-23
3.2942194e-23
3.2924808e-23
3.2914968e-23
3.2909686e-23
3.2907281e-23
3.2906898e-23
3.2908375e-23
3.2912331e-23
3.292009e-23
3.2980943e-23
3.2949607e-23
3.2932421e-23
3.2922659e-23
3.2917409e-23
3.2915019e-23
3.2914643e-23
3.2916126e-23
3.292009e-23
3.292787e-23
1.0914699e-22
1.0904392e-22
1.0898579e-22
1.0895268e-22
1.0893474e-22
1.0892632e-22
1.0892441e-22
1.0892825e-22
1.0893953e-22
1.089627e-22
1.0904392e-22
1.0894125e-22
1.0888326e-22
1.0885021e-22
1.0883233e-22
1.0882397e-22
1.0882218e-22
1.0882628e-22
1.0883822e-22
1.0886331e-22
1.0898579e-22
1.0888326e-22
1.0882537e-22
1.0879238e-22
1.0877455e-22
1.0876627e-22
1.0876462e-22
1.0876898e-22
1.0878139e-22
1.0880714e-22
1.0895268e-22
1.0885021e-22
1.0879238e-22
1.0875945e-22
1.0874168e-22
1.0873347e-22
1.0873194e-22
1.0873648e-22
1.0874915e-22
1.0877516e-22
1.0893474e-22
1.0883233e-22
1.0877455e-22
1.0874168e-22
1.0872396e-22
1.0871582e-22
1.0871437e-22
1.0871903e-22
1.0873183e-22
1.0875795e-22
1.0892632e-22
1.0882397e-22
1.0876627e-22
1.0873347e-22
1.0871582e-22
1.0870773e-22
1.0870634e-22
1.0871107e-22
1.0872395e-22
1.087501e-22
1.0892441e-22
1.0882218e-22
1.0876462e-22
1.0873194e-22
1.0871437e-22
1.0870634e-22
1.08705e-22
1.0870977e-22
1.0872268e-22
1.0874887e-22
1.0892825e-22
1.0882628e-22
1.0876898e-22
1.0873648e-22
1.0871903e-22
1.0871107e-22
1.0870977e-22
1.0871458e-22
1.0872751e-22
1.0875371e-22
1.0893953e-22
1.0883822e-22
1.0878139e-22
1.0874915e-22
1.0873183e-22
1.0872395e-22
1.0872268e-22
1.0872751e-22
1.0874047e-22
1.087667e-22
1.089627e-22
1.0886331e-22
1.0880714e-22
1.0877516e-22
1.0875795e-22
1.087501e-22
1.0874887e-22
1.0875371e-22
1.087667e-22
1.0879301e-22
2.1907146e-22
2.1887148e-22
2.1875694e-22
2.1869148e-22
2.1865599e-22
2.186393e-22
2.1863549e-22
2.1864302e-22
2.1866521e-22
2.187123e-22
2.1887148e-22
2.1867224e-22
2.1855797e-22
2.1849265e-22
2.1845726e-22
2.1844069e-22
2.1843711e-22
2.1844516e-22
2.1846869e-22
2.1851962e-22
2.1875694e-22
2.1855797e-22
2.1844389e-22
2.1837869e-22
2.1834341e-22
2.18327e-22
2.1832371e-22
2.1833228e-22
2.1835674e-22
2.1840899e-22
2.1869148e-22
2.1849265e-22
2.1837869e-22
2.1831361e-22
2.1827843e-22
2.1826217e-22
2.1825911e-22
2.1826806e-22
2.1829304e-22
2.1834579e-22
2.1865599e-22
2.1845726e-22
2.1834341e-22
2.1827843e-22
2.1824337e-22
2.1822724e-22
2.1822434e-22
2.1823352e-22
2.1825876e-22
2.1831173e-22
2.186393e-22
2.1844069e-22
2.18327e-22
2.1826217e-22
2.1822724e-22
2.1821122e-22
2.1820844e-22
2.1821775e-22
2.1824314e-22
2.182962e-22
2.1863549e-22
2.1843711e-22
2.1832371e-22
2.1825911e-22
2.1822434e-22
2.1820844e-22
2.1820576e-22
2.1821516e-22
2.1824062e-22
2.1829373e-22
2.1864302e-22
2.1844516e-22
2.1833228e-22
2.1826806e-22
2.1823352e-22
2.1821775e-22
2.1821516e-22
2.1822462e-22
2.1825013e-22
2.1830327e-22
2.1866521e-22
2.1846869e-22
2.1835674e-22
2.1829304e-22
2.1825876e-22
2.1824314e-22
2.1824062e-22
2.1825013e-22
2.1827569e-22
2.1832888e-22
2.187123e-22
2.1851962e-22
2.1840899e-22
2.1834579e-22
2.1831173e-22
2.182962e-22
2.1829373e-22
2.1830327e-22
2.1832888e-22
2.1838224e-22
3.9848306e-22
3.9813126e-22
3.9792782e-22
3.9781118e-22
3.9774782e-22
3.9771798e-22
3.9771112e-22
3.9772438e-22
3.9776358e-22
3.9784769e-22
3.9813126e-22
3.9778075e-22
3.975778e-22
3.974614e-22
3.9739821e-22
3.9736859e-22
3.9736214e-22
3.9737635e-22
3.9741797e-22
3.9750904e-22
3.9792782e-22
3.975778e-22
3.9737516e-22
3.9725898e-22
3.9719599e-22
3.9716667e-22
3.9716072e-22
3.9717588e-22
3.9721918e-22
3.9731264e-22
3.9781118e-22
3.974614e-22
3.9725898e-22
3.9714299e-22
3.970802e-22
3.9705114e-22
3.9704562e-22
3.9706145e-22
3.9710568e-22
3.9720006e-22
3.9774782e-22
3.9739821e-22
3.9719599e-22
3.970802e-22
3.9701761e-22
3.9698878e-22
3.9698357e-22
3.969998e-22
3.9704453e-22
3.9713929e-22
3.9771798e-22
3.9736859e-22
3.9716667e-22
3.9705114e-22
3.9698878e-22
3.9696016e-22
3.9695515e-22
3.9697164e-22
3.9701661e-22
3.9711154e-22
3.9771112e-22
3.9736214e-22
3.9716072e-22
3.9704562e-22
3.9698357e-22
3.9695515e-22
3.9695032e-22
3.9696696e-22
3.9701207e-22
3.9710709e-22
3.9772438e-22
3.9737635e-22
3.9717588e-22
3.9706145e-22
3.969998e-22
3.9697164e-22
3.9696696e-22
3.9698371e-22
3.970289e-22
3.9712399e-22
3.9776358e-22
3.9741797e-22
3.9721918e-22
3.9710568e-22
3.9704453e-22
3.9701661e-22
3.9701207e-22
3.970289e-22
3.9707419e-22
3.9716937e-22
3.9784769e-22
3.9750904e-22
3.9731264e-22
3.9720006e-22
3.9713929e-22
3.9711154e-22
3.9710709e-22
3.9712399e-22
3.9716937e-22
3.9726484e-22
7.084665e-22
7.0786178e-22
7.0750971e-22
7.0730721e-22
7.0719699e-22
7.0714501e-22
7.0713293e-22
7.0715565e-22
7.0722285e-22
7.0736715e-22
7.0786178e-22
7.0725927e-22
7.0690803e-22
7.0670593e-22
7.0659601e-22
7.0654442e-22
7.0653307e-22
7.0655746e-22
7.0662894e-22
7.0678556e-22
7.0750971e-22
7.0690803e-22
7.0655733e-22
7.0635562e-22
7.0624606e-22
7.0619496e-22
7.0618451e-22
7.0621057e-22
7.0628502e-22
7.0644586e-22
7.0730721e-22
7.0670593e-22
7.0635562e-22
7.0615423e-22
7.0604502e-22
7.059944e-22
7.0598469e-22
7.0601193e-22
7.0608803e-22
7.062505e-22
7.0719699e-22
7.0659601e-22
7.0624606e-22
7.0604502e-22
7.0593616e-22
7.0588594e-22
7.0587676e-22
7.0590472e-22
7.0598169e-22
7.0614484e-22
7.0714501e-22
7.0654442e-22
7.0619496e-22
7.059944e-22
7.0588594e-22
7.0583608e-22
7.0582728e-22
7.0585567e-22
7.0593308e-22
7.0609654e-22
7.0713293e-22
7.0653307e-22
7.0618451e-22
7.0598469e-22
7.0587676e-22
7.0582728e-22
7.0581877e-22
7.0584744e-22
7.0592509e-22
7.060887e-22
7.0715565e-22
7.0655746e-22
7.0621057e-22
7.0601193e-22
7.0590472e-22
7.0585567e-22
7.0584744e-22
7.0587631e-22
7.0595411e-22
7.0611783e-22
7.0722285e-22
7.0662894e-22
7.0628502e-22
7.0608803e-22
7.0598169e-22
7.0593308e-22
7.0592509e-22
7.0595411e-22
7.0603207e-22
7.0619595e-22
7.0736715e-22
7.0678556e-22
7.0644586e-22
7.062505e-22
7.0614484e-22
7.0609654e-22
7.060887e-22
7.0611783e-22
7.0619595e-22
7.0636033e-22
1.2586559e-21
1.2576177e-21
1.2570099e-21
1.2566592e-21
1.256468e-21
1.2563777e-21
1.2563564e-21
1.2563952e-21
1.2565099e-21
1.2567551e-21
1.2576177e-21
1.2565832e-21
1.2559768e-21
1.2556268e-21
1.2554361e-21
1.2553464e-21
1.2553265e-21
1.2553682e-21
1.2554905e-21
1.2557574e-21
1.2570099e-21
1.2559768e-21
1.2553714e-21
1.2550221e-21
1.254832e-21
1.2547432e-21
1.2547248e-21
1.2547695e-21
1.254897e-21
1.2551714e-21
1.2566592e-21
1.2556268e-21
1.2550221e-21
1.2546733e-21
1.2544839e-21
1.2543959e-21
1.2543788e-21
1.2544256e-21
1.254556e-21
1.2548333e-21
1.256468e-21
1.2554361e-21
1.254832e-21
1.2544839e-21
1.254295e-21
1.2542077e-21
1.2541916e-21
1.2542396e-21
1.2543715e-21
1.25465e-21
1.2563777e-21
1.2553464e-21
1.2547432e-21
1.2543959e-21
1.2542077e-21
1.2541211e-21
1.2541057e-21
1.2541544e-21
1.2542871e-21
1.2545661e-21
1.2563564e-21
1.2553265e-21
1.2547248e-21
1.2543788e-21
1.2541916e-21
1.2541057e-21
1.2540907e-21
1.25414e-21
1.2542731e-21
1.2545524e-21
1.2563952e-21
1.2553682e-21
1.2547695e-21
1.2544256e-21
1.2542396e-21
1.2541544e-21
1.25414e-21
1.2541896e-21
1.254323e-21
1.2546024e-21
1.2565099e-21
1.2554905e-21
1.254897e-21
1.254556e-21
1.2543715e-21
1.2542871e-21
1.2542731e-21
1.254323e-21
1.2544566e-21
1.2547364e-21
1.2567551e-21
1.2557574e-21
1.2551714e-21
1.2548333e-21
1.25465e-21
1.2545661e-21
1.2545524e-21
1.2546024e-21
1.2547364e-21
1.255017e-21
2.2504493e-21
2.248656e-21
2.2476012e-21
2.2469907e-21
2.2466572e-21
2.2464993e-21
2.2464618e-21
2.2465283e-21
2.2467249e-21
2.2471424e-21
2.248656e-21
2.2468691e-21
2.2458167e-21
2.2452075e-21
2.2448748e-21
2.2447181e-21
2.2446829e-21
2.2447546e-21
2.2449646e-21
2.2454209e-21
2.2476012e-21
2.2458167e-21
2.244766e-21
2.2441579e-21
2.2438263e-21
2.2436712e-21
2.2436388e-21
2.2437157e-21
2.2439349e-21
2.2444044e-21
2.2469907e-21
2.2452075e-21
2.2441579e-21
2.2435508e-21
2.2432203e-21
2.2430666e-21
2.2430365e-21
2.2431171e-21
2.2433415e-21
2.2438161e-21
2.2466572e-21
2.2448748e-21
2.2438263e-21
2.2432203e-21
2.2428908e-21
2.2427384e-21
2.24271e-21
2.2427928e-21
2.2430199e-21
2.2434967e-21
2.2464993e-21
2.2447181e-21
2.2436712e-21
2.2430666e-21
2.2427384e-21
2.2425871e-21
2.2425599e-21
2.2426441e-21
2.2428726e-21
2.2433502e-21
2.2464618e-21
2.2446829e-21
2.2436388e-21
2.2430365e-21
2.24271e-21
2.2425599e-21
2.2425336e-21
2.2426186e-21
2.2428478e-21
2.243326e-21
2.2465283e-21
2.2447546e-21
2.2437157e-21
2.2431171e-21
2.2427928e-21
2.2426441e-21
2.2426186e-21
2.2427042e-21
2.2429339e-21
2.2434124e-21
2.2467249e-21
2.2449646e-21
2.2439349e-21
2.2433415e-21
2.2430199e-21
2.2428726e-21
2.2428478e-21
2.2429339e-21
2.2431641e-21
2.2436431e-21
2.2471424e-21
2.2454209e-21
2.2444044e-21
2.2438161e-21
2.2434967e-21
2.2433502e-21
2.243326e-21
2.2434124e-21
2.2436431e-21
2.2441235e-21
4.0591055e-21
4.0559822e-21
4.0541367e-21
4.0530655e-21
4.052479e-21
4.052201e-21
4.0521344e-21
4.0522492e-21
4.0525887e-21
4.0533046e-21
4.0559822e-21
4.05287e-21
4.0510287e-21
4.0499596e-21
4.0493747e-21
4.0490987e-21
4.0490362e-21
4.0491603e-21
4.0495238e-21
4.0503091e-21
4.0541367e-21
4.0510287e-21
4.0491903e-21
4.0481231e-21
4.0475401e-21
4.047267e-21
4.0472094e-21
4.0473429e-21
4.0477229e-21
4.048532e-21
4.0530655e-21
4.0499596e-21
4.0481231e-21
4.0470578e-21
4.0464767e-21
4.0462061e-21
4.0461526e-21
4.0462927e-21
4.046682e-21
4.0475001e-21
4.052479e-21
4.0493747e-21
4.0475401e-21
4.0464767e-21
4.0458975e-21
4.0456292e-21
4.0455787e-21
4.0457228e-21
4.0461169e-21
4.0469388e-21
4.052201e-21
4.0490987e-21
4.047267e-21
4.0462061e-21
4.0456292e-21
4.0453628e-21
4.0453144e-21
4.0454609e-21
4.0458575e-21
4.0466811e-21
4.0521344e-21
4.0490362e-21
4.0472094e-21
4.0461526e-21
4.0455787e-21
4.0453144e-21
4.0452677e-21
4.0454157e-21
4.0458136e-21
4.046638e-21
4.0522492e-21
4.0491603e-21
4.0473429e-21
4.0462927e-21
4.0457228e-21
4.0454609e-21
4.0454157e-21
4.0455648e-21
4.0459635e-21
4.0467886e-21
4.0525887e-21
4.0495238e-21
4.0477229e-21
4.046682e-21
4.0461169e-21
4.0458575e-21
4.0458136e-21
4.0459635e-21
4.046363e-21
4.0471889e-21
4.0533046e-21
4.0503091e-21
4.048532e-21
4.0475001e-21
4.0469388e-21
4.0466811e-21
4.046638e-21
4.0467886e-21
4.0471889e-21
4.0480173e-21
7.3915689e-21
7.3860793e-21
7.3828213e-21
7.3809246e-21
7.3798842e-21
7.3793902e-21
7.3792706e-21
7.3794709e-21
7.3800624e-21
7.3813004e-21
7.3860793e-21
7.3806091e-21
7.3773585e-21
7.3754654e-21
7.3744278e-21
7.3739375e-21
7.3738252e-21
7.3740424e-21
7.3746772e-21
7.3760408e-21
7.3828213e-21
7.3773585e-21
7.3741128e-21
7.3722232e-21
7.3711891e-21
7.3707037e-21
7.3706004e-21
7.3708344e-21
7.3714992e-21
7.3729056e-21
7.3809246e-21
7.3754654e-21
7.3722232e-21
7.3703369e-21
7.3693061e-21
7.3688255e-21
7.3687296e-21
7.3689754e-21
7.3696569e-21
7.3710797e-21
7.3798842e-21
7.3744278e-21
7.3711891e-21
7.3693061e-21
7.3682788e-21
7.3678021e-21
7.3677116e-21
7.3679646e-21
7.3686547e-21
7.3700845e-21
7.3793902e-21
7.3739375e-21
7.3707037e-21
7.3688255e-21
7.3678021e-21
7.3673291e-21
7.3672423e-21
7.3674997e-21
7.3681942e-21
7.369627e-21
7.3792706e-21
7.3738252e-21
7.3706004e-21
7.3687296e-21
7.3677116e-21
7.3672423e-21
7.3671585e-21
7.3674186e-21
7.3681155e-21
7.3695499e-21
7.3794709e-21
7.3740424e-21
7.3708344e-21
7.3689754e-21
7.3679646e-21
7.3674997e-21
7.3674186e-21
7.3676806e-21
7.3683791e-21
7.3698144e-21
7.3800624e-21
7.3746772e-21
7.3714992e-21
7.3696569e-21
7.3686547e-21
7.3681942e-21
7.3681155e-21
7.3683791e-21
7.3690789e-21
7.3705157e-21
7.3813004e-21
7.3760408e-21
7.3729056e-21
7.3710797e-21
7.3700845e-21
7.369627e-21
7.3695499e-21
7.3698144e-21
7.3705157e-21
7.3719567e-21
1.3592942e-20
1.3583203e-20
1.3577397e-20
1.3574008e-20
1.3572145e-20
1.3571259e-20
1.3571042e-20
1.3571395e-20
1.3572435e-20
1.3574596e-20
1.3583203e-20
1.3573497e-20
1.3567704e-20
1.3564321e-20
1.3562463e-20
1.3561584e-20
1.3561381e-20
1.3561764e-20
1.3562884e-20
1.3565274e-20
1.3577397e-20
1.3567704e-20
1.3561921e-20
1.3558544e-20
1.3556692e-20
1.3555822e-20
1.3555635e-20
1.3556049e-20
1.3557223e-20
1.3559691e-20
1.3574008e-20
1.3564321e-20
1.3558544e-20
1.3555173e-20
1.3553327e-20
1.3552466e-20
1.3552292e-20
1.3552728e-20
1.3553932e-20
1.355643e-20
1.3572145e-20
1.3562463e-20
1.3556692e-20
1.3553327e-20
1.3551488e-20
1.3550633e-20
1.355047e-20
1.3550918e-20
1.3552138e-20
1.3554649e-20
1.3571259e-20
1.3561584e-20
1.3555822e-20
1.3552466e-20
1.3550633e-20
1.3549785e-20
1.3549629e-20
1.3550085e-20
1.3551313e-20
1.355383e-20
1.3571042e-20
1.3561381e-20
1.3555635e-20
1.3552292e-20
1.355047e-20
1.3549629e-20
1.3549477e-20
1.3549939e-20
1.3551171e-20
1.355369e-20
1.3571395e-20
1.3561764e-20
1.3556049e-20
1.3552728e-20
1.3550918e-20
1.3550085e-20
1.3549939e-20
1.3550404e-20
1.3551639e-20
1.355416e-20
1.3572435e-20
1.3562884e-20
1.3557223e-20
1.3553932e-20
1.3552138e-20
1.3551313e-20
1.3551171e-20
1.3551639e-20
1.3552877e-20
1.35554e-20
1.3574596e-20
1.3565274e-20
1.3559691e-20
1.355643e-20
1.3554649e-20
1.355383e-20
1.355369e-20
1.355416e-20
1.35554e-20
1.3557931e-20
2.5247275e-20
2.522983e-20
2.5219387e-20
2.5213272e-20
2.5209905e-20
2.5208301e-20
2.5207906e-20
2.5208533e-20
2.5210381e-20
2.5214189e-20
2.522983e-20
2.5212446e-20
2.5202025e-20
2.5195922e-20
2.5192564e-20
2.5190973e-20
2.5190602e-20
2.5191285e-20
2.5193278e-20
2.5197508e-20
2.5219387e-20
2.5202025e-20
2.5191621e-20
2.5185529e-20
2.5182182e-20
2.5180607e-20
2.5180266e-20
2.5181006e-20
2.5183099e-20
2.5187473e-20
2.5213272e-20
2.5195922e-20
2.5185529e-20
2.5179447e-20
2.5176112e-20
2.5174552e-20
2.5174236e-20
2.5175015e-20
2.5177165e-20
2.5181593e-20
2.5209905e-20
2.5192564e-20
2.5182182e-20
2.5176112e-20
2.5172788e-20
2.5171241e-20
2.5170943e-20
2.5171746e-20
2.5173925e-20
2.5178377e-20
2.5208301e-20
2.5190973e-20
2.5180607e-20
2.5174552e-20
2.5171241e-20
2.5169707e-20
2.5169421e-20
2.5170239e-20
2.5172432e-20
2.5176894e-20
2.5207906e-20
2.5190602e-20
2.5180266e-20
2.5174236e-20
2.5170943e-20
2.5169421e-20
2.5169146e-20
2.5169972e-20
2.5172174e-20
2.5176641e-20
2.5208533e-20
2.5191285e-20
2.5181006e-20
2.5175015e-20
2.5171746e-20
2.5170239e-20
2.5169972e-20
2.5170806e-20
2.5173012e-20
2.5177482e-20
2.5210381e-20
2.5193278e-20
2.5183099e-20
2.5177165e-20
2.5173925e-20
2.5172432e-20
2.5172174e-20
2.5173012e-20
2.5175222e-20
2.5179697e-20
2.5214189e-20
2.5197508e-20
2.5187473e-20
2.5181593e-20
2.5178377e-20
2.5176894e-20
2.5176641e-20
2.5177482e-20
2.5179697e-20
2.5184185e-20
4.7366277e-20
4.7334729e-20
4.7315764e-20
4.7304627e-20
4.7298484e-20
4.7295553e-20
4.7294825e-20
4.7295951e-20
4.7299265e-20
4.730604e-20
4.7334729e-20
4.7303291e-20
4.7284366e-20
4.7273251e-20
4.7267124e-20
4.7264216e-20
4.7263533e-20
4.7264764e-20
4.7268348e-20
4.7275908e-20
4.7315764e-20
4.7284366e-20
4.726547e-20
4.7254375e-20
4.7248269e-20
4.7245391e-20
4.7244764e-20
4.7246099e-20
4.7249869e-20
4.7257696e-20
4.7304627e-20
4.7273251e-20
4.7254375e-20
4.7243299e-20
4.7237214e-20
4.7234365e-20
4.7233784e-20
4.7235191e-20
4.7239066e-20
4.7246995e-20
4.7298484e-20
4.7267124e-20
4.7248269e-20
4.7237214e-20
4.7231149e-20
4.7228325e-20
4.7227777e-20
4.7229229e-20
4.7233157e-20
4.724113e-20
4.7295553e-20
4.7264216e-20
4.7245391e-20
4.7234365e-20
4.7228325e-20
4.7225523e-20
4.7224998e-20
4.7226477e-20
4.7230433e-20
4.7238424e-20
4.7294825e-20
4.7263533e-20
4.7244764e-20
4.7233784e-20
4.7227777e-20
4.7224998e-20
4.7224491e-20
4.7225988e-20
4.7229958e-20
4.7237958e-20
4.7295951e-20
4.7264764e-20
4.7246099e-20
4.7235191e-20
4.7229229e-20
4.7226477e-20
4.7225988e-20
4.7227496e-20
4.7231475e-20
4.7239482e-20
4.7299265e-20
4.7268348e-20
4.7249869e-20
4.7239066e-20
4.7233157e-20
4.7230433e-20
4.7229958e-20
4.7231475e-20
4.7235462e-20
4.7243477e-20
4.730604e-20
4.7275908e-20
4.7257696e-20
4.7246995e-20
4.724113e-20
4.7238424e-20
4.7237958e-20
4.7239482e-20
4.7243477e-20
4.7251515e-20
8.9763058e-20
8.9705457e-20
8.9670683e-20
8.9650208e-20
8.9638893e-20
8.9633486e-20
8.9632134e-20
8.9634175e-20
8.9640177e-20
8.9652349e-20
8.9705457e-20
8.9648054e-20
8.9613355e-20
8.9592917e-20
8.9581632e-20
8.9576268e-20
8.9575e-20
8.9577238e-20
8.9583747e-20
8.9597392e-20
8.9670683e-20
8.9613355e-20
8.9578708e-20
8.9558308e-20
8.9547061e-20
8.9541754e-20
8.954059e-20
8.9543022e-20
8.9549881e-20
8.9564028e-20
8.9650208e-20
8.9592917e-20
8.9558308e-20
8.9537944e-20
8.9526736e-20
8.9521482e-20
8.9520404e-20
8.9522974e-20
8.9530026e-20
8.9544365e-20
8.9638893e-20
8.9581632e-20
8.9547061e-20
8.9526736e-20
8.9515566e-20
8.9510359e-20
8.9509342e-20
8.9511996e-20
8.9519149e-20
8.9533568e-20
8.9633486e-20
8.9576268e-20
8.9541754e-20
8.9521482e-20
8.9510359e-20
8.9505193e-20
8.9504219e-20
8.9506924e-20
8.9514128e-20
8.9528583e-20
8.9632134e-20
8.9575e-20
8.954059e-20
8.9520404e-20
8.9509342e-20
8.9504219e-20
8.9503281e-20
8.9506016e-20
8.9513248e-20
8.9527721e-20
8.9634175e-20
8.9577238e-20
8.9543022e-20
8.9522974e-20
8.9511996e-20
8.9506924e-20
8.9506016e-20
8.9508774e-20
8.9516023e-20
8.9530507e-20
8.9640177e-20
8.9583747e-20
8.9549881e-20
8.9530026e-20
8.9519149e-20
8.9514128e-20
8.9513248e-20
8.9516023e-20
8.9523286e-20
8.9537786e-20
8.9652349e-20
8.9597392e-20
8.9564028e-20
8.9544365e-20
8.9533568e-20
8.9528583e-20
8.9527721e-20
8.9530507e-20
8.9537786e-20
8.9552325e-20
1.7183611e-19
1.7172993e-19
1.7166556e-19
1.7162755e-19
1.7160651e-19
1.7159644e-19
1.715939e-19
1.7159764e-19
1.7160862e-19
1.716307e-19
1.7172993e-19
1.716241e-19
1.7155987e-19
1.7152193e-19
1.7150095e-19
1.7149096e-19
1.7148858e-19
1.7149269e-19
1.7150463e-19
1.7152951e-19
1.7166556e-19
1.7155987e-19
1.7149573e-19
1.7145786e-19
1.7143695e-19
1.7142707e-19
1.7142489e-19
1.7142937e-19
1.7144197e-19
1.7146779e-19
1.7162755e-19
1.7152193e-19
1.7145786e-19
1.7142006e-19
1.7139922e-19
1.7138944e-19
1.7138742e-19
1.7139216e-19
1.7140513e-19
1.7143132e-19
1.7160651e-19
1.7150095e-19
1.7143695e-19
1.7139922e-19
1.7137845e-19
1.7136876e-19
1.7136686e-19
1.7137176e-19
1.7138492e-19
1.7141126e-19
1.7159644e-19
1.7149096e-19
1.7142707e-19
1.7138944e-19
1.7136876e-19
1.7135915e-19
1.7135733e-19
1.7136232e-19
1.7137557e-19
1.7140198e-19
1.715939e-19
1.7148858e-19
1.7142489e-19
1.7138742e-19
1.7136686e-19
1.7135733e-19
1.7135557e-19
1.7136062e-19
1.7137393e-19
1.7140037e-19
1.7159764e-19
1.7149269e-19
1.7142937e-19
1.7139216e-19
1.7137176e-19
1.7136232e-19
1.7136062e-19
1.7136572e-19
1.7137906e-19
1.7140552e-19
1.7160862e-19
1.7150463e-19
1.7144197e-19
1.7140513e-19
1.7138492e-19
1.7137557e-19
1.7137393e-19
1.7137906e-19
1.7139242e-19
1.7141891e-19
1.716307e-19
1.7152951e-19
1.7146779e-19
1.7143132e-19
1.7141126e-19
1.7140198e-19
1.7140037e-19
1.7140552e-19
1.7141891e-19
1.7144548e-19
3.3229996e-19
3.3210231e-19
3.3198201e-19
3.3191079e-19
3.3187129e-19
3.3185236e-19
3.3184756e-19
3.3185448e-19
3.3187476e-19
3.3191522e-19
3.3210231e-19
3.3190534e-19
3.3178528e-19
3.3171419e-19
3.3167479e-19
3.3165602e-19
3.3165153e-19
3.3165916e-19
3.3168127e-19
3.3172708e-19
3.3198201e-19
3.3178528e-19
3.3166541e-19
3.3159445e-19
3.3155519e-19
3.3153662e-19
3.315325e-19
3.3154083e-19
3.3156421e-19
3.3161183e-19
3.3191079e-19
3.3171419e-19
3.3159445e-19
3.3152361e-19
3.3148449e-19
3.3146611e-19
3.314623e-19
3.3147113e-19
3.3149521e-19
3.3154353e-19
3.3187129e-19
3.3167479e-19
3.3155519e-19
3.3148449e-19
3.3144551e-19
3.314273e-19
3.3142371e-19
3.3143284e-19
3.3145728e-19
3.3150589e-19
3.3185236e-19
3.3165602e-19
3.3153662e-19
3.3146611e-19
3.314273e-19
3.3140923e-19
3.314058e-19
3.3141511e-19
3.3143974e-19
3.3148848e-19
3.3184756e-19
3.3165153e-19
3.315325e-19
3.314623e-19
3.3142371e-19
3.314058e-19
3.3140249e-19
3.3141192e-19
3.3143665e-19
3.3148545e-19
3.3185448e-19
3.3165916e-19
3.3154083e-19
3.3147113e-19
3.3143284e-19
3.3141511e-19
3.3141192e-19
3.3142142e-19
3.3144621e-19
3.3149505e-19
3.3187476e-19
3.3168127e-19
3.3156421e-19
3.3149521e-19
3.3145728e-19
3.3143974e-19
3.3143665e-19
3.3144621e-19
3.3147105e-19
3.3151994e-19
3.3191522e-19
3.3172708e-19
3.3161183e-19
3.3154353e-19
3.3150589e-19
3.3148848e-19
3.3148545e-19
3.3149505e-19
3.3151994e-19
3.3156897e-19
6.4916016e-19
6.4878872e-19
6.4856171e-19
6.4842696e-19
6.483521e-19
6.4831619e-19
6.4830703e-19
6.4831996e-19
6.483578e-19
6.4843265e-19
6.4878872e-19
6.4841852e-19
6.4819199e-19
6.4805748e-19
6.4798282e-19
6.479472e-19
6.4793863e-19
6.4795293e-19
6.4799431e-19
6.480795e-19
6.4856171e-19
6.4819199e-19
6.4796579e-19
6.4783153e-19
6.4775713e-19
6.477219e-19
6.4771405e-19
6.4772971e-19
6.4777354e-19
6.4786223e-19
6.4842696e-19
6.4805748e-19
6.4783153e-19
6.4769751e-19
6.4762338e-19
6.4758852e-19
6.4758126e-19
6.4759787e-19
6.4764305e-19
6.4773308e-19
6.483521e-19
6.4798282e-19
6.4775713e-19
6.4762338e-19
6.475495e-19
6.4751496e-19
6.4750813e-19
6.4752533e-19
6.4757121e-19
6.476618e-19
6.4831619e-19
6.479472e-19
6.477219e-19
6.4758852e-19
6.4751496e-19
6.4748071e-19
6.4747418e-19
6.4749173e-19
6.4753796e-19
6.4762881e-19
6.4830703e-19
6.4793863e-19
6.4771405e-19
6.4758126e-19
6.4750813e-19
6.4747418e-19
6.4746789e-19
6.4748566e-19
6.4753208e-19
6.4762305e-19
6.4831996e-19
6.4795293e-19
6.4772971e-19
6.4759787e-19
6.4752533e-19
6.4749173e-19
6.4748566e-19
6.4750357e-19
6.4755011e-19
6.4764116e-19
6.483578e-19
6.4799431e-19
6.4777354e-19
6.4764305e-19
6.4757121e-19
6.4753796e-19
6.4753208e-19
6.4755011e-19
6.4759675e-19
6.4768789e-19
6.4843265e-19
6.480795e-19
6.4786223e-19
6.4773308e-19
6.476618e-19
6.4762881e-19
6.4762305e-19
6.4764116e-19
6.4768789e-19
6.4777927e-19
1.281096e-18
1.2803912e-18
1.2799588e-18
1.2797014e-18
1.2795582e-18
1.2794894e-18
1.2794718e-18
1.2794962e-18
1.2795675e-18
1.2797073e-18
1.2803912e-18
1.2796888e-18
1.2792572e-18
1.2790003e-18
1.2788575e-18
1.2787892e-18
1.2787727e-18
1.2787998e-18
1.278878e-18
1.2790381e-18
1.2799588e-18
1.2792572e-18
1.2788263e-18
1.2785699e-18
1.2784275e-18
1.2783601e-18
1.2783449e-18
1.2783747e-18
1.2784577e-18
1.2786245e-18
1.2797014e-18
1.2790003e-18
1.2785699e-18
1.2783139e-18
1.278172e-18
1.2781053e-18
1.2780914e-18
1.2781229e-18
1.2782085e-18
1.278378e-18
1.2795582e-18
1.2788575e-18
1.2784275e-18
1.278172e-18
1.2780307e-18
1.2779646e-18
1.2779515e-18
1.2779842e-18
1.2780712e-18
1.2782417e-18
1.2794894e-18
1.2787892e-18
1.2783601e-18
1.2781053e-18
1.2779646e-18
1.277899e-18
1.2778865e-18
1.2779199e-18
1.2780076e-18
1.2781786e-18
1.2794718e-18
1.2787727e-18
1.2783449e-18
1.2780914e-18
1.2779515e-18
1.2778865e-18
1.2778744e-18
1.2779083e-18
1.2779963e-18
1.2781676e-18
1.2794962e-18
1.2787998e-18
1.2783747e-18
1.2781229e-18
1.2779842e-18
1.2779199e-18
1.2779083e-18
1.2779424e-18
1.2780306e-18
1.2782021e-18
1.2795675e-18
1.278878e-18
1.2784577e-18
1.2782085e-18
1.2780712e-18
1.2780076e-18
1.2779963e-18
1.2780306e-18
1.2781191e-18
1.2782907e-18
1.2797073e-18
1.2790381e-18
1.2786245e-18
1.278378e-18
1.2782417e-18
1.2781786e-18
1.2781676e-18
1.2782021e-18
1.2782907e-18
1.2784628e-18
2.5539829e-18
2.5526326e-18
2.5518009e-18
2.5513046e-18
2.551028e-18
2.550895e-18
2.5508607e-18
2.5509073e-18
2.551043e-18
2.5513069e-18
2.5526326e-18
2.5512869e-18
2.5504568e-18
2.5499614e-18
2.5496855e-18
2.5495536e-18
2.5495216e-18
2.5495734e-18
2.5497227e-18
2.5500263e-18
2.5518009e-18
2.5504568e-18
2.549628e-18
2.5491335e-18
2.5488586e-18
2.5487282e-18
2.5486989e-18
2.5487559e-18
2.5489146e-18
2.5492316e-18
2.5513046e-18
2.5499614e-18
2.5491335e-18
2.5486399e-18
2.548366e-18
2.548237e-18
2.54821e-18
2.5482706e-18
2.5484345e-18
2.5487567e-18
2.551028e-18
2.5496855e-18
2.5488586e-18
2.548366e-18
2.5480931e-18
2.5479653e-18
2.5479399e-18
2.5480028e-18
2.5481693e-18
2.5484937e-18
2.550895e-18
2.5495536e-18
2.5487282e-18
2.548237e-18
2.5479653e-18
2.5478386e-18
2.5478143e-18
2.5478786e-18
2.5480465e-18
2.5483718e-18
2.5508607e-18
2.5495216e-18
2.5486989e-18
2.54821e-18
2.5479399e-18
2.5478143e-18
2.547791e-18
2.5478561e-18
2.5480247e-18
2.5483505e-18
2.5509073e-18
2.5495734e-18
2.5487559e-18
2.5482706e-18
2.5480028e-18
2.5478786e-18
2.5478561e-18
2.5479217e-18
2.5480908e-18
2.5484169e-18
2.551043e-18
2.5497227e-18
2.5489146e-18
2.5484345e-18
2.5481693e-18
2.5480465e-18
2.5480247e-18
2.5480908e-18
2.5482602e-18
2.5485866e-18
2.5513069e-18
2.5500263e-18
2.5492316e-18
2.5487567e-18
2.5484937e-18
2.5483718e-18
2.5483505e-18
2.5484169e-18
2.5485866e-18
2.5489139e-18
5.1434472e-18
5.1408356e-18
5.1392208e-18
5.1382547e-18
5.1377153e-18
5.1374557e-18
5.1373885e-18
5.1374782e-18
5.1377391e-18
5.138242e-18
5.1408356e-18
5.1382327e-18
5.136621e-18
5.1356566e-18
5.1351187e-18
5.1348613e-18
5.1347985e-18
5.1348987e-18
5.1351866e-18
5.1357684e-18
5.1392208e-18
5.136621e-18
5.1350117e-18
5.1340492e-18
5.1335132e-18
5.1332587e-18
5.1332013e-18
5.1333118e-18
5.1336183e-18
5.1342269e-18
5.1382547e-18
5.1356566e-18
5.1340492e-18
5.1330883e-18
5.1325543e-18
5.1323026e-18
5.1322498e-18
5.1323675e-18
5.1326842e-18
5.1333031e-18
5.1377153e-18
5.1351187e-18
5.1335132e-18
5.1325543e-18
5.1320223e-18
5.1317729e-18
5.1317234e-18
5.1318456e-18
5.1321676e-18
5.1327907e-18
5.1374557e-18
5.1348613e-18
5.1332587e-18
5.1323026e-18
5.1317729e-18
5.1315258e-18
5.1314785e-18
5.1316033e-18
5.1319281e-18
5.1325531e-18
5.1373885e-18
5.1347985e-18
5.1332013e-18
5.1322498e-18
5.1317234e-18
5.1314785e-18
5.1314331e-18
5.1315595e-18
5.1318857e-18
5.1325116e-18
5.1374782e-18
5.1348987e-18
5.1333118e-18
5.1323675e-18
5.1318456e-18
5.1316033e-18
5.1315595e-18
5.1316871e-18
5.1320141e-18
5.1326406e-18
5.1377391e-18
5.1351866e-18
5.1336183e-18
5.1326842e-18
5.1321676e-18
5.1319281e-18
5.1318857e-18
5.1320141e-18
5.1323419e-18
5.132969e-18
5.138242e-18
5.1357684e-18
5.1342269e-18
5.1333031e-18
5.1327907e-18
5.1325531e-18
5.1325116e-18
5.1326406e-18
5.132969e-18
5.1335978e-18
1.0463555e-17
1.0458455e-17
1.045529e-17
1.0453392e-17
1.045233e-17
1.0451819e-17
1.0451686e-17
1.0451861e-17
1.0452367e-17
1.0453335e-17
1.0458455e-17
1.0453373e-17
1.0450214e-17
1.0448319e-17
1.044726e-17
1.0446753e-17
1.0446629e-17
1.0446824e-17
1.0447385e-17
1.0448511e-17
1.045529e-17
1.0450214e-17
1.0447059e-17
1.0445168e-17
1.0444113e-17
1.0443612e-17
1.0443499e-17
1.0443715e-17
1.0444313e-17
1.0445493e-17
1.0453392e-17
1.0448319e-17
1.0445168e-17
1.044328e-17
1.0442229e-17
1.0441733e-17
1.0441629e-17
1.044186e-17
1.0442478e-17
1.0443679e-17
1.045233e-17
1.044726e-17
1.0444113e-17
1.0442229e-17
1.0441182e-17
1.0440691e-17
1.0440593e-17
1.0440833e-17
1.0441462e-17
1.0442671e-17
1.0451819e-17
1.0446753e-17
1.0443612e-17
1.0441733e-17
1.0440691e-17
1.0440204e-17
1.0440111e-17
1.0440356e-17
1.0440991e-17
1.0442204e-17
1.0451686e-17
1.0446629e-17
1.0443499e-17
1.0441629e-17
1.0440593e-17
1.0440111e-17
1.0440022e-17
1.044027e-17
1.0440908e-17
1.0442122e-17
1.0451861e-17
1.0446824e-17
1.0443715e-17
1.044186e-17
1.0440833e-17
1.0440356e-17
1.044027e-17
1.0440521e-17
1.044116e-17
1.0442376e-17
1.0452367e-17
1.0447385e-17
1.0444313e-17
1.0442478e-17
1.0441462e-17
1.0440991e-17
1.0440908e-17
1.044116e-17
1.0441801e-17
1.0443018e-17
1.0453335e-17
1.0448511e-17
1.0445493e-17
1.0443679e-17
1.0442671e-17
1.0442204e-17
1.0442122e-17
1.0442376e-17
1.0443018e-17
1.0444238e-17
2.1501872e-17
2.149182e-17
2.1485558e-17
2.1481793e-17
2.1479684e-17
2.1478667e-17
2.1478402e-17
2.1478746e-17
2.1479739e-17
2.1481619e-17
2.149182e-17
2.1481801e-17
2.1475551e-17
2.1471792e-17
2.1469689e-17
2.1468681e-17
2.1468434e-17
2.146882e-17
2.1469923e-17
2.1472124e-17
2.1485558e-17
2.1475551e-17
2.146931e-17
2.1465558e-17
2.1463463e-17
2.1462467e-17
2.1462241e-17
2.1462669e-17
2.1463847e-17
2.1466158e-17
2.1481793e-17
2.1471792e-17
2.1465558e-17
2.1461814e-17
2.1459726e-17
2.1458741e-17
2.1458534e-17
2.1458991e-17
2.1460211e-17
2.1462563e-17
2.1479684e-17
2.1469689e-17
2.1463463e-17
2.1459726e-17
2.1457647e-17
2.1456671e-17
2.1456478e-17
2.1456953e-17
2.1458194e-17
2.1460563e-17
2.1478667e-17
2.1468681e-17
2.1462467e-17
2.1458741e-17
2.1456671e-17
2.1455705e-17
2.145552e-17
2.1456006e-17
2.1457258e-17
2.1459635e-17
2.1478402e-17
2.1468434e-17
2.1462241e-17
2.1458534e-17
2.1456478e-17
2.145552e-17
2.1455343e-17
2.1455835e-17
2.1457093e-17
2.1459474e-17
2.1478746e-17
2.146882e-17
2.1462669e-17
2.1458991e-17
2.1456953e-17
2.1456006e-17
2.1455835e-17
2.1456332e-17
2.1457594e-17
2.1459977e-17
2.1479739e-17
2.1469923e-17
2.1463847e-17
2.1460211e-17
2.1458194e-17
2.1457258e-17
2.1457093e-17
2.1457594e-17
2.1458858e-17
2.1461244e-17
2.1481619e-17
2.1472124e-17
2.1466158e-17
2.1462563e-17
2.1460563e-17