/*--------------------------------*- C++ -*----------------------------------*\
| =========                 |                                                 |
| \\      /  F ield         | OpenFOAM: The Open Source CFD Toolbox           |
|  \\    /   O peration     | Version:  dev                                   |
|   \\  /    A nd           | Web:      www.OpenFOAM.org                      |
|    \\/     M anipulation  |                                                 |
\*---------------------------------------------------------------------------*/
FoamFile
{
    version     2.0;
    format      ascii;
    class       volScalarField;
    location    "34.995";
    object      A_0;
}
// * * * * * * * * * * * * * * * * * * * * * * * * * * * * * * * * * * * * * //

dimensions      [0 0 0 0 1 0 0];

internalField   nonuniform List<scalar> 
10000
(
1.9004979e-40
1.8993703e-40
1.8992963e-40
1.8992709e-40
1.8992588e-40
1.8992535e-40
1.8992518e-40
1.8992523e-40
1.8992574e-40
1.8993265e-40
1.8993703e-40
1.8982499e-40
1.8981762e-40
1.8981508e-40
1.8981387e-40
1.8981335e-40
1.8981318e-40
1.8981325e-40
1.8981386e-40
1.8982271e-40
1.8992963e-40
1.8981762e-40
1.8981025e-40
1.8980771e-40
1.8980651e-40
1.8980599e-40
1.8980583e-40
1.8980591e-40
1.8980655e-40
1.898155e-40
1.8992709e-40
1.8981508e-40
1.8980771e-40
1.8980517e-40
1.8980397e-40
1.8980345e-40
1.898033e-40
1.8980339e-40
1.8980404e-40
1.8981301e-40
1.8992588e-40
1.8981387e-40
1.8980651e-40
1.8980397e-40
1.8980276e-40
1.8980225e-40
1.898021e-40
1.8980219e-40
1.8980286e-40
1.8981183e-40
1.8992535e-40
1.8981335e-40
1.8980599e-40
1.8980345e-40
1.8980225e-40
1.8980173e-40
1.8980159e-40
1.8980168e-40
1.8980235e-40
1.8981132e-40
1.8992518e-40
1.8981318e-40
1.8980583e-40
1.898033e-40
1.898021e-40
1.8980159e-40
1.8980144e-40
1.8980154e-40
1.898022e-40
1.8981118e-40
1.8992523e-40
1.8981325e-40
1.8980591e-40
1.8980339e-40
1.8980219e-40
1.8980168e-40
1.8980154e-40
1.8980164e-40
1.898023e-40
1.8981128e-40
1.8992574e-40
1.8981386e-40
1.8980655e-40
1.8980404e-40
1.8980286e-40
1.8980235e-40
1.898022e-40
1.898023e-40
1.8980297e-40
1.8981195e-40
1.8993265e-40
1.8982271e-40
1.898155e-40
1.8981301e-40
1.8981183e-40
1.8981132e-40
1.8981118e-40
1.8981128e-40
1.8981195e-40
1.8982096e-40
7.55932e-40
7.5553807e-40
7.5550972e-40
7.5549973e-40
7.5549497e-40
7.5549291e-40
7.5549223e-40
7.5549242e-40
7.554946e-40
7.5553176e-40
7.5553807e-40
7.5514668e-40
7.5511841e-40
7.5510843e-40
7.5510368e-40
7.5510163e-40
7.5510098e-40
7.5510123e-40
7.5510381e-40
7.5514888e-40
7.5550972e-40
7.5511841e-40
7.5509014e-40
7.5508017e-40
7.5507543e-40
7.5507338e-40
7.5507276e-40
7.5507307e-40
7.5507578e-40
7.5512121e-40
7.5549973e-40
7.5510843e-40
7.5508017e-40
7.5507019e-40
7.5506546e-40
7.5506342e-40
7.5506282e-40
7.5506317e-40
7.5506594e-40
7.5511143e-40
7.5549497e-40
7.5510368e-40
7.5507543e-40
7.5506546e-40
7.5506073e-40
7.550587e-40
7.5505811e-40
7.5505848e-40
7.5506127e-40
7.5510679e-40
7.5549291e-40
7.5510163e-40
7.5507338e-40
7.5506342e-40
7.550587e-40
7.5505668e-40
7.5505609e-40
7.5505648e-40
7.5505928e-40
7.5510481e-40
7.5549223e-40
7.5510098e-40
7.5507276e-40
7.5506282e-40
7.5505811e-40
7.5505609e-40
7.5505551e-40
7.550559e-40
7.5505871e-40
7.5510424e-40
7.5549242e-40
7.5510123e-40
7.5507307e-40
7.5506317e-40
7.5505848e-40
7.5505648e-40
7.550559e-40
7.5505629e-40
7.550591e-40
7.5510464e-40
7.554946e-40
7.5510381e-40
7.5507578e-40
7.5506594e-40
7.5506127e-40
7.5505928e-40
7.5505871e-40
7.550591e-40
7.5506191e-40
7.5510745e-40
7.5553176e-40
7.5514888e-40
7.5512121e-40
7.5511143e-40
7.5510679e-40
7.5510481e-40
7.5510424e-40
7.5510464e-40
7.5510745e-40
7.5515319e-40
2.0885788e-39
2.0875496e-39
2.0874737e-39
2.0874466e-39
2.0874338e-39
2.0874281e-39
2.0874263e-39
2.0874268e-39
2.087433e-39
2.0875494e-39
2.0875496e-39
2.086527e-39
2.0864513e-39
2.0864243e-39
2.0864115e-39
2.0864059e-39
2.0864041e-39
2.0864048e-39
2.0864121e-39
2.0865503e-39
2.0874737e-39
2.0864513e-39
2.0863757e-39
2.0863486e-39
2.0863358e-39
2.0863302e-39
2.0863286e-39
2.0863294e-39
2.086337e-39
2.0864763e-39
2.0874466e-39
2.0864243e-39
2.0863486e-39
2.0863217e-39
2.0863088e-39
2.0863033e-39
2.0863017e-39
2.0863026e-39
2.0863104e-39
2.0864498e-39
2.0874338e-39
2.0864115e-39
2.0863358e-39
2.0863088e-39
2.086296e-39
2.0862905e-39
2.0862889e-39
2.0862899e-39
2.0862977e-39
2.0864373e-39
2.0874281e-39
2.0864059e-39
2.0863302e-39
2.0863033e-39
2.0862905e-39
2.086285e-39
2.0862834e-39
2.0862845e-39
2.0862923e-39
2.0864319e-39
2.0874263e-39
2.0864041e-39
2.0863286e-39
2.0863017e-39
2.0862889e-39
2.0862834e-39
2.0862819e-39
2.0862829e-39
2.0862908e-39
2.0864303e-39
2.0874268e-39
2.0864048e-39
2.0863294e-39
2.0863026e-39
2.0862899e-39
2.0862845e-39
2.0862829e-39
2.086284e-39
2.0862919e-39
2.0864314e-39
2.087433e-39
2.0864121e-39
2.086337e-39
2.0863104e-39
2.0862977e-39
2.0862923e-39
2.0862908e-39
2.0862919e-39
2.0862998e-39
2.0864393e-39
2.0875494e-39
2.0865503e-39
2.0864763e-39
2.0864498e-39
2.0864373e-39
2.0864319e-39
2.0864303e-39
2.0864314e-39
2.0864393e-39
2.0865795e-39
5.6127001e-39
5.6100386e-39
5.6098405e-39
5.6097695e-39
5.6097357e-39
5.6097209e-39
5.6097161e-39
5.6097174e-39
5.6097334e-39
5.6100385e-39
5.6100386e-39
5.6073941e-39
5.6071966e-39
5.6071257e-39
5.6070918e-39
5.6070772e-39
5.6070725e-39
5.6070743e-39
5.6070933e-39
5.6074568e-39
5.6098405e-39
5.6071966e-39
5.6069991e-39
5.6069282e-39
5.6068944e-39
5.6068798e-39
5.6068754e-39
5.6068776e-39
5.6068975e-39
5.6072637e-39
5.6097695e-39
5.6071257e-39
5.6069282e-39
5.6068573e-39
5.6068236e-39
5.6068091e-39
5.6068048e-39
5.6068073e-39
5.6068276e-39
5.6071943e-39
5.6097357e-39
5.6070918e-39
5.6068944e-39
5.6068236e-39
5.6067899e-39
5.6067754e-39
5.6067712e-39
5.6067739e-39
5.6067943e-39
5.6071613e-39
5.6097209e-39
5.6070772e-39
5.6068798e-39
5.6068091e-39
5.6067754e-39
5.606761e-39
5.6067568e-39
5.6067596e-39
5.6067801e-39
5.6071471e-39
5.6097161e-39
5.6070725e-39
5.6068754e-39
5.6068048e-39
5.6067712e-39
5.6067568e-39
5.6067527e-39
5.6067555e-39
5.6067761e-39
5.6071431e-39
5.6097174e-39
5.6070743e-39
5.6068776e-39
5.6068073e-39
5.6067739e-39
5.6067596e-39
5.6067555e-39
5.6067583e-39
5.6067789e-39
5.6071459e-39
5.6097334e-39
5.6070933e-39
5.6068975e-39
5.6068276e-39
5.6067943e-39
5.6067801e-39
5.6067761e-39
5.6067789e-39
5.6067995e-39
5.6071666e-39
5.6100385e-39
5.6074568e-39
5.6072637e-39
5.6071943e-39
5.6071613e-39
5.6071471e-39
5.6071431e-39
5.6071459e-39
5.6071666e-39
5.6075353e-39
1.5233868e-38
1.5226895e-38
1.5226373e-38
1.5226185e-38
1.5226095e-38
1.5226056e-38
1.5226043e-38
1.5226046e-38
1.5226088e-38
1.5226869e-38
1.5226895e-38
1.5219966e-38
1.5219445e-38
1.5219258e-38
1.5219168e-38
1.5219129e-38
1.5219117e-38
1.5219121e-38
1.5219171e-38
1.522011e-38
1.5226373e-38
1.5219445e-38
1.5218925e-38
1.5218737e-38
1.5218647e-38
1.5218609e-38
1.5218597e-38
1.5218603e-38
1.5218655e-38
1.5219602e-38
1.5226185e-38
1.5219258e-38
1.5218737e-38
1.5218549e-38
1.521846e-38
1.5218421e-38
1.521841e-38
1.5218417e-38
1.5218469e-38
1.5219418e-38
1.5226095e-38
1.5219168e-38
1.5218647e-38
1.521846e-38
1.521837e-38
1.5218332e-38
1.5218321e-38
1.5218328e-38
1.5218381e-38
1.521933e-38
1.5226056e-38
1.5219129e-38
1.5218609e-38
1.5218421e-38
1.5218332e-38
1.5218294e-38
1.5218283e-38
1.521829e-38
1.5218344e-38
1.5219293e-38
1.5226043e-38
1.5219117e-38
1.5218597e-38
1.521841e-38
1.5218321e-38
1.5218283e-38
1.5218272e-38
1.5218279e-38
1.5218333e-38
1.5219282e-38
1.5226046e-38
1.5219121e-38
1.5218603e-38
1.5218417e-38
1.5218328e-38
1.521829e-38
1.5218279e-38
1.5218287e-38
1.521834e-38
1.5219289e-38
1.5226088e-38
1.5219171e-38
1.5218655e-38
1.5218469e-38
1.5218381e-38
1.5218344e-38
1.5218333e-38
1.521834e-38
1.5218394e-38
1.5219343e-38
1.5226869e-38
1.522011e-38
1.5219602e-38
1.5219418e-38
1.521933e-38
1.5219293e-38
1.5219282e-38
1.5219289e-38
1.5219343e-38
1.5220297e-38
4.198349e-38
4.1964936e-38
4.196354e-38
4.1963034e-38
4.1962792e-38
4.1962687e-38
4.1962652e-38
4.1962662e-38
4.196277e-38
4.1964791e-38
4.1964936e-38
4.1946501e-38
4.1945108e-38
4.1944603e-38
4.1944361e-38
4.1944256e-38
4.1944223e-38
4.1944236e-38
4.1944366e-38
4.1946821e-38
4.196354e-38
4.1945108e-38
4.1943715e-38
4.194321e-38
4.1942969e-38
4.1942865e-38
4.1942833e-38
4.1942849e-38
4.1942985e-38
4.194546e-38
4.1963034e-38
4.1944603e-38
4.194321e-38
4.1942705e-38
4.1942465e-38
4.1942361e-38
4.194233e-38
4.1942348e-38
4.1942488e-38
4.1944966e-38
4.1962792e-38
4.1944361e-38
4.1942969e-38
4.1942465e-38
4.1942224e-38
4.1942121e-38
4.1942091e-38
4.194211e-38
4.1942251e-38
4.194473e-38
4.1962687e-38
4.1944256e-38
4.1942865e-38
4.1942361e-38
4.1942121e-38
4.1942018e-38
4.1941988e-38
4.1942008e-38
4.1942149e-38
4.1944629e-38
4.1962652e-38
4.1944223e-38
4.1942833e-38
4.194233e-38
4.1942091e-38
4.1941988e-38
4.1941959e-38
4.1941978e-38
4.194212e-38
4.1944601e-38
4.1962662e-38
4.1944236e-38
4.1942849e-38
4.1942348e-38
4.194211e-38
4.1942008e-38
4.1941978e-38
4.1941998e-38
4.194214e-38
4.1944621e-38
4.196277e-38
4.1944366e-38
4.1942985e-38
4.1942488e-38
4.1942251e-38
4.1942149e-38
4.194212e-38
4.194214e-38
4.1942282e-38
4.1944763e-38
4.1964791e-38
4.1946821e-38
4.194546e-38
4.1944966e-38
4.194473e-38
4.1944629e-38
4.1944601e-38
4.1944621e-38
4.1944763e-38
4.1947255e-38
1.1757811e-37
1.1752796e-37
1.1752416e-37
1.1752278e-37
1.1752212e-37
1.1752183e-37
1.1752174e-37
1.1752176e-37
1.1752205e-37
1.1752735e-37
1.1752796e-37
1.1747813e-37
1.1747434e-37
1.1747296e-37
1.174723e-37
1.1747202e-37
1.1747193e-37
1.1747196e-37
1.1747231e-37
1.1747882e-37
1.1752416e-37
1.1747434e-37
1.1747056e-37
1.1746918e-37
1.1746852e-37
1.1746823e-37
1.1746815e-37
1.1746819e-37
1.1746856e-37
1.1747512e-37
1.1752278e-37
1.1747296e-37
1.1746918e-37
1.174678e-37
1.1746714e-37
1.1746686e-37
1.1746678e-37
1.1746682e-37
1.174672e-37
1.1747378e-37
1.1752212e-37
1.174723e-37
1.1746852e-37
1.1746714e-37
1.1746648e-37
1.174662e-37
1.1746612e-37
1.1746617e-37
1.1746655e-37
1.1747313e-37
1.1752183e-37
1.1747202e-37
1.1746823e-37
1.1746686e-37
1.174662e-37
1.1746592e-37
1.1746584e-37
1.1746589e-37
1.1746627e-37
1.1747285e-37
1.1752174e-37
1.1747193e-37
1.1746815e-37
1.1746678e-37
1.1746612e-37
1.1746584e-37
1.1746576e-37
1.1746581e-37
1.1746619e-37
1.1747278e-37
1.1752176e-37
1.1747196e-37
1.1746819e-37
1.1746682e-37
1.1746617e-37
1.1746589e-37
1.1746581e-37
1.1746587e-37
1.1746625e-37
1.1747283e-37
1.1752205e-37
1.1747231e-37
1.1746856e-37
1.174672e-37
1.1746655e-37
1.1746627e-37
1.1746619e-37
1.1746625e-37
1.1746663e-37
1.1747321e-37
1.1752735e-37
1.1747882e-37
1.1747512e-37
1.1747378e-37
1.1747313e-37
1.1747285e-37
1.1747278e-37
1.1747283e-37
1.1747321e-37
1.1747983e-37
3.3467887e-37
3.3454116e-37
3.3453068e-37
3.3452685e-37
3.3452502e-37
3.3452422e-37
3.3452395e-37
3.3452402e-37
3.345248e-37
3.3453893e-37
3.3454116e-37
3.3440431e-37
3.3439386e-37
3.3439004e-37
3.3438821e-37
3.3438741e-37
3.3438716e-37
3.3438725e-37
3.343882e-37
3.3440575e-37
3.3453068e-37
3.3439386e-37
3.3438341e-37
3.3437959e-37
3.3437776e-37
3.3437697e-37
3.3437673e-37
3.3437685e-37
3.3437785e-37
3.3439556e-37
3.3452685e-37
3.3439004e-37
3.3437959e-37
3.3437577e-37
3.3437394e-37
3.3437315e-37
3.3437292e-37
3.3437306e-37
3.3437408e-37
3.3439182e-37
3.3452502e-37
3.3438821e-37
3.3437776e-37
3.3437394e-37
3.3437212e-37
3.3437133e-37
3.343711e-37
3.3437125e-37
3.3437228e-37
3.3439003e-37
3.3452422e-37
3.3438741e-37
3.3437697e-37
3.3437315e-37
3.3437133e-37
3.3437055e-37
3.3437033e-37
3.3437047e-37
3.3437151e-37
3.3438926e-37
3.3452395e-37
3.3438716e-37
3.3437673e-37
3.3437292e-37
3.343711e-37
3.3437033e-37
3.343701e-37
3.3437025e-37
3.3437129e-37
3.3438905e-37
3.3452402e-37
3.3438725e-37
3.3437685e-37
3.3437306e-37
3.3437125e-37
3.3437047e-37
3.3437025e-37
3.3437041e-37
3.3437145e-37
3.343892e-37
3.345248e-37
3.343882e-37
3.3437785e-37
3.3437408e-37
3.3437228e-37
3.3437151e-37
3.3437129e-37
3.3437145e-37
3.3437249e-37
3.3439024e-37
3.3453893e-37
3.3440575e-37
3.3439556e-37
3.3439182e-37
3.3439003e-37
3.3438926e-37
3.3438905e-37
3.343892e-37
3.3439024e-37
3.3440808e-37
9.6831872e-37
9.6793448e-37
9.6790508e-37
9.678943e-37
9.6788912e-37
9.6788687e-37
9.6788613e-37
9.6788631e-37
9.6788844e-37
9.679267e-37
9.6793448e-37
9.6755266e-37
9.6752335e-37
9.6751257e-37
9.675074e-37
9.6750515e-37
9.6750445e-37
9.6750471e-37
9.6750732e-37
9.6755543e-37
9.6790508e-37
9.6752335e-37
9.6749404e-37
9.6748327e-37
9.674781e-37
9.6747587e-37
9.6747519e-37
9.6747553e-37
9.6747829e-37
9.6752684e-37
9.678943e-37
9.6751257e-37
9.6748327e-37
9.674725e-37
9.6746734e-37
9.6746512e-37
9.6746447e-37
9.6746485e-37
9.6746768e-37
9.6751631e-37
9.6788912e-37
9.675074e-37
9.674781e-37
9.6746734e-37
9.6746219e-37
9.6745998e-37
9.6745934e-37
9.6745975e-37
9.6746261e-37
9.6751127e-37
9.6788687e-37
9.6750515e-37
9.6747587e-37
9.6746512e-37
9.6745998e-37
9.6745777e-37
9.6745714e-37
9.6745756e-37
9.6746044e-37
9.675091e-37
9.6788613e-37
9.6750445e-37
9.6747519e-37
9.6746447e-37
9.6745934e-37
9.6745714e-37
9.6745652e-37
9.6745694e-37
9.6745982e-37
9.675085e-37
9.6788631e-37
9.6750471e-37
9.6747553e-37
9.6746485e-37
9.6745975e-37
9.6745756e-37
9.6745694e-37
9.6745737e-37
9.6746026e-37
9.6750893e-37
9.6788844e-37
9.6750732e-37
9.6747829e-37
9.6746768e-37
9.6746261e-37
9.6746044e-37
9.6745982e-37
9.6746026e-37
9.6746314e-37
9.6751182e-37
9.679267e-37
9.6755543e-37
9.6752684e-37
9.6751631e-37
9.6751127e-37
9.675091e-37
9.675085e-37
9.6750893e-37
9.6751182e-37
9.6756071e-37
2.8478834e-36
2.8467941e-36
2.8467103e-36
2.8466795e-36
2.8466646e-36
2.8466582e-36
2.846656e-36
2.8466566e-36
2.8466625e-36
2.8467677e-36
2.8467941e-36
2.8457117e-36
2.8456281e-36
2.8455973e-36
2.8455824e-36
2.845576e-36
2.845574e-36
2.8455747e-36
2.8455821e-36
2.8457161e-36
2.8467103e-36
2.8456281e-36
2.8455446e-36
2.8455138e-36
2.845499e-36
2.8454926e-36
2.8454906e-36
2.8454916e-36
2.8454994e-36
2.8456346e-36
2.8466795e-36
2.8455973e-36
2.8455138e-36
2.8454829e-36
2.8454682e-36
2.8454618e-36
2.8454599e-36
2.845461e-36
2.845469e-36
2.8456045e-36
2.8466646e-36
2.8455824e-36
2.845499e-36
2.8454682e-36
2.8454534e-36
2.845447e-36
2.8454452e-36
2.8454464e-36
2.8454545e-36
2.8455901e-36
2.8466582e-36
2.845576e-36
2.8454926e-36
2.8454618e-36
2.845447e-36
2.8454407e-36
2.8454389e-36
2.8454401e-36
2.8454482e-36
2.8455839e-36
2.846656e-36
2.845574e-36
2.8454906e-36
2.8454599e-36
2.8454452e-36
2.8454389e-36
2.8454371e-36
2.8454384e-36
2.8454465e-36
2.8455821e-36
2.8466566e-36
2.8455747e-36
2.8454916e-36
2.845461e-36
2.8454464e-36
2.8454401e-36
2.8454384e-36
2.8454396e-36
2.8454477e-36
2.8455834e-36
2.8466625e-36
2.8455821e-36
2.8454994e-36
2.845469e-36
2.8454545e-36
2.8454482e-36
2.8454465e-36
2.8454477e-36
2.8454559e-36
2.8455915e-36
2.8467677e-36
2.8457161e-36
2.8456346e-36
2.8456045e-36
2.8455901e-36
2.8455839e-36
2.8455821e-36
2.8455834e-36
2.8455915e-36
2.8457278e-36
8.514532e-36
8.5113941e-36
8.5111516e-36
8.5110619e-36
8.5110186e-36
8.5109998e-36
8.5109936e-36
8.5109952e-36
8.511012e-36
8.511306e-36
8.5113941e-36
8.508276e-36
8.5080341e-36
8.5079444e-36
8.5079012e-36
8.5078825e-36
8.5078766e-36
8.5078788e-36
8.5078998e-36
8.5082792e-36
8.5111516e-36
8.5080341e-36
8.5077922e-36
8.5077026e-36
8.5076594e-36
8.5076408e-36
8.5076352e-36
8.507638e-36
8.5076603e-36
8.5080436e-36
8.5110619e-36
8.5079444e-36
8.5077026e-36
8.5076129e-36
8.5075699e-36
8.5075514e-36
8.5075459e-36
8.5075491e-36
8.507572e-36
8.507956e-36
8.5110186e-36
8.5079012e-36
8.5076594e-36
8.5075699e-36
8.5075269e-36
8.5075084e-36
8.5075031e-36
8.5075066e-36
8.5075297e-36
8.5079139e-36
8.5109998e-36
8.5078825e-36
8.5076408e-36
8.5075514e-36
8.5075084e-36
8.50749e-36
8.5074848e-36
8.5074883e-36
8.5075115e-36
8.5078959e-36
8.5109936e-36
8.5078766e-36
8.5076352e-36
8.5075459e-36
8.5075031e-36
8.5074848e-36
8.5074796e-36
8.5074832e-36
8.5075065e-36
8.5078908e-36
8.5109952e-36
8.5078788e-36
8.507638e-36
8.5075491e-36
8.5075066e-36
8.5074883e-36
8.5074832e-36
8.5074868e-36
8.5075101e-36
8.5078945e-36
8.511012e-36
8.5078998e-36
8.5076603e-36
8.507572e-36
8.5075297e-36
8.5075115e-36
8.5075065e-36
8.5075101e-36
8.5075334e-36
8.5079179e-36
8.511306e-36
8.5082792e-36
8.5080436e-36
8.507956e-36
8.5079139e-36
8.5078959e-36
8.5078908e-36
8.5078945e-36
8.5079179e-36
8.5083039e-36
2.5879173e-35
2.5869988e-35
2.5869274e-35
2.5869009e-35
2.5868881e-35
2.5868825e-35
2.5868807e-35
2.5868812e-35
2.586886e-35
2.5869695e-35
2.5869988e-35
2.586086e-35
2.5860149e-35
2.5859884e-35
2.5859756e-35
2.58597e-35
2.5859683e-35
2.585969e-35
2.5859751e-35
2.5860843e-35
2.5869274e-35
2.5860149e-35
2.5859437e-35
2.5859172e-35
2.5859045e-35
2.5858989e-35
2.5858973e-35
2.5858981e-35
2.5859046e-35
2.586015e-35
2.5869009e-35
2.5859884e-35
2.5859172e-35
2.5858907e-35
2.585878e-35
2.5858725e-35
2.5858709e-35
2.5858719e-35
2.5858785e-35
2.5859891e-35
2.5868881e-35
2.5859756e-35
2.5859045e-35
2.585878e-35
2.5858653e-35
2.5858598e-35
2.5858583e-35
2.5858593e-35
2.585866e-35
2.5859767e-35
2.5868825e-35
2.58597e-35
2.5858989e-35
2.5858725e-35
2.5858598e-35
2.5858544e-35
2.5858528e-35
2.5858539e-35
2.5858606e-35
2.5859714e-35
2.5868807e-35
2.5859683e-35
2.5858973e-35
2.5858709e-35
2.5858583e-35
2.5858528e-35
2.5858513e-35
2.5858524e-35
2.5858591e-35
2.5859699e-35
2.5868812e-35
2.585969e-35
2.5858981e-35
2.5858719e-35
2.5858593e-35
2.5858539e-35
2.5858524e-35
2.5858534e-35
2.5858602e-35
2.585971e-35
2.586886e-35
2.5859751e-35
2.5859046e-35
2.5858785e-35
2.585866e-35
2.5858606e-35
2.5858591e-35
2.5858602e-35
2.585867e-35
2.5859778e-35
2.5869695e-35
2.5860843e-35
2.586015e-35
2.5859891e-35
2.5859767e-35
2.5859714e-35
2.5859699e-35
2.585971e-35
2.5859778e-35
2.586089e-35
7.9965498e-35
7.9938178e-35
7.9936045e-35
7.9935249e-35
7.9934865e-35
7.9934697e-35
7.9934642e-35
7.9934656e-35
7.9934798e-35
7.9937207e-35
7.9938178e-35
7.991103e-35
7.9908902e-35
7.9908106e-35
7.9907723e-35
7.9907556e-35
7.9907503e-35
7.9907523e-35
7.9907703e-35
7.9910902e-35
7.9936045e-35
7.9908902e-35
7.9906774e-35
7.9905979e-35
7.9905596e-35
7.990543e-35
7.990538e-35
7.9905406e-35
7.9905597e-35
7.9908831e-35
7.9935249e-35
7.9908106e-35
7.9905979e-35
7.9905184e-35
7.9904802e-35
7.9904637e-35
7.9904589e-35
7.9904618e-35
7.9904815e-35
7.9908055e-35
7.9934865e-35
7.9907723e-35
7.9905596e-35
7.9904802e-35
7.9904419e-35
7.9904255e-35
7.9904208e-35
7.9904239e-35
7.9904439e-35
7.9907681e-35
7.9934697e-35
7.9907556e-35
7.990543e-35
7.9904637e-35
7.9904255e-35
7.9904092e-35
7.9904045e-35
7.9904077e-35
7.9904278e-35
7.9907521e-35
7.9934642e-35
7.9907503e-35
7.990538e-35
7.9904589e-35
7.9904208e-35
7.9904045e-35
7.9904e-35
7.9904032e-35
7.9904233e-35
7.9907477e-35
7.9934656e-35
7.9907523e-35
7.9905406e-35
7.9904618e-35
7.9904239e-35
7.9904077e-35
7.9904032e-35
7.9904064e-35
7.9904266e-35
7.9907509e-35
7.9934798e-35
7.9907703e-35
7.9905597e-35
7.9904815e-35
7.9904439e-35
7.9904278e-35
7.9904233e-35
7.9904266e-35
7.9904467e-35
7.9907711e-35
7.9937207e-35
7.9910902e-35
7.9908831e-35
7.9908055e-35
7.9907681e-35
7.9907521e-35
7.9907477e-35
7.9907509e-35
7.9907711e-35
7.9910969e-35
2.5120267e-34
2.511201e-34
2.5111362e-34
2.511112e-34
2.5111002e-34
2.5110951e-34
2.5110934e-34
2.5110938e-34
2.5110981e-34
2.5111687e-34
2.511201e-34
2.5103805e-34
2.5103158e-34
2.5102916e-34
2.5102799e-34
2.5102748e-34
2.5102732e-34
2.5102738e-34
2.5102792e-34
2.5103744e-34
2.5111362e-34
2.5103158e-34
2.5102512e-34
2.510227e-34
2.5102153e-34
2.5102102e-34
2.5102087e-34
2.5102095e-34
2.5102152e-34
2.5103115e-34
2.511112e-34
2.5102916e-34
2.510227e-34
2.5102027e-34
2.510191e-34
2.510186e-34
2.5101845e-34
2.5101854e-34
2.5101914e-34
2.5102879e-34
2.5111002e-34
2.5102799e-34
2.5102153e-34
2.510191e-34
2.5101794e-34
2.5101743e-34
2.5101729e-34
2.5101739e-34
2.5101799e-34
2.5102765e-34
2.5110951e-34
2.5102748e-34
2.5102102e-34
2.510186e-34
2.5101743e-34
2.5101693e-34
2.5101679e-34
2.5101689e-34
2.510175e-34
2.5102716e-34
2.5110934e-34
2.5102732e-34
2.5102087e-34
2.5101845e-34
2.5101729e-34
2.5101679e-34
2.5101665e-34
2.5101675e-34
2.5101736e-34
2.5102702e-34
2.5110938e-34
2.5102738e-34
2.5102095e-34
2.5101854e-34
2.5101739e-34
2.5101689e-34
2.5101675e-34
2.5101685e-34
2.5101746e-34
2.5102712e-34
2.5110981e-34
2.5102792e-34
2.5102152e-34
2.5101914e-34
2.5101799e-34
2.510175e-34
2.5101736e-34
2.5101746e-34
2.5101807e-34
2.5102773e-34
2.5111687e-34
2.5103744e-34
2.5103115e-34
2.5102879e-34
2.5102765e-34
2.5102716e-34
2.5102702e-34
2.5102712e-34
2.5102773e-34
2.5103743e-34
8.0226298e-34
8.0200938e-34
8.0198938e-34
8.0198186e-34
8.0197822e-34
8.0197663e-34
8.0197611e-34
8.0197624e-34
8.0197752e-34
8.0199857e-34
8.0200938e-34
8.0175737e-34
8.0173742e-34
8.017299e-34
8.0172626e-34
8.0172468e-34
8.0172419e-34
8.0172438e-34
8.0172603e-34
8.0175485e-34
8.0198938e-34
8.0173742e-34
8.0171747e-34
8.0170995e-34
8.0170632e-34
8.0170475e-34
8.0170428e-34
8.0170452e-34
8.0170629e-34
8.0173546e-34
8.0198186e-34
8.017299e-34
8.0170995e-34
8.0170244e-34
8.0169881e-34
8.0169725e-34
8.016968e-34
8.0169708e-34
8.016989e-34
8.0172813e-34
8.0197822e-34
8.0172626e-34
8.0170632e-34
8.0169881e-34
8.0169519e-34
8.0169364e-34
8.016932e-34
8.0169349e-34
8.0169534e-34
8.0172459e-34
8.0197663e-34
8.0172468e-34
8.0170475e-34
8.0169725e-34
8.0169364e-34
8.0169209e-34
8.0169165e-34
8.0169196e-34
8.0169381e-34
8.0172307e-34
8.0197611e-34
8.0172419e-34
8.0170428e-34
8.016968e-34
8.016932e-34
8.0169165e-34
8.0169122e-34
8.0169153e-34
8.0169339e-34
8.0172266e-34
8.0197624e-34
8.0172438e-34
8.0170452e-34
8.0169708e-34
8.0169349e-34
8.0169196e-34
8.0169153e-34
8.0169184e-34
8.0169371e-34
8.0172297e-34
8.0197752e-34
8.0172603e-34
8.0170629e-34
8.016989e-34
8.0169534e-34
8.0169381e-34
8.0169339e-34
8.0169371e-34
8.0169557e-34
8.0172484e-34
8.0199857e-34
8.0175485e-34
8.0173546e-34
8.0172813e-34
8.0172459e-34
8.0172307e-34
8.0172266e-34
8.0172297e-34
8.0172484e-34
8.0175422e-34
2.6048109e-33
2.6040195e-33
2.6039568e-33
2.6039331e-33
2.6039216e-33
2.6039166e-33
2.603915e-33
2.6039154e-33
2.6039193e-33
2.6039831e-33
2.6040195e-33
2.603233e-33
2.6031705e-33
2.6031468e-33
2.6031353e-33
2.6031304e-33
2.6031288e-33
2.6031294e-33
2.6031345e-33
2.6032232e-33
2.6039568e-33
2.6031705e-33
2.6031079e-33
2.6030842e-33
2.6030728e-33
2.6030679e-33
2.6030664e-33
2.6030671e-33
2.6030727e-33
2.6031625e-33
2.6039331e-33
2.6031468e-33
2.6030842e-33
2.6030606e-33
2.6030492e-33
2.6030442e-33
2.6030428e-33
2.6030437e-33
2.6030494e-33
2.6031394e-33
2.6039216e-33
2.6031353e-33
2.6030728e-33
2.6030492e-33
2.6030378e-33
2.6030329e-33
2.6030315e-33
2.6030324e-33
2.6030382e-33
2.6031283e-33
2.6039166e-33
2.6031304e-33
2.6030679e-33
2.6030442e-33
2.6030329e-33
2.603028e-33
2.6030266e-33
2.6030276e-33
2.6030334e-33
2.6031235e-33
2.603915e-33
2.6031288e-33
2.6030664e-33
2.6030428e-33
2.6030315e-33
2.6030266e-33
2.6030253e-33
2.6030262e-33
2.603032e-33
2.6031222e-33
2.6039154e-33
2.6031294e-33
2.6030671e-33
2.6030437e-33
2.6030324e-33
2.6030276e-33
2.6030262e-33
2.6030272e-33
2.603033e-33
2.6031232e-33
2.6039193e-33
2.6031345e-33
2.6030727e-33
2.6030494e-33
2.6030382e-33
2.6030334e-33
2.603032e-33
2.603033e-33
2.6030388e-33
2.603129e-33
2.6039831e-33
2.6032232e-33
2.6031625e-33
2.6031394e-33
2.6031283e-33
2.6031235e-33
2.6031222e-33
2.6031232e-33
2.603129e-33
2.6032195e-33
8.5979117e-33
8.5954023e-33
8.5952025e-33
8.5951267e-33
8.59509e-33
8.5950739e-33
8.5950687e-33
8.59507e-33
8.5950823e-33
8.5952785e-33
8.5954023e-33
8.5929085e-33
8.5927091e-33
8.5926334e-33
8.5925967e-33
8.5925808e-33
8.5925758e-33
8.5925777e-33
8.592594e-33
8.5928716e-33
8.5952025e-33
8.5927091e-33
8.5925098e-33
8.5924341e-33
8.5923975e-33
8.5923816e-33
8.5923769e-33
8.5923794e-33
8.5923968e-33
8.5926781e-33
8.5951267e-33
8.5926334e-33
8.5924341e-33
8.5923584e-33
8.5923219e-33
8.5923061e-33
8.5923016e-33
8.5923044e-33
8.5923224e-33
8.5926043e-33
8.59509e-33
8.5925967e-33
8.5923975e-33
8.5923219e-33
8.5922853e-33
8.5922696e-33
8.5922652e-33
8.5922683e-33
8.5922865e-33
8.5925686e-33
8.5950739e-33
8.5925808e-33
8.5923816e-33
8.5923061e-33
8.5922696e-33
8.592254e-33
8.5922497e-33
8.5922528e-33
8.5922711e-33
8.5925534e-33
8.5950687e-33
8.5925758e-33
8.5923769e-33
8.5923016e-33
8.5922652e-33
8.5922497e-33
8.5922454e-33
8.5922485e-33
8.5922669e-33
8.5925492e-33
8.59507e-33
8.5925777e-33
8.5923794e-33
8.5923044e-33
8.5922683e-33
8.5922528e-33
8.5922485e-33
8.5922517e-33
8.5922701e-33
8.5925524e-33
8.5950823e-33
8.592594e-33
8.5923968e-33
8.5923224e-33
8.5922865e-33
8.5922711e-33
8.5922669e-33
8.5922701e-33
8.5922886e-33
8.5925709e-33
8.5952785e-33
8.5928716e-33
8.5926781e-33
8.5926043e-33
8.5925686e-33
8.5925534e-33
8.5925492e-33
8.5925524e-33
8.5925709e-33
8.5928543e-33
2.8850375e-32
2.884229e-32
2.8841643e-32
2.8841397e-32
2.8841278e-32
2.8841225e-32
2.8841209e-32
2.8841213e-32
2.8841252e-32
2.8841865e-32
2.884229e-32
2.8834256e-32
2.8833611e-32
2.8833364e-32
2.8833245e-32
2.8833193e-32
2.8833177e-32
2.8833183e-32
2.8833236e-32
2.8834119e-32
2.8841643e-32
2.8833611e-32
2.8832965e-32
2.8832719e-32
2.88326e-32
2.8832549e-32
2.8832533e-32
2.8832542e-32
2.8832598e-32
2.8833493e-32
2.8841397e-32
2.8833364e-32
2.8832719e-32
2.8832474e-32
2.8832355e-32
2.8832303e-32
2.8832289e-32
2.8832298e-32
2.8832356e-32
2.8833254e-32
2.8841278e-32
2.8833245e-32
2.88326e-32
2.8832355e-32
2.8832236e-32
2.8832185e-32
2.883217e-32
2.883218e-32
2.8832239e-32
2.8833138e-32
2.8841225e-32
2.8833193e-32
2.8832549e-32
2.8832303e-32
2.8832185e-32
2.8832134e-32
2.883212e-32
2.883213e-32
2.8832189e-32
2.8833088e-32
2.8841209e-32
2.8833177e-32
2.8832533e-32
2.8832289e-32
2.883217e-32
2.883212e-32
2.8832106e-32
2.8832116e-32
2.8832176e-32
2.8833075e-32
2.8841213e-32
2.8833183e-32
2.8832542e-32
2.8832298e-32
2.883218e-32
2.883213e-32
2.8832116e-32
2.8832127e-32
2.8832186e-32
2.8833085e-32
2.8841252e-32
2.8833236e-32
2.8832598e-32
2.8832356e-32
2.8832239e-32
2.8832189e-32
2.8832176e-32
2.8832186e-32
2.8832246e-32
2.8833145e-32
2.8841865e-32
2.8834119e-32
2.8833493e-32
2.8833254e-32
2.8833138e-32
2.8833088e-32
2.8833075e-32
2.8833085e-32
2.8833145e-32
2.8834047e-32
9.8407837e-32
9.8381377e-32
9.837925e-32
9.8378437e-32
9.8378042e-32
9.837787e-32
9.8377814e-32
9.8377828e-32
9.8377955e-32
9.8379903e-32
9.8381377e-32
9.8355081e-32
9.8352958e-32
9.8352146e-32
9.8351752e-32
9.835158e-32
9.8351527e-32
9.8351548e-32
9.8351719e-32
9.8354579e-32
9.837925e-32
9.8352958e-32
9.8350836e-32
9.8350025e-32
9.8349631e-32
9.8349461e-32
9.834941e-32
9.8349438e-32
9.8349621e-32
9.8352522e-32
9.8378437e-32
9.8352146e-32
9.8350025e-32
9.8349213e-32
9.834882e-32
9.8348651e-32
9.8348603e-32
9.8348634e-32
9.8348824e-32
9.8351731e-32
9.8378042e-32
9.8351752e-32
9.8349631e-32
9.834882e-32
9.8348427e-32
9.8348259e-32
9.8348212e-32
9.8348245e-32
9.8348438e-32
9.8351348e-32
9.837787e-32
9.835158e-32
9.8349461e-32
9.8348651e-32
9.8348259e-32
9.8348091e-32
9.8348045e-32
9.8348079e-32
9.8348273e-32
9.8351184e-32
9.8377814e-32
9.8351527e-32
9.834941e-32
9.8348603e-32
9.8348212e-32
9.8348045e-32
9.8347999e-32
9.8348034e-32
9.8348228e-32
9.8351139e-32
9.8377828e-32
9.8351548e-32
9.8349438e-32
9.8348634e-32
9.8348245e-32
9.8348079e-32
9.8348034e-32
9.8348069e-32
9.8348264e-32
9.8351175e-32
9.8377955e-32
9.8351719e-32
9.8349621e-32
9.8348824e-32
9.8348438e-32
9.8348273e-32
9.8348228e-32
9.8348264e-32
9.8348458e-32
9.835137e-32
9.8379903e-32
9.8354579e-32
9.8352522e-32
9.8351731e-32
9.8351348e-32
9.8351184e-32
9.8351139e-32
9.8351175e-32
9.835137e-32
9.8354293e-32
3.4119221e-31
3.4110423e-31
3.4109713e-31
3.410944e-31
3.4109308e-31
3.410925e-31
3.4109231e-31
3.4109236e-31
3.4109278e-31
3.4109907e-31
3.4110423e-31
3.410168e-31
3.4100971e-31
3.4100699e-31
3.4100566e-31
3.4100509e-31
3.4100491e-31
3.4100498e-31
3.4100555e-31
3.4101496e-31
3.4109713e-31
3.4100971e-31
3.4100262e-31
3.409999e-31
3.4099858e-31
3.4099801e-31
3.4099784e-31
3.4099793e-31
3.4099854e-31
3.4100809e-31
3.410944e-31
3.4100699e-31
3.409999e-31
3.4099718e-31
3.4099586e-31
3.4099529e-31
3.4099513e-31
3.4099524e-31
3.4099587e-31
3.4100544e-31
3.4109308e-31
3.4100566e-31
3.4099858e-31
3.4099586e-31
3.4099454e-31
3.4099398e-31
3.4099382e-31
3.4099393e-31
3.4099458e-31
3.4100416e-31
3.410925e-31
3.4100509e-31
3.4099801e-31
3.4099529e-31
3.4099398e-31
3.4099341e-31
3.4099326e-31
3.4099338e-31
3.4099402e-31
3.4100361e-31
3.4109231e-31
3.4100491e-31
3.4099784e-31
3.4099513e-31
3.4099382e-31
3.4099326e-31
3.4099311e-31
3.4099323e-31
3.4099387e-31
3.4100346e-31
3.4109236e-31
3.4100498e-31
3.4099793e-31
3.4099524e-31
3.4099393e-31
3.4099338e-31
3.4099323e-31
3.4099334e-31
3.4099399e-31
3.4100358e-31
3.4109278e-31
3.4100555e-31
3.4099854e-31
3.4099587e-31
3.4099458e-31
3.4099402e-31
3.4099387e-31
3.4099399e-31
3.4099464e-31
3.4100423e-31
3.4109907e-31
3.4101496e-31
3.4100809e-31
3.4100544e-31
3.4100416e-31
3.4100361e-31
3.4100346e-31
3.4100358e-31
3.4100423e-31
3.4101385e-31
1.2023314e-30
1.2020343e-30
1.2020101e-30
1.2020009e-30
1.2019964e-30
1.2019944e-30
1.2019938e-30
1.2019939e-30
1.2019953e-30
1.2020159e-30
1.2020343e-30
1.201739e-30
1.2017149e-30
1.2017056e-30
1.2017011e-30
1.2016992e-30
1.2016986e-30
1.2016988e-30
1.2017007e-30
1.2017322e-30
1.2020101e-30
1.2017149e-30
1.2016909e-30
1.2016816e-30
1.2016771e-30
1.2016752e-30
1.2016746e-30
1.2016749e-30
1.201677e-30
1.2017089e-30
1.2020009e-30
1.2017056e-30
1.2016816e-30
1.2016723e-30
1.2016678e-30
1.2016659e-30
1.2016654e-30
1.2016657e-30
1.2016679e-30
1.2016999e-30
1.2019964e-30
1.2017011e-30
1.2016771e-30
1.2016678e-30
1.2016634e-30
1.2016614e-30
1.2016609e-30
1.2016613e-30
1.2016635e-30
1.2016955e-30
1.2019944e-30
1.2016992e-30
1.2016752e-30
1.2016659e-30
1.2016614e-30
1.2016595e-30
1.201659e-30
1.2016594e-30
1.2016616e-30
1.2016937e-30
1.2019938e-30
1.2016986e-30
1.2016746e-30
1.2016654e-30
1.2016609e-30
1.201659e-30
1.2016585e-30
1.2016589e-30
1.2016611e-30
1.2016932e-30
1.2019939e-30
1.2016988e-30
1.2016749e-30
1.2016657e-30
1.2016613e-30
1.2016594e-30
1.2016589e-30
1.2016593e-30
1.2016615e-30
1.2016936e-30
1.2019953e-30
1.2017007e-30
1.201677e-30
1.2016679e-30
1.2016635e-30
1.2016616e-30
1.2016611e-30
1.2016615e-30
1.2016637e-30
1.2016958e-30
1.2020159e-30
1.2017322e-30
1.2017089e-30
1.2016999e-30
1.2016955e-30
1.2016937e-30
1.2016932e-30