/*--------------------------------*- C++ -*----------------------------------*\
| =========                 |                                                 |
| \\      /  F ield         | OpenFOAM: The Open Source CFD Toolbox           |
|  \\    /   O peration     | Version:  dev                                   |
|   \\  /    A nd           | Web:      www.OpenFOAM.org                      |
|    \\/     M anipulation  |                                                 |
\*---------------------------------------------------------------------------*/
FoamFile
{
    version     2.0;
    format      ascii;
    class       volScalarField;
    location    "53.995";
    object      A_0;
}
// * * * * * * * * * * * * * * * * * * * * * * * * * * * * * * * * * * * * * //

dimensions      [0 0 0 0 1 0 0];

internalField   nonuniform List<scalar> 
10000
(
1.9329044e-31
1.9291526e-31
1.9275332e-31
1.9268847e-31
1.9266562e-31
1.9265907e-31
1.9265948e-31
1.926666e-31
1.9268788e-31
1.9273983e-31
1.9291526e-31
1.9254199e-31
1.9238068e-31
1.9231605e-31
1.9229328e-31
1.922868e-31
1.9228742e-31
1.9229517e-31
1.9231845e-31
1.9237664e-31
1.9275332e-31
1.9238068e-31
1.9221967e-31
1.9215517e-31
1.9213246e-31
1.9212605e-31
1.9212685e-31
1.9213512e-31
1.9215959e-31
1.9221974e-31
1.9268847e-31
1.9231605e-31
1.9215517e-31
1.9209073e-31
1.9206806e-31
1.9206169e-31
1.920626e-31
1.9207113e-31
1.920961e-31
1.9215687e-31
1.9266562e-31
1.9229328e-31
1.9213246e-31
1.9206806e-31
1.920454e-31
1.9203906e-31
1.9204001e-31
1.9204864e-31
1.920738e-31
1.9213475e-31
1.9265907e-31
1.922868e-31
1.9212605e-31
1.9206169e-31
1.9203906e-31
1.9203273e-31
1.920337e-31
1.9204237e-31
1.9206758e-31
1.9212859e-31
1.9265948e-31
1.9228742e-31
1.9212685e-31
1.920626e-31
1.9204001e-31
1.920337e-31
1.9203469e-31
1.9204337e-31
1.920686e-31
1.9212962e-31
1.926666e-31
1.9229517e-31
1.9213512e-31
1.9207113e-31
1.9204864e-31
1.9204237e-31
1.9204337e-31
1.9205206e-31
1.920773e-31
1.9213834e-31
1.9268788e-31
1.9231845e-31
1.9215959e-31
1.920961e-31
1.920738e-31
1.9206758e-31
1.920686e-31
1.920773e-31
1.9210257e-31
1.9216366e-31
1.9273983e-31
1.9237664e-31
1.9221974e-31
1.9215687e-31
1.9213475e-31
1.9212859e-31
1.9212962e-31
1.9213834e-31
1.9216366e-31
1.9222493e-31
6.8915169e-31
6.8786343e-31
6.8729364e-31
6.8706501e-31
6.8698438e-31
6.8696124e-31
6.8696266e-31
6.8698764e-31
6.8706248e-31
6.8725257e-31
6.8786343e-31
6.8658161e-31
6.8601397e-31
6.8578609e-31
6.8570575e-31
6.8568288e-31
6.8568501e-31
6.8571225e-31
6.857942e-31
6.8600661e-31
6.8729364e-31
6.8601397e-31
6.8544739e-31
6.8521997e-31
6.8513984e-31
6.8511722e-31
6.8512001e-31
6.8514908e-31
6.8523524e-31
6.8545463e-31
6.8706501e-31
6.8578609e-31
6.8521997e-31
6.8499275e-31
6.8491274e-31
6.8489028e-31
6.8489345e-31
6.8492344e-31
6.8501141e-31
6.85233e-31
6.8698438e-31
6.8570575e-31
6.8513984e-31
6.8491274e-31
6.848328e-31
6.8481041e-31
6.8481375e-31
6.8484412e-31
6.8493273e-31
6.8515497e-31
6.8696124e-31
6.8568288e-31
6.8511722e-31
6.8489028e-31
6.8481041e-31
6.8478807e-31
6.8479148e-31
6.8482197e-31
6.8491079e-31
6.8513321e-31
6.8696266e-31
6.8568501e-31
6.8512001e-31
6.8489345e-31
6.8481375e-31
6.8479148e-31
6.8479492e-31
6.8482547e-31
6.8491435e-31
6.8513683e-31
6.8698764e-31
6.8571225e-31
6.8514908e-31
6.8492344e-31
6.8484412e-31
6.8482197e-31
6.8482547e-31
6.8485605e-31
6.8494497e-31
6.8516751e-31
6.8706248e-31
6.857942e-31
6.8523524e-31
6.8501141e-31
6.8493273e-31
6.8491079e-31
6.8491435e-31
6.8494497e-31
6.8503397e-31
6.852567e-31
6.8725257e-31
6.8600661e-31
6.8545463e-31
6.85233e-31
6.8515497e-31
6.8513321e-31
6.8513683e-31
6.8516751e-31
6.852567e-31
6.8548011e-31
1.5873443e-30
1.5844716e-30
1.5831876e-30
1.5826711e-30
1.5824888e-30
1.5824364e-30
1.5824395e-30
1.5824954e-30
1.5826632e-30
1.5831021e-30
1.5844716e-30
1.5816132e-30
1.5803338e-30
1.5798191e-30
1.5796374e-30
1.5795857e-30
1.5795903e-30
1.5796515e-30
1.5798355e-30
1.5803257e-30
1.5831876e-30
1.5803338e-30
1.5790569e-30
1.5785432e-30
1.578362e-30
1.5783108e-30
1.578317e-30
1.5783823e-30
1.578576e-30
1.5790822e-30
1.5826711e-30
1.5798191e-30
1.5785432e-30
1.5780299e-30
1.577849e-30
1.5777981e-30
1.5778052e-30
1.5778727e-30
1.5780705e-30
1.5785817e-30
1.5824888e-30
1.5796374e-30
1.578362e-30
1.577849e-30
1.5776682e-30
1.5776175e-30
1.577625e-30
1.5776933e-30
1.5778926e-30
1.5784053e-30
1.5824364e-30
1.5795857e-30
1.5783108e-30
1.5777981e-30
1.5776175e-30
1.577567e-30
1.5775746e-30
1.5776432e-30
1.5778429e-30
1.5783561e-30
1.5824395e-30
1.5795903e-30
1.578317e-30
1.5778052e-30
1.577625e-30
1.5775746e-30
1.5775823e-30
1.577651e-30
1.5778509e-30
1.5783642e-30
1.5824954e-30
1.5796515e-30
1.5783823e-30
1.5778727e-30
1.5776933e-30
1.5776432e-30
1.577651e-30
1.5777198e-30
1.5779198e-30
1.5784332e-30
1.5826632e-30
1.5798355e-30
1.578576e-30
1.5780705e-30
1.5778926e-30
1.5778429e-30
1.5778509e-30
1.5779198e-30
1.57812e-30
1.5786338e-30
1.5831021e-30
1.5803257e-30
1.5790822e-30
1.5785817e-30
1.5784053e-30
1.5783561e-30
1.5783642e-30
1.5784332e-30
1.5786338e-30
1.5791492e-30
3.4416525e-30
3.435621e-30
3.4329092e-30
3.4318162e-30
3.4314298e-30
3.4313186e-30
3.4313247e-30
3.4314419e-30
3.4317924e-30
3.4327142e-30
3.435621e-30
3.4296189e-30
3.426917e-30
3.4258274e-30
3.4254424e-30
3.4253325e-30
3.4253421e-30
3.4254705e-30
3.4258562e-30
3.4268887e-30
3.4329092e-30
3.426917e-30
3.4242201e-30
3.4231327e-30
3.4227486e-30
3.42264e-30
3.4226529e-30
3.4227902e-30
3.4231967e-30
3.4242638e-30
3.4318162e-30
3.4258274e-30
3.4231327e-30
3.4220462e-30
3.4216628e-30
3.4215549e-30
3.4215696e-30
3.4217116e-30
3.4221269e-30
3.4232048e-30
3.4314298e-30
3.4254424e-30
3.4227486e-30
3.4216628e-30
3.4212796e-30
3.4211721e-30
3.4211877e-30
3.4213315e-30
3.42175e-30
3.4228311e-30
3.4313186e-30
3.4253325e-30
3.42264e-30
3.4215549e-30
3.4211721e-30
3.4210648e-30
3.4210807e-30
3.4212251e-30
3.4216447e-30
3.4227267e-30
3.4313247e-30
3.4253421e-30
3.4226529e-30
3.4215696e-30
3.4211877e-30
3.4210807e-30
3.4210969e-30
3.4212415e-30
3.4216613e-30
3.4227437e-30
3.4314419e-30
3.4254705e-30
3.4227902e-30
3.4217116e-30
3.4213315e-30
3.4212251e-30
3.4212415e-30
3.4213863e-30
3.4218063e-30
3.422889e-30
3.4317924e-30
3.4258562e-30
3.4231967e-30
3.4221269e-30
3.42175e-30
3.4216447e-30
3.4216613e-30
3.4218063e-30
3.4222268e-30
3.4233103e-30
3.4327142e-30
3.4268887e-30
3.4242638e-30
3.4232048e-30
3.4228311e-30
3.4227267e-30
3.4227437e-30
3.422889e-30
3.4233103e-30
3.4243972e-30
7.4415494e-30
7.4289239e-30
7.4232241e-30
7.4209219e-30
7.420107e-30
7.4198722e-30
7.4198843e-30
7.4201283e-30
7.4208552e-30
7.4227589e-30
7.4289239e-30
7.4163591e-30
7.4106799e-30
7.4083849e-30
7.4075729e-30
7.4073408e-30
7.4073604e-30
7.4076283e-30
7.4084308e-30
7.4105728e-30
7.4232241e-30
7.4106799e-30
7.405011e-30
7.4027204e-30
7.4019105e-30
7.401681e-30
7.4017076e-30
7.4019949e-30
7.4028421e-30
7.4050583e-30
7.4209219e-30
7.4083849e-30
7.4027204e-30
7.400432e-30
7.3996232e-30
7.3993953e-30
7.3994259e-30
7.399723e-30
7.4005893e-30
7.4028289e-30
7.420107e-30
7.4075729e-30
7.4019105e-30
7.3996232e-30
7.3988151e-30
7.3985881e-30
7.3986204e-30
7.3989215e-30
7.3997946e-30
7.4020411e-30
7.4198722e-30
7.4073408e-30
7.401681e-30
7.3993953e-30
7.3985881e-30
7.3983615e-30
7.3983946e-30
7.398697e-30
7.3995722e-30
7.4018207e-30
7.4198843e-30
7.4073604e-30
7.4017076e-30
7.3994259e-30
7.3986204e-30
7.3983946e-30
7.3984281e-30
7.398731e-30
7.3996069e-30
7.401856e-30
7.4201283e-30
7.4076283e-30
7.4019949e-30
7.399723e-30
7.3989215e-30
7.398697e-30
7.398731e-30
7.3990342e-30
7.3999105e-30
7.4021602e-30
7.4208552e-30
7.4084308e-30
7.4028421e-30
7.4005893e-30
7.3997946e-30
7.3995722e-30
7.3996069e-30
7.3999105e-30
7.4007877e-30
7.4030392e-30
7.4227589e-30
7.4105728e-30
7.4050583e-30
7.4028289e-30
7.4020411e-30
7.4018207e-30
7.401856e-30
7.4021602e-30
7.4030392e-30
7.4052976e-30
1.6243591e-29
1.6216921e-29
1.6204838e-29
1.6199948e-29
1.6198215e-29
1.6197715e-29
1.6197739e-29
1.6198251e-29
1.619977e-29
1.6203719e-29
1.6216921e-29
1.6190378e-29
1.6178338e-29
1.6173463e-29
1.6171736e-29
1.6171241e-29
1.6171282e-29
1.6171846e-29
1.6173529e-29
1.6177995e-29
1.6204838e-29
1.6178338e-29
1.616632e-29
1.6161454e-29
1.6159731e-29
1.6159242e-29
1.6159298e-29
1.6159904e-29
1.6161684e-29
1.6166311e-29
1.6199948e-29
1.6173463e-29
1.6161454e-29
1.6156592e-29
1.6154872e-29
1.6154387e-29
1.6154451e-29
1.6155078e-29
1.6156899e-29
1.6161578e-29
1.6198215e-29
1.6171736e-29
1.6159731e-29
1.6154872e-29
1.6153153e-29
1.615267e-29
1.6152738e-29
1.6153373e-29
1.6155209e-29
1.6159903e-29
1.6197715e-29
1.6171241e-29
1.6159242e-29
1.6154387e-29
1.615267e-29
1.6152187e-29
1.6152257e-29
1.6152895e-29
1.6154736e-29
1.6159434e-29
1.6197739e-29
1.6171282e-29
1.6159298e-29
1.6154451e-29
1.6152738e-29
1.6152257e-29
1.6152327e-29
1.6152967e-29
1.6154809e-29
1.6159508e-29
1.6198251e-29
1.6171846e-29
1.6159904e-29
1.6155078e-29
1.6153373e-29
1.6152895e-29
1.6152967e-29
1.6153607e-29
1.615545e-29
1.616015e-29
1.619977e-29
1.6173529e-29
1.6161684e-29
1.6156899e-29
1.6155209e-29
1.6154736e-29
1.6154809e-29
1.615545e-29
1.6157295e-29
1.6161999e-29
1.6203719e-29
1.6177995e-29
1.6166311e-29
1.6161578e-29
1.6159903e-29
1.6159434e-29
1.6159508e-29
1.616015e-29
1.6161999e-29
1.6166717e-29
3.5893212e-29
3.5836205e-29
3.5810291e-29
3.5799782e-29
3.5796053e-29
3.5794975e-29
3.5795023e-29
3.5796111e-29
3.5799322e-29
3.5807602e-29
3.5836205e-29
3.5779466e-29
3.5753643e-29
3.5743166e-29
3.5739449e-29
3.5738384e-29
3.5738467e-29
3.5739669e-29
3.574324e-29
3.5752656e-29
3.5810291e-29
3.5753643e-29
3.5727865e-29
3.5717408e-29
3.5713701e-29
3.5712648e-29
3.5712765e-29
3.5714058e-29
3.5717841e-29
3.5727611e-29
3.5799782e-29
3.5743166e-29
3.5717408e-29
3.570696e-29
3.5703259e-29
3.5702213e-29
3.5702349e-29
3.5703689e-29
3.5707562e-29
3.5717443e-29
3.5796053e-29
3.5739449e-29
3.5713701e-29
3.5703259e-29
3.569956e-29
3.5698519e-29
3.5698663e-29
3.5700021e-29
3.5703927e-29
3.5713841e-29
3.5794975e-29
3.5738384e-29
3.5712648e-29
3.5702213e-29
3.5698519e-29
3.569748e-29
3.5697627e-29
3.5698992e-29
3.5702908e-29
3.5712831e-29
3.5795023e-29
3.5738467e-29
3.5712765e-29
3.5702349e-29
3.5698663e-29
3.5697627e-29
3.5697776e-29
3.5699144e-29
3.5703063e-29
3.5712989e-29
3.5796111e-29
3.5739669e-29
3.5714058e-29
3.5703689e-29
3.5700021e-29
3.5698992e-29
3.5699144e-29
3.5700512e-29
3.5704433e-29
3.5714362e-29
3.5799322e-29
3.574324e-29
3.5717841e-29
3.5707562e-29
3.5703927e-29
3.5702908e-29
3.5703063e-29
3.5704433e-29
3.5708358e-29
3.5718294e-29
3.5807602e-29
3.5752656e-29
3.5727611e-29
3.5717443e-29
3.5713841e-29
3.5712831e-29
3.5712989e-29
3.5714362e-29
3.5718294e-29
3.5728261e-29
8.0340738e-29
8.0217358e-29
8.016109e-29
8.0138227e-29
8.0130104e-29
8.0127752e-29
8.0127849e-29
8.0130188e-29
8.0137061e-29
8.0154633e-29
8.0217358e-29
8.0094554e-29
8.0038479e-29
8.0015684e-29
8.0007588e-29
8.0005265e-29
8.000544e-29
8.0008033e-29
8.0015704e-29
8.0035804e-29
8.016109e-29
8.0038479e-29
7.9982503e-29
7.9959751e-29
7.9951675e-29
7.9949379e-29
7.9949628e-29
7.9952423e-29
7.9960566e-29
7.9981451e-29
8.0138227e-29
8.0015684e-29
7.9959751e-29
7.9937019e-29
7.9928955e-29
7.9926676e-29
7.9926967e-29
7.9929865e-29
7.9938209e-29
7.9959341e-29
8.0130104e-29
8.0007588e-29
7.9951675e-29
7.9928955e-29
7.9920899e-29
7.9918627e-29
7.9918937e-29
7.9921877e-29
7.9930292e-29
7.9951497e-29
8.0127752e-29
8.0005265e-29
7.9949379e-29
7.9926676e-29
7.9918627e-29
7.9916361e-29
7.9916679e-29
7.9919633e-29
7.992807e-29
7.9949296e-29
8.0127849e-29
8.000544e-29
7.9949628e-29
7.9926967e-29
7.9918937e-29
7.9916679e-29
7.9917e-29
7.9919959e-29
7.9928404e-29
7.9949637e-29
8.0130188e-29
8.0008033e-29
7.9952423e-29
7.9929865e-29
7.9921877e-29
7.9919633e-29
7.9919959e-29
7.9922922e-29
7.993137e-29
7.9952609e-29
8.0137061e-29
8.0015704e-29
7.9960566e-29
7.9938209e-29
7.9930292e-29
7.992807e-29
7.9928404e-29
7.993137e-29
7.9939827e-29
7.9961081e-29
8.0154633e-29
8.0035804e-29
7.9981451e-29
7.9959341e-29
7.9951497e-29
7.9949296e-29
7.9949637e-29
7.9952609e-29
7.9961081e-29
7.9982399e-29
1.8219496e-28
1.8192454e-28
1.8180081e-28
1.8175045e-28
1.8173253e-28
1.8172733e-28
1.8172753e-28
1.8173263e-28
1.8174752e-28
1.8178529e-28
1.8192454e-28
1.8165537e-28
1.8153206e-28
1.8148184e-28
1.8146398e-28
1.8145885e-28
1.8145922e-28
1.8146489e-28
1.8148158e-28
1.8152504e-28
1.8180081e-28
1.8153206e-28
1.8140897e-28
1.8135884e-28
1.8134103e-28
1.8133595e-28
1.8133649e-28
1.8134261e-28
1.8136037e-28
1.814056e-28
1.8175045e-28
1.8148184e-28
1.8135884e-28
1.8130876e-28
1.8129097e-28
1.8128594e-28
1.8128657e-28
1.8129292e-28
1.8131113e-28
1.8135691e-28
1.8173253e-28
1.8146398e-28
1.8134103e-28
1.8129097e-28
1.812732e-28
1.8126818e-28
1.8126886e-28
1.812753e-28
1.8129367e-28
1.8133962e-28
1.8172733e-28
1.8145885e-28
1.8133595e-28
1.8128594e-28
1.8126818e-28
1.8126318e-28
1.8126387e-28
1.8127035e-28
1.8128876e-28
1.8133476e-28
1.8172753e-28
1.8145922e-28
1.8133649e-28
1.8128657e-28
1.8126886e-28
1.8126387e-28
1.8126457e-28
1.8127106e-28
1.8128949e-28
1.813355e-28
1.8173263e-28
1.8146489e-28
1.8134261e-28
1.8129292e-28
1.812753e-28
1.8127035e-28
1.8127106e-28
1.8127756e-28
1.81296e-28
1.8134202e-28
1.8174752e-28
1.8148158e-28
1.8136037e-28
1.8131113e-28
1.8129367e-28
1.8128876e-28
1.8128949e-28
1.81296e-28
1.8131446e-28
1.8136051e-28
1.8178529e-28
1.8152504e-28
1.814056e-28
1.8135691e-28
1.8133962e-28
1.8133476e-28
1.813355e-28
1.8134202e-28
1.8136051e-28
1.814067e-28
4.1865268e-28
4.180524e-28
4.1777687e-28
4.176645e-28
4.1762448e-28
4.1761286e-28
4.1761327e-28
4.1762451e-28
4.1765723e-28
4.1773944e-28
4.180524e-28
4.1745485e-28
4.1718025e-28
4.170682e-28
4.1702831e-28
4.1701683e-28
4.1701764e-28
4.1703018e-28
4.1706699e-28
4.1716219e-28
4.1777687e-28
4.1718025e-28
4.1690612e-28
4.1679428e-28
4.1675448e-28
4.1674314e-28
4.1674433e-28
4.167579e-28
4.1679713e-28
4.1689636e-28
4.176645e-28
4.170682e-28
4.1679428e-28
4.1668253e-28
4.166428e-28
4.1663154e-28
4.1663294e-28
4.1664704e-28
4.1668729e-28
4.1678778e-28
4.1762448e-28
4.1702831e-28
4.1675448e-28
4.166428e-28
4.166031e-28
4.1659188e-28
4.1659338e-28
4.1660769e-28
4.1664831e-28
4.1674918e-28
4.1761286e-28
4.1701683e-28
4.1674314e-28
4.1663154e-28
4.1659188e-28
4.165807e-28
4.1658223e-28
4.1659662e-28
4.1663735e-28
4.1673832e-28
4.1761327e-28
4.1701764e-28
4.1674433e-28
4.1663294e-28
4.1659338e-28
4.1658223e-28
4.1658378e-28
4.165982e-28
4.1663896e-28
4.1673997e-28
4.1762451e-28
4.1703018e-28
4.167579e-28
4.1664704e-28
4.1660769e-28
4.1659662e-28
4.165982e-28
4.1661263e-28
4.1665341e-28
4.1675445e-28
4.1765723e-28
4.1706699e-28
4.1679713e-28
4.1668729e-28
4.1664831e-28
4.1663735e-28
4.1663896e-28
4.1665341e-28
4.1669423e-28
4.1679534e-28
4.1773944e-28
4.1716219e-28
4.1689636e-28
4.1678778e-28
4.1674918e-28
4.1673832e-28
4.1673997e-28
4.1675445e-28
4.1679534e-28
4.1689674e-28
9.7480239e-28
9.7345275e-28
9.7283135e-28
9.7257744e-28
9.7248689e-28
9.7246057e-28
9.7246142e-28
9.7248657e-28
9.7255935e-28
9.7274066e-28
9.7345275e-28
9.7210921e-28
9.7148985e-28
9.7123666e-28
9.7114641e-28
9.7112041e-28
9.7112218e-28
9.7115031e-28
9.7123255e-28
9.7144384e-28
9.7283135e-28
9.7148985e-28
9.7087155e-28
9.7061882e-28
9.7052879e-28
9.7050311e-28
9.7050575e-28
9.7053627e-28
9.7062406e-28
9.7084466e-28
9.7257744e-28
9.7123666e-28
9.7061882e-28
9.7036631e-28
9.7027642e-28
9.7025093e-28
9.7025406e-28
9.7028579e-28
9.7037595e-28
9.7059946e-28
9.7248689e-28
9.7114641e-28
9.7052879e-28
9.7027642e-28
9.701866e-28
9.7016121e-28
9.7016456e-28
9.7019678e-28
9.7028778e-28
9.7051216e-28
9.7246057e-28
9.7112041e-28
9.7050311e-28
9.7025093e-28
9.7016121e-28
9.7013588e-28
9.7013932e-28
9.7017171e-28
9.7026297e-28
9.704876e-28
9.7246142e-28
9.7112218e-28
9.7050575e-28
9.7025406e-28
9.7016456e-28
9.7013932e-28
9.701428e-28
9.7017525e-28
9.702666e-28
9.704913e-28
9.7248657e-28
9.7115031e-28
9.7053627e-28
9.7028579e-28
9.7019678e-28
9.7017171e-28
9.7017525e-28
9.7020774e-28
9.7029913e-28
9.705239e-28
9.7255935e-28
9.7123255e-28
9.7062406e-28
9.7037595e-28
9.7028778e-28
9.7026297e-28
9.702666e-28
9.7029913e-28
9.7039061e-28
9.7061553e-28
9.7274066e-28
9.7144384e-28
9.7084466e-28
9.7059946e-28
9.7051216e-28
9.704876e-28
9.704913e-28
9.705239e-28
9.7061553e-28
9.7084109e-28
2.3001033e-27
2.2970298e-27
2.2956103e-27
2.2950292e-27
2.2948218e-27
2.2947614e-27
2.2947632e-27
2.2948201e-27
2.2949842e-27
2.2953892e-27
2.2970298e-27
2.29397e-27
2.2925551e-27
2.2919757e-27
2.2917689e-27
2.2917092e-27
2.2917132e-27
2.2917771e-27
2.2919633e-27
2.2924385e-27
2.2956103e-27
2.2925551e-27
2.2911426e-27
2.2905642e-27
2.290358e-27
2.2902991e-27
2.290305e-27
2.2903745e-27
2.2905736e-27
2.2910706e-27
2.2950292e-27
2.2919757e-27
2.2905642e-27
2.2899863e-27
2.2897804e-27
2.2897219e-27
2.289729e-27
2.2898014e-27
2.290006e-27
2.2905098e-27
2.2948218e-27
2.2917689e-27
2.290358e-27
2.2897804e-27
2.2895746e-27
2.2895163e-27
2.289524e-27
2.2895974e-27
2.2898041e-27
2.2903099e-27
2.2947614e-27
2.2917092e-27
2.2902991e-27
2.2897219e-27
2.2895163e-27
2.2894583e-27
2.2894661e-27
2.28954e-27
2.2897472e-27
2.2902536e-27
2.2947632e-27
2.2917132e-27
2.290305e-27
2.289729e-27
2.289524e-27
2.2894661e-27
2.289474e-27
2.289548e-27
2.2897555e-27
2.290262e-27
2.2948201e-27
2.2917771e-27
2.2903745e-27
2.2898014e-27
2.2895974e-27
2.28954e-27
2.289548e-27
2.2896221e-27
2.2898297e-27
2.2903363e-27
2.2949842e-27
2.2919633e-27
2.2905736e-27
2.290006e-27
2.2898041e-27
2.2897472e-27
2.2897555e-27
2.2898297e-27
2.2900374e-27
2.2905444e-27
2.2953892e-27
2.2924385e-27
2.2910706e-27
2.2905098e-27
2.2903099e-27
2.2902536e-27
2.290262e-27
2.2903363e-27
2.2905444e-27
2.2910529e-27
5.5000256e-27
5.4929358e-27
5.4896517e-27
5.4883049e-27
5.4878235e-27
5.4876832e-27
5.487687e-27
5.4878177e-27
5.4881924e-27
5.4891092e-27
5.4929358e-27
5.4858775e-27
5.4826038e-27
5.4812607e-27
5.4807808e-27
5.4806423e-27
5.4806512e-27
5.4807984e-27
5.4812254e-27
5.4823084e-27
5.4896517e-27
5.4826038e-27
5.4793356e-27
5.4779948e-27
5.4775162e-27
5.4773794e-27
5.477393e-27
5.4775535e-27
5.4780111e-27
5.4791456e-27
5.4883049e-27
5.4812607e-27
5.4779948e-27
5.4766553e-27
5.4761773e-27
5.4760416e-27
5.4760579e-27
5.4762251e-27
5.4766958e-27
5.4778464e-27
5.4878235e-27
5.4807808e-27
5.4775162e-27
5.4761773e-27
5.4756998e-27
5.4755646e-27
5.4755821e-27
5.475752e-27
5.4762274e-27
5.4773828e-27
5.4876832e-27
5.4806423e-27
5.4773794e-27
5.4760416e-27
5.4755646e-27
5.4754297e-27
5.4754478e-27
5.4756185e-27
5.4760953e-27
5.4772522e-27
5.487687e-27
5.4806512e-27
5.477393e-27
5.4760579e-27
5.4755821e-27
5.4754478e-27
5.4754661e-27
5.4756372e-27
5.4761145e-27
5.4772717e-27
5.4878177e-27
5.4807984e-27
5.4775535e-27
5.4762251e-27
5.475752e-27
5.4756185e-27
5.4756372e-27
5.4758084e-27
5.476286e-27
5.4774435e-27
5.4881924e-27
5.4812254e-27
5.4780111e-27
5.4766958e-27
5.4762274e-27
5.4760953e-27
5.4761145e-27
5.476286e-27
5.4767639e-27
5.4779223e-27
5.4891092e-27
5.4823084e-27
5.4791456e-27
5.4778464e-27
5.4773828e-27
5.4772522e-27
5.4772717e-27
5.4774435e-27
5.4779223e-27
5.4790838e-27
1.3328552e-26
1.3311987e-26
1.3304291e-26
1.3301129e-26
1.3299997e-26
1.3299667e-26
1.3299675e-26
1.329998e-26
1.3300847e-26
1.3302949e-26
1.3311987e-26
1.3295494e-26
1.3287822e-26
1.3284669e-26
1.3283541e-26
1.3283215e-26
1.3283235e-26
1.3283579e-26
1.3284571e-26
1.3287073e-26
1.3304291e-26
1.3287822e-26
1.3280163e-26
1.3277015e-26
1.327589e-26
1.3275568e-26
1.32756e-26
1.3275975e-26
1.3277041e-26
1.3279666e-26
1.3301129e-26
1.3284669e-26
1.3277015e-26
1.327387e-26
1.3272747e-26
1.3272427e-26
1.3272466e-26
1.3272857e-26
1.3273954e-26
1.3276618e-26
1.3299997e-26
1.3283541e-26
1.327589e-26
1.3272747e-26
1.3271624e-26
1.3271306e-26
1.3271347e-26
1.3271745e-26
1.3272853e-26
1.3275529e-26
1.3299667e-26
1.3283215e-26
1.3275568e-26
1.3272427e-26
1.3271306e-26
1.3270989e-26
1.3271031e-26
1.3271431e-26
1.3272543e-26
1.3275221e-26
1.3299675e-26
1.3283235e-26
1.32756e-26
1.3272466e-26
1.3271347e-26
1.3271031e-26
1.3271074e-26
1.3271475e-26
1.3272588e-26
1.3275267e-26
1.329998e-26
1.3283579e-26
1.3275975e-26
1.3272857e-26
1.3271745e-26
1.3271431e-26
1.3271475e-26
1.3271876e-26
1.327299e-26
1.327567e-26
1.3300847e-26
1.3284571e-26
1.3277041e-26
1.3273954e-26
1.3272853e-26
1.3272543e-26
1.3272588e-26
1.327299e-26
1.3274104e-26
1.3276786e-26
1.3302949e-26
1.3287073e-26
1.3279666e-26
1.3276618e-26
1.3275529e-26
1.3275221e-26
1.3275267e-26
1.327567e-26
1.3276786e-26
1.3279475e-26
3.2734971e-26
3.2695765e-26
3.2677496e-26
3.2669978e-26
3.2667285e-26
3.2666498e-26
3.2666516e-26
3.2667233e-26
3.2669266e-26
3.267415e-26
3.2695765e-26
3.2656729e-26
3.2638517e-26
3.2631019e-26
3.2628334e-26
3.2627558e-26
3.2627605e-26
3.2628418e-26
3.2630755e-26
3.2636609e-26
3.2677496e-26
3.2638517e-26
3.2620335e-26
3.261285e-26
3.2610172e-26
3.2609405e-26
3.260948e-26
3.2610369e-26
3.2612885e-26
3.261904e-26
3.2669978e-26
3.2631019e-26
3.261285e-26
3.2605371e-26
3.2602697e-26
3.2601936e-26
3.2602027e-26
3.2602955e-26
3.2605548e-26
3.2611796e-26
3.2667285e-26
3.2628334e-26
3.2610172e-26
3.2602697e-26
3.2600025e-26
3.2599268e-26
3.2599365e-26
3.2600309e-26
3.2602929e-26
3.2609205e-26
3.2666498e-26
3.2627558e-26
3.2609405e-26
3.2601936e-26
3.2599268e-26
3.2598512e-26
3.2598613e-26
3.2599562e-26
3.260219e-26
3.2608474e-26
3.2666516e-26
3.2627605e-26
3.260948e-26
3.2602027e-26
3.2599365e-26
3.2598613e-26
3.2598715e-26
3.2599666e-26
3.2602296e-26
3.2608583e-26
3.2667233e-26
3.2628418e-26
3.2610369e-26
3.2602955e-26
3.2600309e-26
3.2599562e-26
3.2599666e-26
3.2600618e-26
3.260325e-26
3.2609539e-26
3.2669266e-26
3.2630755e-26
3.2612885e-26
3.2605548e-26
3.2602929e-26
3.260219e-26
3.2602296e-26
3.260325e-26
3.2605884e-26
3.2612177e-26
3.267415e-26
3.2636609e-26
3.261904e-26
3.2611796e-26
3.2609205e-26
3.2608474e-26
3.2608583e-26
3.2609539e-26
3.2612177e-26
3.2618486e-26
8.1481064e-26
8.1387074e-26
8.1343152e-26
8.1325047e-26
8.1318554e-26
8.1316655e-26
8.1316694e-26
8.1318406e-26
8.1323236e-26
8.1334735e-26
8.1387074e-26
8.1293488e-26
8.12497e-26
8.1231642e-26
8.1225169e-26
8.1223295e-26
8.1223406e-26
8.1225355e-26
8.1230934e-26
8.1244821e-26
8.1343152e-26
8.12497e-26
8.1205984e-26
8.1187957e-26
8.11815e-26
8.117965e-26
8.1179829e-26
8.1181965e-26
8.1187985e-26
8.1202611e-26
8.1325047e-26
8.1231642e-26
8.1187957e-26
8.1169945e-26
8.1163497e-26
8.1161663e-26
8.1161881e-26
8.1164113e-26
8.1170319e-26
8.1185176e-26
8.1318554e-26
8.1225169e-26
8.11815e-26
8.1163497e-26
8.1157056e-26
8.1155229e-26
8.1155464e-26
8.1157734e-26
8.1164006e-26
8.1178933e-26
8.1316655e-26
8.1223295e-26
8.117965e-26
8.1161663e-26
8.1155229e-26
8.1153406e-26
8.1153648e-26
8.1155932e-26
8.1162225e-26
8.1177171e-26
8.1316694e-26
8.1223406e-26
8.1179829e-26
8.1161881e-26
8.1155464e-26
8.1153648e-26
8.1153895e-26
8.1156183e-26
8.1162482e-26
8.1177434e-26
8.1318406e-26
8.1225355e-26
8.1181965e-26
8.1164113e-26
8.1157734e-26
8.1155932e-26
8.1156183e-26
8.1158473e-26
8.1164776e-26
8.1179732e-26
8.1323236e-26
8.1230934e-26
8.1187985e-26
8.1170319e-26
8.1164006e-26
8.1162225e-26
8.1162482e-26
8.1164776e-26
8.1171084e-26
8.118605e-26
8.1334735e-26
8.1244821e-26
8.1202611e-26
8.1185176e-26
8.1178933e-26
8.1177171e-26
8.1177434e-26
8.1179732e-26
8.118605e-26
8.1201054e-26
2.0554989e-25
2.0532166e-25
2.052147e-25
2.0517054e-25
2.0515468e-25
2.0515004e-25
2.0515013e-25
2.0515427e-25
2.051659e-25
2.0519333e-25
2.0532166e-25
2.0509439e-25
2.0498776e-25
2.0494371e-25
2.049279e-25
2.0492332e-25
2.0492359e-25
2.0492832e-25
2.0494182e-25
2.049752e-25
2.052147e-25
2.0498776e-25
2.048813e-25
2.0483732e-25
2.0482156e-25
2.0481704e-25
2.0481747e-25
2.0482267e-25
2.0483726e-25
2.0487249e-25
2.0517054e-25
2.0494371e-25
2.0483732e-25
2.0479339e-25
2.0477764e-25
2.0477316e-25
2.0477369e-25
2.0477913e-25
2.0479419e-25
2.0482999e-25
2.0515468e-25
2.049279e-25
2.0482156e-25
2.0477764e-25
2.0476191e-25
2.0475745e-25
2.0475802e-25
2.0476356e-25
2.0477878e-25
2.0481476e-25
2.0515004e-25
2.0492332e-25
2.0481704e-25
2.0477316e-25
2.0475745e-25
2.04753e-25
2.0475359e-25
2.0475916e-25
2.0477443e-25
2.0481046e-25
2.0515013e-25
2.0492359e-25
2.0481747e-25
2.0477369e-25
2.0475802e-25
2.0475359e-25
2.0475419e-25
2.0475977e-25
2.0477506e-25
2.048111e-25
2.0515427e-25
2.0492832e-25
2.0482267e-25
2.0477913e-25
2.0476356e-25
2.0475916e-25
2.0475977e-25
2.0476535e-25
2.0478065e-25
2.048167e-25
2.051659e-25
2.0494182e-25
2.0483726e-25
2.0479419e-25
2.0477878e-25
2.0477443e-25
2.0477506e-25
2.0478065e-25
2.0479596e-25
2.0483204e-25
2.0519333e-25
2.049752e-25
2.0487249e-25
2.0482999e-25
2.0481476e-25
2.0481046e-25
2.048111e-25
2.048167e-25
2.0483204e-25
2.048682e-25
5.2551896e-25
5.2495761e-25
5.2469381e-25
5.2458472e-25
5.2454551e-25
5.2453402e-25
5.2453421e-25
5.2454438e-25
5.2457275e-25
5.2463904e-25
5.2495761e-25
5.2439862e-25
5.2413561e-25
5.2402679e-25
5.2398769e-25
5.2397636e-25
5.2397701e-25
5.2398865e-25
5.2402174e-25
5.2410308e-25
5.2469381e-25
5.2413561e-25
5.2387302e-25
5.2376438e-25
5.2372538e-25
5.237142e-25
5.2371528e-25
5.237281e-25
5.2376395e-25
5.2384995e-25
5.2458472e-25
5.2402679e-25
5.2376438e-25
5.2365583e-25
5.236169e-25
5.236058e-25
5.2360712e-25
5.2362055e-25
5.2365758e-25
5.2374502e-25
5.2454551e-25
5.2398769e-25
5.2372538e-25
5.236169e-25
5.23578e-25
5.2356695e-25
5.2356838e-25
5.2358205e-25
5.2361949e-25
5.2370737e-25
5.2453402e-25
5.2397636e-25
5.237142e-25
5.236058e-25
5.2356695e-25
5.2355594e-25
5.2355741e-25
5.2357116e-25
5.2360873e-25
5.2369674e-25
5.2453421e-25
5.2397701e-25
5.2371528e-25
5.2360712e-25
5.2356838e-25
5.2355741e-25
5.2355891e-25
5.2357269e-25
5.236103e-25
5.2369834e-25
5.2454438e-25
5.2398865e-25
5.237281e-25
5.2362055e-25
5.2358205e-25
5.2357116e-25
5.2357269e-25
5.2358648e-25
5.2362411e-25
5.2371218e-25
5.2457275e-25
5.2402174e-25
5.2376395e-25
5.2365758e-25
5.2361949e-25
5.2360873e-25
5.236103e-25
5.2362411e-25
5.2366177e-25
5.237499e-25
5.2463904e-25
5.2410308e-25
5.2384995e-25
5.2374502e-25
5.2370737e-25
5.2369674e-25
5.2369834e-25
5.2371218e-25
5.237499e-25
5.2383824e-25
1.3616305e-24
1.3602321e-24
1.3595732e-24
1.3593002e-24
1.359202e-24
1.3591732e-24
1.3591737e-24
1.3591989e-24
1.3592691e-24
1.3594314e-24
1.3602321e-24
1.3588395e-24
1.3581825e-24
1.3579103e-24
1.3578124e-24
1.357784e-24
1.3577856e-24
1.3578146e-24
1.3578968e-24
1.3580977e-24
1.3595732e-24
1.3581825e-24
1.3575266e-24
1.3572548e-24
1.3571571e-24
1.3571291e-24
1.3571318e-24
1.3571639e-24
1.3572531e-24
1.3574659e-24
1.3593002e-24
1.3579103e-24
1.3572548e-24
1.3569832e-24
1.3568857e-24
1.3568579e-24
1.3568612e-24
1.3568948e-24
1.3569871e-24
1.3572035e-24
1.359202e-24
1.3578124e-24
1.3571571e-24
1.3568857e-24
1.3567883e-24
1.3567606e-24
1.3567642e-24
1.3567984e-24
1.3568917e-24
1.3571093e-24
1.3591732e-24
1.357784e-24
1.3571291e-24
1.3568579e-24
1.3567606e-24
1.356733e-24
1.3567367e-24
1.3567711e-24
1.3568648e-24
1.3570827e-24
1.3591737e-24
1.3577856e-24
1.3571318e-24
1.3568612e-24
1.3567642e-24
1.3567367e-24
1.3567405e-24
1.356775e-24
1.3568687e-24
1.3570867e-24
1.3591989e-24
1.3578146e-24
1.3571639e-24
1.3568948e-24
1.3567984e-24
1.3567711e-24
1.356775e-24
1.3568095e-24
1.3569033e-24
1.3571214e-24
1.3592691e-24
1.3578968e-24
1.3572531e-24
1.3569871e-24
1.3568917e-24
1.3568648e-24
1.3568687e-24
1.3569033e-24
1.3569972e-24
1.3572154e-24
1.3594314e-24
1.3580977e-24
1.3574659e-24
1.3572035e-24
1.3571093e-24
1.3570827e-24
1.3570867e-24
1.3571214e-24
1.3572154e-24
1.3574341e-24
3.5753051e-24
3.5717771e-24
3.5701103e-24
3.5694188e-24
3.5691697e-24
3.5690967e-24
3.5690977e-24
3.5691613e-24
3.569337e-24
3.5697398e-24
3.5717771e-24
3.5682637e-24
3.5666017e-24
3.5659119e-24
3.5656636e-24
3.5655915e-24
3.5655955e-24
3.5656689e-24
3.5658758e-24
3.5663784e-24
3.5701103e-24
3.5666017e-24
3.5649423e-24
3.5642536e-24
3.5640059e-24
3.5639348e-24
3.5639417e-24
3.5640229e-24
3.5642481e-24
3.5647815e-24
3.5694188e-24
3.5659119e-24
3.5642536e-24
3.5635655e-24
3.5633182e-24
3.5632477e-24
3.5632561e-24
3.5633413e-24
3.5635743e-24
3.5641174e-24
3.5691697e-24
3.5656636e-24
3.5640059e-24
3.5633182e-24
3.5630711e-24
3.5630009e-24
3.5630101e-24
3.5630969e-24
3.5633326e-24
3.5638785e-24
3.5690967e-24
3.5655915e-24
3.5639348e-24
3.5632477e-24
3.5630009e-24
3.5629309e-24
3.5629404e-24
3.5630277e-24
3.5632643e-24
3.5638111e-24
3.5690977e-24
3.5655955e-24
3.5639417e-24
3.5632561e-24
3.5630101e-24
3.5629404e-24
3.56295e-24
3.5630375e-24
3.5632744e-24
3.5638214e-24
3.5691613e-24
3.5656689e-24
3.5640229e-24
3.5633413e-24
3.5630969e-24
3.5630277e-24
3.5630375e-24
3.5631252e-24
3.5633621e-24
3.5639093e-24
3.569337e-24
3.5658758e-24
3.5642481e-24
3.5635743e-24
3.5633326e-24
3.5632643e-24
3.5632744e-24
3.5633621e-24
3.5635993e-24
3.5641468e-24
3.5697398e-24
3.5663784e-24
3.5647815e-24
3.5641174e-24
3.5638785e-24
3.5638111e-24
3.5638214e-24
3.5639093e-24
3.5641468e-24
3.5646955e-24
9.5132062e-24
9.5041925e-24
9.4999228e-24
9.4981487e-24
9.4975091e-24
9.4973213e-24
9.4973238e-24
9.497486e-24
9.4979319e-24
9.4989445e-24
9.5041925e-24
9.4952157e-24
9.4909582e-24
9.4891884e-24
9.4885507e-24
9.4883655e-24
9.4883758e-24
9.4885638e-24
9.4890916e-24
9.4903661e-24
9.4999228e-24
9.4909582e-24
9.4867074e-24
9.4849404e-24
9.4843043e-24
9.4841217e-24
9.4841393e-24
9.4843478e-24
9.4849236e-24
9.4862789e-24
9.4981487e-24
9.4891884e-24
9.4849404e-24
9.4831748e-24
9.4825398e-24
9.4823587e-24
9.4823806e-24
9.4825995e-24
9.4831955e-24
9.4845762e-24
9.4975091e-24
9.4885507e-24
9.4843043e-24
9.4825398e-24
9.4819053e-24
9.481725e-24
9.4817488e-24
9.4819718e-24
9.4825751e-24
9.4839633e-24
9.4973213e-24
9.4883655e-24
9.4841217e-24
9.4823587e-24
9.481725e-24
9.4815453e-24
9.4815698e-24
9.4817943e-24
9.4823998e-24
9.4837902e-24
9.4973238e-24
9.4883758e-24
9.4841393e-24
9.4823806e-24
9.4817488e-24
9.4815698e-24
9.4815948e-24
9.4818197e-24
9.482426e-24
9.4838169e-24
9.497486e-24
9.4885638e-24
9.4843478e-24
9.4825995e-24
9.4819718e-24
9.4817943e-24
9.4818197e-24
9.482045e-24
9.4826515e-24
9.4840429e-24
9.4979319e-24
9.4890916e-24
9.4849236e-24
9.4831955e-24
9.4825751e-24
9.4823998e-24
9.482426e-24
9.4826515e-24
9.4832586e-24
9.4846508e-24
9.4989445e-24
9.4903661e-24
9.4862789e-24
9.4845762e-24
9.4839633e-24
9.4837902e-24
9.4838169e-24
9.4840429e-24