/*--------------------------------*- C++ -*----------------------------------*\
| =========                 |                                                 |
| \\      /  F ield         | OpenFOAM: The Open Source CFD Toolbox           |
|  \\    /   O peration     | Version:  dev                                   |
|   \\  /    A nd           | Web:      www.OpenFOAM.org                      |
|    \\/     M anipulation  |                                                 |
\*---------------------------------------------------------------------------*/
FoamFile
{
    version     2.0;
    format      ascii;
    class       volScalarField;
    location    "78.995";
    object      A;
}
// * * * * * * * * * * * * * * * * * * * * * * * * * * * * * * * * * * * * * //

dimensions      [0 0 0 0 1 0 0];

internalField   nonuniform List<scalar> 
10000
(
1.3796171e-24
1.3780663e-24
1.3772359e-24
1.3767802e-24
1.3765441e-24
1.376439e-24
1.3764187e-24
1.3764716e-24
1.3766224e-24
1.3769274e-24
1.3780663e-24
1.3765216e-24
1.3756935e-24
1.3752388e-24
1.3750034e-24
1.3748991e-24
1.3748803e-24
1.3749369e-24
1.3750971e-24
1.3754293e-24
1.3772359e-24
1.3756935e-24
1.3748666e-24
1.3744128e-24
1.3741781e-24
1.3740748e-24
1.3740579e-24
1.3741181e-24
1.3742849e-24
1.3746264e-24
1.3767802e-24
1.3752388e-24
1.3744128e-24
1.3739596e-24
1.3737256e-24
1.3736232e-24
1.3736078e-24
1.3736704e-24
1.3738408e-24
1.3741859e-24
1.3765441e-24
1.3750034e-24
1.3741781e-24
1.3737256e-24
1.3734923e-24
1.3733906e-24
1.3733762e-24
1.3734402e-24
1.3736124e-24
1.3739589e-24
1.376439e-24
1.3748991e-24
1.3740748e-24
1.3736232e-24
1.3733906e-24
1.3732895e-24
1.3732758e-24
1.3733406e-24
1.3735137e-24
1.3738608e-24
1.3764187e-24
1.3748803e-24
1.3740579e-24
1.3736078e-24
1.3733762e-24
1.3732758e-24
1.3732625e-24
1.3733279e-24
1.3735013e-24
1.3738488e-24
1.3764716e-24
1.3749369e-24
1.3741181e-24
1.3736704e-24
1.3734402e-24
1.3733406e-24
1.3733279e-24
1.3733936e-24
1.3735673e-24
1.3739149e-24
1.3766224e-24
1.3750971e-24
1.3742849e-24
1.3738408e-24
1.3736124e-24
1.3735137e-24
1.3735013e-24
1.3735673e-24
1.3737413e-24
1.3740893e-24
1.3769274e-24
1.3754293e-24
1.3746264e-24
1.3741859e-24
1.3739589e-24
1.3738608e-24
1.3738488e-24
1.3739149e-24
1.3740893e-24
1.3744383e-24
4.6090431e-24
4.6040601e-24
4.6013162e-24
4.5998068e-24
4.5990244e-24
4.5986757e-24
4.5986079e-24
4.5987825e-24
4.5992813e-24
4.6003268e-24
4.6040601e-24
4.5990968e-24
4.59636e-24
4.5948539e-24
4.5940737e-24
4.5937277e-24
4.5936652e-24
4.5938519e-24
4.5943823e-24
4.595519e-24
4.6013162e-24
4.59636e-24
4.5936276e-24
4.5921243e-24
4.5913465e-24
4.5910039e-24
4.5909475e-24
4.5911462e-24
4.5916984e-24
4.5928663e-24
4.5998068e-24
4.5948539e-24
4.5921243e-24
4.5906233e-24
4.5898477e-24
4.5895081e-24
4.5894566e-24
4.5896635e-24
4.5902276e-24
4.5914073e-24
4.5990244e-24
4.5940737e-24
4.5913465e-24
4.5898477e-24
4.5890742e-24
4.5887369e-24
4.5886889e-24
4.5889006e-24
4.5894706e-24
4.5906551e-24
4.5986757e-24
4.5937277e-24
4.5910039e-24
4.5895081e-24
4.5887369e-24
4.5884018e-24
4.588356e-24
4.5885704e-24
4.5891433e-24
4.5903298e-24
4.5986079e-24
4.5936652e-24
4.5909475e-24
4.5894566e-24
4.5886889e-24
4.588356e-24
4.5883119e-24
4.5885279e-24
4.5891022e-24
4.5902897e-24
4.5987825e-24
4.5938519e-24
4.5911462e-24
4.5896635e-24
4.5889006e-24
4.5885704e-24
4.5885279e-24
4.5887449e-24
4.5893203e-24
4.5905084e-24
4.5992813e-24
4.5943823e-24
4.5916984e-24
4.5902276e-24
4.5894706e-24
4.5891433e-24
4.5891022e-24
4.5893203e-24
4.5898965e-24
4.5910859e-24
4.6003268e-24
4.595519e-24
4.5928663e-24
4.5914073e-24
4.5906551e-24
4.5903298e-24
4.5902897e-24
4.5905084e-24
4.5910859e-24
4.5922787e-24
9.445987e-24
9.4361106e-24
9.4305928e-24
9.4275486e-24
9.4259685e-24
9.4252636e-24
9.4251255e-24
9.4254748e-24
9.4264761e-24
9.4286412e-24
9.4361106e-24
9.4262727e-24
9.4207689e-24
9.4177313e-24
9.4161557e-24
9.4154562e-24
9.4153287e-24
9.4157028e-24
9.4167686e-24
9.4191203e-24
9.4305928e-24
9.4207689e-24
9.4152741e-24
9.4122421e-24
9.4106713e-24
9.4099787e-24
9.4098637e-24
9.4102623e-24
9.4113726e-24
9.4137879e-24
9.4275486e-24
9.4177313e-24
9.4122421e-24
9.4092146e-24
9.4076482e-24
9.4069617e-24
9.4068568e-24
9.4072721e-24
9.4084066e-24
9.410846e-24
9.4259685e-24
9.4161557e-24
9.4106713e-24
9.4076482e-24
9.4060861e-24
9.4054044e-24
9.4053064e-24
9.4057316e-24
9.4068781e-24
9.4093274e-24
9.4252636e-24
9.4154562e-24
9.4099787e-24
9.4069617e-24
9.4054044e-24
9.404727e-24
9.4046336e-24
9.4050642e-24
9.4062166e-24
9.40867e-24
9.4251255e-24
9.4153287e-24
9.4098637e-24
9.4068568e-24
9.4053064e-24
9.4046336e-24
9.4045437e-24
9.4049775e-24
9.4061329e-24
9.4085883e-24
9.4254748e-24
9.4157028e-24
9.4102623e-24
9.4072721e-24
9.4057316e-24
9.4050642e-24
9.4049775e-24
9.4054136e-24
9.4065709e-24
9.4090277e-24
9.4264761e-24
9.4167686e-24
9.4113726e-24
9.4084066e-24
9.4068781e-24
9.4062166e-24
9.4061329e-24
9.4065709e-24
9.4077301e-24
9.4101893e-24
9.4286412e-24
9.4191203e-24
9.4137879e-24
9.410846e-24
9.4093274e-24
9.40867e-24
9.4085883e-24
9.4090277e-24
9.4101893e-24
9.4126559e-24
1.7662601e-23
1.7644736e-23
1.7634665e-23
1.7629091e-23
1.7626194e-23
1.7624899e-23
1.7624643e-23
1.7625276e-23
1.7627092e-23
1.7631058e-23
1.7644736e-23
1.7626938e-23
1.7616893e-23
1.7611331e-23
1.7608442e-23
1.7607158e-23
1.7606921e-23
1.76076e-23
1.7609536e-23
1.7613849e-23
1.7634665e-23
1.7616893e-23
1.7606864e-23
1.7601312e-23
1.7598432e-23
1.759716e-23
1.7596947e-23
1.7597671e-23
1.759969e-23
1.7604122e-23
1.7629091e-23
1.7611331e-23
1.7601312e-23
1.7595769e-23
1.7592897e-23
1.7591637e-23
1.7591442e-23
1.7592197e-23
1.7594261e-23
1.7598738e-23
1.7626194e-23
1.7608442e-23
1.7598432e-23
1.7592897e-23
1.7590033e-23
1.7588781e-23
1.7588599e-23
1.7589373e-23
1.7591459e-23
1.7595954e-23
1.7624899e-23
1.7607158e-23
1.759716e-23
1.7591637e-23
1.7588781e-23
1.7587537e-23
1.7587364e-23
1.7588148e-23
1.7590245e-23
1.7594748e-23
1.7624643e-23
1.7606921e-23
1.7596947e-23
1.7591442e-23
1.7588599e-23
1.7587364e-23
1.7587197e-23
1.7587987e-23
1.7590089e-23
1.7594596e-23
1.7625276e-23
1.76076e-23
1.7597671e-23
1.7592197e-23
1.7589373e-23
1.7588148e-23
1.7587987e-23
1.7588781e-23
1.7590887e-23
1.7595396e-23
1.7627092e-23
1.7609536e-23
1.759969e-23
1.7594261e-23
1.7591459e-23
1.7590245e-23
1.7590089e-23
1.7590887e-23
1.7592996e-23
1.759751e-23
1.7631058e-23
1.7613849e-23
1.7604122e-23
1.7598738e-23
1.7595954e-23
1.7594748e-23
1.7594596e-23
1.7595396e-23
1.759751e-23
1.7602037e-23
3.2411357e-23
3.237965e-23
3.2361665e-23
3.2351681e-23
3.2346481e-23
3.2344154e-23
3.2343689e-23
3.2344808e-23
3.2348019e-23
3.2355028e-23
3.237965e-23
3.2348063e-23
3.2330123e-23
3.232016e-23
3.2314975e-23
3.2312666e-23
3.2312236e-23
3.231344e-23
3.231687e-23
3.2324514e-23
3.2361665e-23
3.2330123e-23
3.2312211e-23
3.2302267e-23
3.2297097e-23
3.2294812e-23
3.2294424e-23
3.229571e-23
3.2299291e-23
3.2307151e-23
3.2351681e-23
3.232016e-23
3.2302267e-23
3.2292337e-23
3.2287183e-23
3.2284918e-23
3.2284564e-23
3.2285907e-23
3.2289569e-23
3.2297511e-23
3.2346481e-23
3.2314975e-23
3.2297097e-23
3.2287183e-23
3.2282042e-23
3.2279794e-23
3.2279463e-23
3.2280839e-23
3.2284543e-23
3.2292518e-23
3.2344154e-23
3.2312666e-23
3.2294812e-23
3.2284918e-23
3.2279794e-23
3.2277559e-23
3.2277244e-23
3.2278638e-23
3.2282362e-23
3.2290351e-23
3.2343689e-23
3.2312236e-23
3.2294424e-23
3.2284564e-23
3.2279463e-23
3.2277244e-23
3.2276941e-23
3.2278346e-23
3.228208e-23
3.2290075e-23
3.2344808e-23
3.231344e-23
3.229571e-23
3.2285907e-23
3.2280839e-23
3.2278638e-23
3.2278346e-23
3.2279759e-23
3.2283499e-23
3.2291499e-23
3.2348019e-23
3.231687e-23
3.2299291e-23
3.2289569e-23
3.2284543e-23
3.2282362e-23
3.228208e-23
3.2283499e-23
3.2287245e-23
3.2295253e-23
3.2355028e-23
3.2324514e-23
3.2307151e-23
3.2297511e-23
3.2292518e-23
3.2290351e-23
3.2290075e-23
3.2291499e-23
3.2295253e-23
3.2303285e-23
5.9565077e-23
5.9508744e-23
5.9476628e-23
5.9458747e-23
5.9449417e-23
5.9445235e-23
5.9444388e-23
5.9446367e-23
5.9452034e-23
5.9464338e-23
5.9508744e-23
5.9452623e-23
5.9420586e-23
5.9402742e-23
5.9393438e-23
5.9389289e-23
5.9388507e-23
5.9390639e-23
5.9396706e-23
5.9410172e-23
5.9476628e-23
5.9420586e-23
5.9388599e-23
5.9370788e-23
5.9361512e-23
5.9357405e-23
5.9356701e-23
5.9358983e-23
5.9365325e-23
5.9379185e-23
5.9458747e-23
5.9402742e-23
5.9370788e-23
5.9353003e-23
5.9343755e-23
5.9339685e-23
5.9339042e-23
5.9341427e-23
5.9347919e-23
5.9361928e-23
5.9449417e-23
5.9393438e-23
5.9361512e-23
5.9343755e-23
5.9334532e-23
5.9330492e-23
5.9329891e-23
5.9332337e-23
5.9338902e-23
5.9352972e-23
5.9445235e-23
5.9389289e-23
5.9357405e-23
5.9339685e-23
5.9330492e-23
5.9326477e-23
5.9325905e-23
5.9328384e-23
5.9334986e-23
5.9349082e-23
5.9444388e-23
5.9388507e-23
5.9356701e-23
5.9339042e-23
5.9329891e-23
5.9325905e-23
5.9325354e-23
5.9327853e-23
5.9334473e-23
5.9348581e-23
5.9446367e-23
5.9390639e-23
5.9358983e-23
5.9341427e-23
5.9332337e-23
5.9328384e-23
5.9327853e-23
5.9330366e-23
5.9336997e-23
5.9351113e-23
5.9452034e-23
5.9396706e-23
5.9365325e-23
5.9347919e-23
5.9338902e-23
5.9334986e-23
5.9334473e-23
5.9336997e-23
5.934364e-23
5.9357769e-23
5.9464338e-23
5.9410172e-23
5.9379185e-23
5.9361928e-23
5.9352972e-23
5.9349082e-23
5.9348581e-23
5.9351113e-23
5.9357769e-23
5.9371941e-23
1.1031124e-22
1.1021042e-22
1.1015268e-22
1.1012044e-22
1.1010359e-22
1.1009602e-22
1.1009448e-22
1.1009799e-22
1.1010806e-22
1.1012974e-22
1.1021042e-22
1.1010998e-22
1.1005238e-22
1.1002021e-22
1.100034e-22
1.099959e-22
1.0999447e-22
1.0999827e-22
1.1000907e-22
1.1003289e-22
1.1015268e-22
1.1005238e-22
1.0999488e-22
1.0996276e-22
1.0994601e-22
1.0993858e-22
1.0993729e-22
1.0994136e-22
1.0995267e-22
1.0997722e-22
1.1012044e-22
1.1002021e-22
1.0996276e-22
1.0993069e-22
1.0991399e-22
1.0990663e-22
1.0990545e-22
1.0990972e-22
1.0992129e-22
1.0994612e-22
1.1010359e-22
1.100034e-22
1.0994601e-22
1.0991399e-22
1.0989733e-22
1.0989002e-22
1.0988892e-22
1.098933e-22
1.0990501e-22
1.0992995e-22
1.1009602e-22
1.099959e-22
1.0993858e-22
1.0990663e-22
1.0989002e-22
1.0988276e-22
1.0988172e-22
1.0988615e-22
1.0989793e-22
1.0992292e-22
1.1009448e-22
1.0999447e-22
1.0993729e-22
1.0990545e-22
1.0988892e-22
1.0988172e-22
1.0988071e-22
1.0988518e-22
1.0989699e-22
1.09922e-22
1.1009799e-22
1.0999827e-22
1.0994136e-22
1.0990972e-22
1.098933e-22
1.0988615e-22
1.0988518e-22
1.0988968e-22
1.0990151e-22
1.0992654e-22
1.1010806e-22
1.1000907e-22
1.0995267e-22
1.0992129e-22
1.0990501e-22
1.0989793e-22
1.0989699e-22
1.0990151e-22
1.0991337e-22
1.0993841e-22
1.1012974e-22
1.1003289e-22
1.0997722e-22
1.0994612e-22
1.0992995e-22
1.0992292e-22
1.09922e-22
1.0992654e-22
1.0993841e-22
1.0996353e-22
2.0626023e-22
2.0607815e-22
2.0597341e-22
2.0591476e-22
2.0588404e-22
2.0587023e-22
2.0586737e-22
2.0587369e-22
2.0589171e-22
2.0593024e-22
2.0607815e-22
2.0589674e-22
2.0579225e-22
2.0573372e-22
2.0570309e-22
2.0568939e-22
2.0568675e-22
2.0569359e-22
2.0571297e-22
2.0575548e-22
2.0597341e-22
2.0579225e-22
2.0568792e-22
2.056295e-22
2.0559896e-22
2.055854e-22
2.0558303e-22
2.0559037e-22
2.0561069e-22
2.0565455e-22
2.0591476e-22
2.0573372e-22
2.056295e-22
2.0557116e-22
2.0554072e-22
2.0552728e-22
2.0552511e-22
2.0553281e-22
2.0555364e-22
2.05598e-22
2.0588404e-22
2.0570309e-22
2.0559896e-22
2.0554072e-22
2.0551036e-22
2.0549702e-22
2.05495e-22
2.055029e-22
2.0552398e-22
2.0556855e-22
2.0587023e-22
2.0568939e-22
2.055854e-22
2.0552728e-22
2.0549702e-22
2.0548378e-22
2.0548185e-22
2.0548987e-22
2.0551107e-22
2.0555573e-22
2.0586737e-22
2.0568675e-22
2.0558303e-22
2.0552511e-22
2.05495e-22
2.0548185e-22
2.0547999e-22
2.0548808e-22
2.0550934e-22
2.0555404e-22
2.0587369e-22
2.0569359e-22
2.0559037e-22
2.0553281e-22
2.055029e-22
2.0548987e-22
2.0548808e-22
2.0549621e-22
2.0551751e-22
2.0556224e-22
2.0589171e-22
2.0571297e-22
2.0561069e-22
2.0555364e-22
2.0552398e-22
2.0551107e-22
2.0550934e-22
2.0551751e-22
2.0553884e-22
2.0558361e-22
2.0593024e-22
2.0575548e-22
2.0565455e-22
2.05598e-22
2.0556855e-22
2.0555573e-22
2.0555404e-22
2.0556224e-22
2.0558361e-22
2.0562851e-22
3.8962541e-22
3.8929332e-22
3.8910146e-22
3.8899374e-22
3.8893722e-22
3.8891177e-22
3.8890644e-22
3.8891789e-22
3.8895047e-22
3.8901959e-22
3.8929332e-22
3.8896244e-22
3.8877104e-22
3.8866353e-22
3.8860717e-22
3.8858192e-22
3.8857701e-22
3.8858943e-22
3.8862457e-22
3.8870114e-22
3.8910146e-22
3.8877104e-22
3.8857994e-22
3.8847262e-22
3.8841643e-22
3.8839145e-22
3.8838703e-22
3.8840041e-22
3.884373e-22
3.8851639e-22
3.8899374e-22
3.8866353e-22
3.8847262e-22
3.8836547e-22
3.8830945e-22
3.882847e-22
3.8828066e-22
3.882947e-22
3.8833253e-22
3.8841259e-22
3.8893722e-22
3.8860717e-22
3.8841643e-22
3.8830945e-22
3.8825359e-22
3.8822902e-22
3.8822526e-22
3.8823967e-22
3.8827798e-22
3.8835842e-22
3.8891177e-22
3.8858192e-22
3.8839145e-22
3.882847e-22
3.8822902e-22
3.8820462e-22
3.8820103e-22
3.8821566e-22
3.882542e-22
3.8833481e-22
3.8890644e-22
3.8857701e-22
3.8838703e-22
3.8828066e-22
3.8822526e-22
3.8820103e-22
3.8819758e-22
3.8821234e-22
3.8825099e-22
3.8833167e-22
3.8891789e-22
3.8858943e-22
3.8840041e-22
3.882947e-22
3.8823967e-22
3.8821566e-22
3.8821234e-22
3.8822718e-22
3.8826591e-22
3.8834663e-22
3.8895047e-22
3.8862457e-22
3.884373e-22
3.8833253e-22
3.8827798e-22
3.882542e-22
3.8825099e-22
3.8826591e-22
3.883047e-22
3.883855e-22
3.8901959e-22
3.8870114e-22
3.8851639e-22
3.8841259e-22
3.8835842e-22
3.8833481e-22
3.8833167e-22
3.8834663e-22
3.883855e-22
3.8846654e-22
7.4372335e-22
7.4311157e-22
7.4275665e-22
7.4255681e-22
7.4245178e-22
7.4240441e-22
7.4239441e-22
7.4241537e-22
7.4247488e-22
7.4260008e-22
7.4311157e-22
7.4250202e-22
7.4214792e-22
7.4194848e-22
7.4184373e-22
7.4179675e-22
7.4178752e-22
7.4181033e-22
7.4187468e-22
7.4201401e-22
7.4275665e-22
7.4214792e-22
7.4179437e-22
7.4159528e-22
7.4149087e-22
7.4144438e-22
7.4143607e-22
7.4146068e-22
7.4152835e-22
7.4167246e-22
7.4255681e-22
7.4194848e-22
7.4159528e-22
7.413965e-22
7.412924e-22
7.4124635e-22
7.4123878e-22
7.4126463e-22
7.4133408e-22
7.4148e-22
7.4245178e-22
7.4184373e-22
7.4149087e-22
7.412924e-22
7.4118859e-22
7.411429e-22
7.4113583e-22
7.411624e-22
7.4123275e-22
7.413794e-22
7.4240441e-22
7.4179675e-22
7.4144438e-22
7.4124635e-22
7.411429e-22
7.4109751e-22
7.4109078e-22
7.4111775e-22
7.4118853e-22
7.4133549e-22
7.4239441e-22
7.4178752e-22
7.4143607e-22
7.4123878e-22
7.4113583e-22
7.4109078e-22
7.4108431e-22
7.4111151e-22
7.4118251e-22
7.4132962e-22
7.4241537e-22
7.4181033e-22
7.4146068e-22
7.4126463e-22
7.411624e-22
7.4111775e-22
7.4111151e-22
7.4113889e-22
7.4121002e-22
7.4135722e-22
7.4247488e-22
7.4187468e-22
7.4152835e-22
7.4133408e-22
7.4123275e-22
7.4118853e-22
7.4118251e-22
7.4121002e-22
7.4128127e-22
7.4142861e-22
7.4260008e-22
7.4201401e-22
7.4167246e-22
7.4148e-22
7.413794e-22
7.4133549e-22
7.4132962e-22
7.4135722e-22
7.4142861e-22
7.4157636e-22
1.4346692e-21
1.4335308e-21
1.4328675e-21
1.4324931e-21
1.432296e-21
1.4322069e-21
1.4321879e-21
1.4322267e-21
1.4323366e-21
1.4325657e-21
1.4335308e-21
1.4323964e-21
1.4317347e-21
1.431361e-21
1.4311644e-21
1.4310761e-21
1.4310586e-21
1.4311009e-21
1.43122e-21
1.4314761e-21
1.4328675e-21
1.4317347e-21
1.431074e-21
1.430701e-21
1.430505e-21
1.4304176e-21
1.4304019e-21
1.4304477e-21
1.4305731e-21
1.4308384e-21
1.4324931e-21
1.431361e-21
1.430701e-21
1.4303285e-21
1.4301331e-21
1.4300466e-21
1.4300323e-21
1.4300804e-21
1.4302092e-21
1.430478e-21
1.432296e-21
1.4311644e-21
1.430505e-21
1.4301331e-21
1.4299383e-21
1.4298525e-21
1.4298391e-21
1.4298886e-21
1.4300191e-21
1.4302892e-21
1.4322069e-21
1.4310761e-21
1.4304176e-21
1.4300466e-21
1.4298525e-21
1.4297672e-21
1.4297544e-21
1.4298047e-21
1.4299361e-21
1.4302068e-21
1.4321879e-21
1.4310586e-21
1.4304019e-21
1.4300323e-21
1.4298391e-21
1.4297544e-21
1.4297422e-21
1.4297929e-21
1.4299247e-21
1.4301957e-21
1.4322267e-21
1.4311009e-21
1.4304477e-21
1.4300804e-21
1.4298886e-21
1.4298047e-21
1.4297929e-21
1.4298439e-21
1.4299759e-21
1.4302471e-21
1.4323366e-21
1.43122e-21
1.4305731e-21
1.4302092e-21
1.4300191e-21
1.4299361e-21
1.4299247e-21
1.4299759e-21
1.4301082e-21
1.4303796e-21
1.4325657e-21
1.4314761e-21
1.4308384e-21
1.430478e-21
1.4302892e-21
1.4302068e-21
1.4301957e-21
1.4302471e-21
1.4303796e-21
1.4306518e-21
2.7970161e-21
2.794876e-21
2.7936241e-21
2.7929155e-21
2.7925417e-21
2.7923727e-21
2.7923363e-21
2.7924088e-21
2.7926136e-21
2.7930372e-21
2.794876e-21
2.7927436e-21
2.7914945e-21
2.7907872e-21
2.7904145e-21
2.7902468e-21
2.7902134e-21
2.7902927e-21
2.7905153e-21
2.7909912e-21
2.7936241e-21
2.7914945e-21
2.7902474e-21
2.7895414e-21
2.7891698e-21
2.7890039e-21
2.7889738e-21
2.7890598e-21
2.7892947e-21
2.7897882e-21
2.7929155e-21
2.7907872e-21
2.7895414e-21
2.7888364e-21
2.788466e-21
2.7883017e-21
2.7882743e-21
2.7883648e-21
2.7886063e-21
2.7891065e-21
2.7925417e-21
2.7904145e-21
2.7891698e-21
2.788466e-21
2.7880966e-21
2.7879337e-21
2.7879081e-21
2.7880013e-21
2.788246e-21
2.7887489e-21
2.7923727e-21
2.7902468e-21
2.7890039e-21
2.7883017e-21
2.7879337e-21
2.7877719e-21
2.7877476e-21
2.7878422e-21
2.7880885e-21
2.7885925e-21
2.7923363e-21
2.7902134e-21
2.7889738e-21
2.7882743e-21
2.7879081e-21
2.7877476e-21
2.7877242e-21
2.7878197e-21
2.7880668e-21
2.7885714e-21
2.7924088e-21
2.7902927e-21
2.7890598e-21
2.7883648e-21
2.7880013e-21
2.7878422e-21
2.7878197e-21
2.7879158e-21
2.7881634e-21
2.7886683e-21
2.7926136e-21
2.7905153e-21
2.7892947e-21
2.7886063e-21
2.788246e-21
2.7880885e-21
2.7880668e-21
2.7881634e-21
2.7884114e-21
2.7889168e-21
2.7930372e-21
2.7909912e-21
2.7897882e-21
2.7891065e-21
2.7887489e-21
2.7885925e-21
2.7885714e-21
2.7886683e-21
2.7889168e-21
2.7894235e-21
5.5113806e-21
5.5073164e-21
5.5049294e-21
5.5035745e-21
5.5028588e-21
5.5025346e-21
5.5024644e-21
5.5026014e-21
5.5029872e-21
5.5037786e-21
5.5073164e-21
5.5032667e-21
5.500885e-21
5.4995327e-21
5.4988189e-21
5.4984975e-21
5.4984328e-21
5.498583e-21
5.4990037e-21
5.4998971e-21
5.5049294e-21
5.500885e-21
5.4985069e-21
5.497157e-21
5.4964455e-21
5.4961275e-21
5.4960694e-21
5.4962326e-21
5.4966771e-21
5.4976049e-21
5.5035745e-21
5.4995327e-21
5.497157e-21
5.4958093e-21
5.4950999e-21
5.4947851e-21
5.4947323e-21
5.4949043e-21
5.4953616e-21
5.4963024e-21
5.5028588e-21
5.4988189e-21
5.4964455e-21
5.4950999e-21
5.4943926e-21
5.4940803e-21
5.4940311e-21
5.4942083e-21
5.494672e-21
5.4956181e-21
5.5025346e-21
5.4984975e-21
5.4961275e-21
5.4947851e-21
5.4940803e-21
5.4937702e-21
5.4937234e-21
5.4939034e-21
5.4943703e-21
5.4953186e-21
5.5024644e-21
5.4984328e-21
5.4960694e-21
5.4947323e-21
5.4940311e-21
5.4937234e-21
5.4936784e-21
5.4938601e-21
5.4943285e-21
5.4952778e-21
5.5026014e-21
5.498583e-21
5.4962326e-21
5.4949043e-21
5.4942083e-21
5.4939034e-21
5.4938601e-21
5.494043e-21
5.4945123e-21
5.4954623e-21
5.5029872e-21
5.4990037e-21
5.4966771e-21
5.4953616e-21
5.494672e-21
5.4943703e-21
5.4943285e-21
5.4945123e-21
5.4949825e-21
5.4959333e-21
5.5037786e-21
5.4998971e-21
5.4976049e-21
5.4963024e-21
5.4956181e-21
5.4953186e-21
5.4952778e-21
5.4954623e-21
5.4959333e-21
5.4968867e-21
1.0976476e-20
1.0968678e-20
1.0964081e-20
1.0961464e-20
1.0960079e-20
1.0959452e-20
1.0959315e-20
1.0959576e-20
1.0960311e-20
1.0961805e-20
1.0968678e-20
1.0960909e-20
1.0956321e-20
1.095371e-20
1.0952329e-20
1.0951706e-20
1.095158e-20
1.0951868e-20
1.0952671e-20
1.0954366e-20
1.0964081e-20
1.0956321e-20
1.095174e-20
1.0949133e-20
1.0947757e-20
1.0947141e-20
1.0947028e-20
1.0947341e-20
1.0948191e-20
1.0949954e-20
1.0961464e-20
1.095371e-20
1.0949133e-20
1.0946531e-20
1.0945158e-20
1.0944549e-20
1.0944446e-20
1.0944776e-20
1.0945652e-20
1.094744e-20
1.0960079e-20
1.0952329e-20
1.0947757e-20
1.0945158e-20
1.094379e-20
1.0943186e-20
1.094309e-20
1.0943431e-20
1.0944319e-20
1.0946117e-20
1.0959452e-20
1.0951706e-20
1.0947141e-20
1.0944549e-20
1.0943186e-20
1.0942585e-20
1.0942494e-20
1.0942841e-20
1.0943735e-20
1.0945538e-20
1.0959315e-20
1.095158e-20
1.0947028e-20
1.0944446e-20
1.094309e-20
1.0942494e-20
1.0942407e-20
1.0942756e-20
1.0943654e-20
1.0945459e-20
1.0959576e-20
1.0951868e-20
1.0947341e-20
1.0944776e-20
1.0943431e-20
1.0942841e-20
1.0942756e-20
1.0943108e-20
1.0944007e-20
1.0945814e-20
1.0960311e-20
1.0952671e-20
1.0948191e-20
1.0945652e-20
1.0944319e-20
1.0943735e-20
1.0943654e-20
1.0944007e-20
1.0944908e-20
1.0946716e-20
1.0961805e-20
1.0954366e-20
1.0949954e-20
1.094744e-20
1.0946117e-20
1.0945538e-20
1.0945459e-20
1.0945814e-20
1.0946716e-20
1.0948529e-20
2.2095983e-20
2.2080871e-20
2.2071924e-20
2.206682e-20
2.2064114e-20
2.2062886e-20
2.2062616e-20
2.2063121e-20
2.2064535e-20
2.2067383e-20
2.2080871e-20
2.2065812e-20
2.2056885e-20
2.205179e-20
2.2049091e-20
2.2047874e-20
2.2047625e-20
2.2048182e-20
2.2049733e-20
2.2052982e-20
2.2071924e-20
2.2056885e-20
2.2047971e-20
2.2042885e-20
2.2040195e-20
2.2038991e-20
2.2038769e-20
2.2039376e-20
2.204102e-20
2.2044404e-20
2.206682e-20
2.205179e-20
2.2042885e-20
2.2037807e-20
2.2035126e-20
2.2033934e-20
2.2033732e-20
2.2034374e-20
2.2036068e-20
2.2039503e-20
2.2064114e-20
2.2049091e-20
2.2040195e-20
2.2035126e-20
2.2032453e-20
2.2031271e-20
2.2031083e-20
2.2031745e-20
2.2033464e-20
2.203692e-20
2.2062886e-20
2.2047874e-20
2.2038991e-20
2.2033934e-20
2.2031271e-20
2.2030097e-20
2.2029918e-20
2.2030592e-20
2.2032323e-20
2.2035788e-20
2.2062616e-20
2.2047625e-20
2.2038769e-20
2.2033732e-20
2.2031083e-20
2.2029918e-20
2.2029747e-20
2.2030427e-20
2.2032164e-20
2.2035633e-20
2.2063121e-20
2.2048182e-20
2.2039376e-20
2.2034374e-20
2.2031745e-20
2.2030592e-20
2.2030427e-20
2.2031111e-20
2.2032852e-20
2.2036323e-20
2.2064535e-20
2.2049733e-20
2.204102e-20
2.2036068e-20
2.2033464e-20
2.2032323e-20
2.2032164e-20
2.2032852e-20
2.2034595e-20
2.203807e-20
2.2067383e-20
2.2052982e-20
2.2044404e-20
2.2039503e-20
2.203692e-20
2.2035788e-20
2.2035633e-20
2.2036323e-20
2.203807e-20
2.2041554e-20
4.4959181e-20
4.492959e-20
4.4912004e-20
4.4901946e-20
4.4896605e-20
4.4894178e-20
4.4893642e-20
4.4894627e-20
4.4897375e-20
4.4902865e-20
4.492959e-20
4.4900103e-20
4.4882555e-20
4.4872515e-20
4.4867189e-20
4.4864783e-20
4.486429e-20
4.4865379e-20
4.4868403e-20
4.4874699e-20
4.4912004e-20
4.4882555e-20
4.4865033e-20
4.4855011e-20
4.4849702e-20
4.4847323e-20
4.4846881e-20
4.4848072e-20
4.4851283e-20
4.4857851e-20
4.4901946e-20
4.4872515e-20
4.4855011e-20
4.4845004e-20
4.4839712e-20
4.4837357e-20
4.4836957e-20
4.4838217e-20
4.4841529e-20
4.48482e-20
4.4896605e-20
4.4867189e-20
4.4849702e-20
4.4839712e-20
4.4834437e-20
4.4832102e-20
4.483173e-20
4.483303e-20
4.4836393e-20
4.4843105e-20
4.4894178e-20
4.4864783e-20
4.4847323e-20
4.4837357e-20
4.4832102e-20
4.4829784e-20
4.482943e-20
4.4830754e-20
4.483414e-20
4.484087e-20
4.4893642e-20
4.486429e-20
4.4846881e-20
4.4836957e-20
4.483173e-20
4.482943e-20
4.4829091e-20
4.4830428e-20
4.4833826e-20
4.4840564e-20
4.4894627e-20
4.4865379e-20
4.4848072e-20
4.4838217e-20
4.483303e-20
4.4830754e-20
4.4830428e-20
4.4831773e-20
4.4835179e-20
4.4841921e-20
4.4897375e-20
4.4868403e-20
4.4851283e-20
4.4841529e-20
4.4836393e-20
4.483414e-20
4.4833826e-20
4.4835179e-20
4.483859e-20
4.4845339e-20
4.4902865e-20
4.4874699e-20
4.4857851e-20
4.48482e-20
4.4843105e-20
4.484087e-20
4.4840564e-20
4.4841921e-20
4.4845339e-20
4.4852106e-20
9.2465681e-20
9.240715e-20
9.237223e-20
9.2352208e-20
9.234156e-20
9.2336716e-20
9.233564e-20
9.2337581e-20
9.2342983e-20
9.2353673e-20
9.240715e-20
9.2348821e-20
9.2313976e-20
9.229399e-20
9.2283371e-20
9.2278569e-20
9.227758e-20
9.2279734e-20
9.2285694e-20
9.2298024e-20
9.237223e-20
9.2313976e-20
9.2279181e-20
9.2259231e-20
9.2248647e-20
9.2243899e-20
9.2243015e-20
9.2245375e-20
9.2251716e-20
9.2264598e-20
9.2352208e-20
9.229399e-20
9.2259231e-20
9.2239311e-20
9.2228762e-20
9.2224063e-20
9.2223263e-20
9.2225763e-20
9.2232308e-20
9.22454e-20
9.234156e-20
9.2283371e-20
9.2248647e-20
9.2228762e-20
9.2218245e-20
9.2213586e-20
9.2212843e-20
9.2215426e-20
9.2222073e-20
9.2235248e-20
9.2336716e-20
9.2278569e-20
9.2243899e-20
9.2224063e-20
9.2213586e-20
9.2208963e-20
9.2208257e-20
9.2210886e-20
9.2217582e-20
9.2230793e-20
9.233564e-20
9.227758e-20
9.2243015e-20
9.2223263e-20
9.2212843e-20
9.2208257e-20
9.2207581e-20
9.2210236e-20
9.2216957e-20
9.2230184e-20
9.2337581e-20
9.2279734e-20
9.2245375e-20
9.2225763e-20
9.2215426e-20
9.2210886e-20
9.2210236e-20
9.2212909e-20
9.2219644e-20
9.2232881e-20
9.2342983e-20
9.2285694e-20
9.2251716e-20
9.2232308e-20
9.2222073e-20
9.2217582e-20
9.2216957e-20
9.2219644e-20
9.2226391e-20
9.223964e-20
9.2353673e-20
9.2298024e-20
9.2264598e-20
9.22454e-20
9.2235248e-20
9.2230793e-20
9.2230184e-20
9.2232881e-20
9.223964e-20
9.2252924e-20
1.9221968e-19
1.9210272e-19
1.9203267e-19
1.9199242e-19
1.9197097e-19
1.9196121e-19
1.9195903e-19
1.919629e-19
1.9197362e-19
1.9199466e-19
1.9210272e-19
1.9198616e-19
1.9191626e-19
1.9187608e-19
1.9185469e-19
1.9184501e-19
1.9184301e-19
1.9184732e-19
1.9185919e-19
1.9188359e-19
1.9203267e-19
1.9191626e-19
1.9184647e-19
1.9180635e-19
1.9178504e-19
1.9177547e-19
1.9177369e-19
1.9177841e-19
1.9179107e-19
1.918166e-19
1.9199242e-19
1.9187608e-19
1.9180635e-19
1.917663e-19
1.9174506e-19
1.9173559e-19
1.9173397e-19
1.9173899e-19
1.9175206e-19
1.9177803e-19
1.9197097e-19
1.9185469e-19
1.9178504e-19
1.9174506e-19
1.9172388e-19
1.9171449e-19
1.91713e-19
1.9171818e-19
1.9173146e-19
1.917576e-19
1.9196121e-19
1.9184501e-19
1.9177547e-19
1.9173559e-19
1.9171449e-19
1.9170518e-19
1.9170376e-19
1.9170904e-19
1.9172242e-19
1.9174863e-19
1.9195903e-19
1.9184301e-19
1.9177369e-19
1.9173397e-19
1.91713e-19
1.9170376e-19
1.917024e-19
1.9170773e-19
1.9172116e-19
1.9174741e-19
1.919629e-19
1.9184732e-19
1.9177841e-19
1.9173899e-19
1.9171818e-19
1.9170904e-19
1.9170773e-19
1.917131e-19
1.9172656e-19
1.9175282e-19
1.9197362e-19
1.9185919e-19
1.9179107e-19
1.9175206e-19
1.9173146e-19
1.9172242e-19
1.9172116e-19
1.9172656e-19
1.9174005e-19
1.9176633e-19
1.9199466e-19
1.9188359e-19
1.918166e-19
1.9177803e-19
1.917576e-19
1.9174863e-19
1.9174741e-19
1.9175282e-19
1.9176633e-19
1.9179269e-19
4.0389023e-19
4.0365414e-19
4.0351222e-19
4.0343046e-19
4.0338684e-19
4.0336696e-19
4.033625e-19
4.033703e-19
4.0339182e-19
4.0343365e-19
4.0365414e-19
4.0341885e-19
4.0327723e-19
4.0319561e-19
4.0315211e-19
4.0313241e-19
4.0312832e-19
4.0313702e-19
4.0316092e-19
4.0320974e-19
4.0351222e-19
4.0327723e-19
4.0313582e-19
4.0305434e-19
4.0301099e-19
4.0299151e-19
4.0298787e-19
4.0299744e-19
4.0302296e-19
4.0307413e-19
4.0343046e-19
4.0319561e-19
4.0305434e-19
4.0297299e-19
4.0292979e-19
4.0291052e-19
4.0290723e-19
4.029174e-19
4.0294379e-19
4.0299584e-19
4.0338684e-19
4.0315211e-19
4.0301099e-19
4.0292979e-19
4.0288672e-19
4.0286762e-19
4.0286457e-19
4.0287509e-19
4.0290191e-19
4.0295432e-19
4.0336696e-19
4.0313241e-19
4.0299151e-19
4.0291052e-19
4.0286762e-19
4.0284866e-19
4.0284578e-19
4.0285649e-19
4.0288352e-19
4.0293608e-19
4.033625e-19
4.0312832e-19
4.0298787e-19
4.0290723e-19
4.0286457e-19
4.0284578e-19
4.0284301e-19
4.0285384e-19
4.0288097e-19
4.029336e-19
4.033703e-19
4.0313702e-19
4.0299744e-19
4.029174e-19
4.0287509e-19
4.0285649e-19
4.0285384e-19
4.0286474e-19
4.0289193e-19
4.029446e-19
4.0339182e-19
4.0316092e-19
4.0302296e-19
4.0294379e-19
4.0290191e-19
4.0288352e-19
4.0288097e-19
4.0289193e-19
4.0291917e-19
4.0297189e-19
4.0343365e-19
4.0320974e-19
4.0307413e-19
4.0299584e-19
4.0295432e-19
4.0293608e-19
4.029336e-19
4.029446e-19
4.0297189e-19
4.0302475e-19
8.5775868e-19
8.5727728e-19
8.5698686e-19
8.5681913e-19
8.5672953e-19
8.5668865e-19
8.5667945e-19
8.5669532e-19
8.5673897e-19
8.5682302e-19
8.5727728e-19
8.5679751e-19
8.5650769e-19
8.5634025e-19
8.5625089e-19
8.5621038e-19
8.5620196e-19
8.5621972e-19
8.5626835e-19
8.5636703e-19
8.5698686e-19
8.5650769e-19
8.5621828e-19
8.5605114e-19
8.5596209e-19
8.5592205e-19
8.5591456e-19
8.5593415e-19
8.5598616e-19
8.5608977e-19
8.5681913e-19
8.5634025e-19
8.5605114e-19
8.5588427e-19
8.5579551e-19
8.5575591e-19
8.5574916e-19
8.5576999e-19
8.5582383e-19
8.559293e-19
8.5672953e-19
8.5625089e-19
8.5596209e-19
8.5579551e-19
8.5570704e-19
8.5566779e-19
8.5566154e-19
8.5568311e-19
8.5573785e-19
8.5584406e-19
8.5668865e-19
8.5621038e-19
8.5592205e-19
8.5575591e-19
8.5566779e-19
8.5562885e-19
8.5562294e-19
8.5564491e-19
8.5570008e-19
8.5580662e-19
8.5667945e-19
8.5620196e-19
8.5591456e-19
8.5574916e-19
8.5566154e-19
8.5562294e-19
8.5561728e-19
8.5563948e-19
8.5569488e-19
8.5580155e-19
8.5669532e-19
8.5621972e-19
8.5593415e-19
8.5576999e-19
8.5568311e-19
8.5564491e-19
8.5563948e-19
8.5566185e-19
8.5571737e-19
8.5582413e-19
8.5673897e-19
8.5626835e-19
8.5598616e-19
8.5582383e-19
8.5573785e-19
8.5570008e-19
8.5569488e-19
8.5571737e-19
8.5577298e-19
8.5587984e-19
8.5682302e-19
8.5636703e-19
8.5608977e-19
8.559293e-19
8.5584406e-19
8.5580662e-19
8.5580155e-19
8.5582413e-19
8.5587984e-19
8.5598697e-19
1.8411355e-18
1.8401441e-18
1.8395438e-18
1.8391963e-18
1.8390104e-18
1.8389255e-18
1.8389064e-18
1.838939e-18
1.8390285e-18
1.8391991e-18
1.8401441e-18
1.839156e-18
1.8385569e-18
1.83821e-18
1.8380246e-18
1.8379405e-18
1.837923e-18
1.8379597e-18
1.8380597e-18
1.8382613e-18
1.8395438e-18
1.8385569e-18
1.8379587e-18
1.8376125e-18
1.8374277e-18
1.8373446e-18
1.837329e-18
1.8373696e-18
1.8374767e-18
1.8376887e-18
1.8391963e-18
1.83821e-18
1.8376125e-18
1.8372667e-18
1.8370826e-18
1.8370004e-18
1.8369864e-18
1.8370296e-18
1.8371406e-18
1.8373565e-18
1.8390104e-18
1.8380246e-18
1.8374277e-18
1.8370826e-18
1.8368991e-18
1.8368176e-18
1.8368047e-18
1.8368494e-18
1.8369623e-18
1.8371798e-18
1.8389255e-18
1.8379405e-18
1.8373446e-18
1.8370004e-18
1.8368176e-18
1.8367368e-18
1.8367246e-18
1.8367701e-18
1.836884e-18
1.8371022e-18
1.8389064e-18
1.837923e-18
1.837329e-18
1.8369864e-18
1.8368047e-18
1.8367246e-18
1.8367129e-18
1.836759e-18
1.8368732e-18
1.8370918e-18
1.838939e-18
1.8379597e-18
1.8373696e-18
1.8370296e-18
1.8368494e-18
1.8367701e-18
1.836759e-18
1.8368053e-18
1.8369199e-18
1.8371386e-18
1.8390285e-18
1.8380597e-18
1.8374767e-18
1.8371406e-18
1.8369623e-18
1.836884e-18
1.8368732e-18
1.8369199e-18
1.8370346e-18
1.8372535e-18
1.8391991e-18
1.8382613e-18
1.8376887e-18
1.8373565e-18
1.8371798e-18
1.8371022e-18
1.8370918e-18