/*--------------------------------*- C++ -*----------------------------------*\
| =========                 |                                                 |
| \\      /  F ield         | OpenFOAM: The Open Source CFD Toolbox           |
|  \\    /   O peration     | Version:  dev                                   |
|   \\  /    A nd           | Web:      www.OpenFOAM.org                      |
|    \\/     M anipulation  |                                                 |
\*---------------------------------------------------------------------------*/
FoamFile
{
    version     2.0;
    format      ascii;
    class       volScalarField;
    location    "78.995";
    object      A_0;
}
// * * * * * * * * * * * * * * * * * * * * * * * * * * * * * * * * * * * * * //

dimensions      [0 0 0 0 1 0 0];

internalField   nonuniform List<scalar> 
10000
(
1.3466901e-24
1.3451747e-24
1.3443635e-24
1.3439185e-24
1.343688e-24
1.3435854e-24
1.3435656e-24
1.3436173e-24
1.3437645e-24
1.3440624e-24
1.3451747e-24
1.3436655e-24
1.3428564e-24
1.3424124e-24
1.3421826e-24
1.3420808e-24
1.3420625e-24
1.3421177e-24
1.3422742e-24
1.3425986e-24
1.3443635e-24
1.3428564e-24
1.3420487e-24
1.3416054e-24
1.3413764e-24
1.3412756e-24
1.3412591e-24
1.3413178e-24
1.3414807e-24
1.3418143e-24
1.3439185e-24
1.3424124e-24
1.3416054e-24
1.3411629e-24
1.3409344e-24
1.3408345e-24
1.3408195e-24
1.3408806e-24
1.341047e-24
1.341384e-24
1.343688e-24
1.3421826e-24
1.3413764e-24
1.3409344e-24
1.3407066e-24
1.3406074e-24
1.3405933e-24
1.3406559e-24
1.340824e-24
1.3411624e-24
1.3435854e-24
1.3420808e-24
1.3412756e-24
1.3408345e-24
1.3406074e-24
1.3405088e-24
1.3404954e-24
1.3405587e-24
1.3407277e-24
1.3410667e-24
1.3435656e-24
1.3420625e-24
1.3412591e-24
1.3408195e-24
1.3405933e-24
1.3404954e-24
1.3404825e-24
1.3405463e-24
1.3407157e-24
1.341055e-24
1.3436173e-24
1.3421177e-24
1.3413178e-24
1.3408806e-24
1.3406559e-24
1.3405587e-24
1.3405463e-24
1.3406104e-24
1.3407801e-24
1.3411196e-24
1.3437645e-24
1.3422742e-24
1.3414807e-24
1.341047e-24
1.340824e-24
1.3407277e-24
1.3407157e-24
1.3407801e-24
1.34095e-24
1.3412899e-24
1.3440624e-24
1.3425986e-24
1.3418143e-24
1.341384e-24
1.3411624e-24
1.3410667e-24
1.341055e-24
1.3411196e-24
1.3412899e-24
1.3416307e-24
4.4994339e-24
4.4945646e-24
4.4918837e-24
4.4904095e-24
4.4896456e-24
4.4893053e-24
4.4892393e-24
4.4894097e-24
4.4898969e-24
4.4909179e-24
4.4945646e-24
4.4897145e-24
4.4870406e-24
4.4855696e-24
4.4848079e-24
4.4844702e-24
4.4844092e-24
4.4845916e-24
4.4851096e-24
4.4862198e-24
4.4918837e-24
4.4870406e-24
4.4843711e-24
4.4829028e-24
4.4821434e-24
4.481809e-24
4.4817541e-24
4.4819481e-24
4.4824874e-24
4.4836281e-24
4.4904095e-24
4.4855696e-24
4.4829028e-24
4.4814367e-24
4.4806794e-24
4.480348e-24
4.4802979e-24
4.4804999e-24
4.4810508e-24
4.482203e-24
4.4896456e-24
4.4848079e-24
4.4821434e-24
4.4806794e-24
4.4799242e-24
4.4795951e-24
4.4795483e-24
4.479755e-24
4.4803117e-24
4.4814686e-24
4.4893053e-24
4.4844702e-24
4.481809e-24
4.480348e-24
4.4795951e-24
4.479268e-24
4.4792234e-24
4.4794328e-24
4.4799923e-24
4.4811511e-24
4.4892393e-24
4.4844092e-24
4.4817541e-24
4.4802979e-24
4.4795483e-24
4.4792234e-24
4.4791804e-24
4.4793914e-24
4.4799523e-24
4.4811121e-24
4.4894097e-24
4.4845916e-24
4.4819481e-24
4.4804999e-24
4.479755e-24
4.4794328e-24
4.4793914e-24
4.4796034e-24
4.4801652e-24
4.4813257e-24
4.4898969e-24
4.4851096e-24
4.4824874e-24
4.4810508e-24
4.4803117e-24
4.4799923e-24
4.4799523e-24
4.4801652e-24
4.480728e-24
4.4818896e-24
4.4909179e-24
4.4862198e-24
4.4836281e-24
4.482203e-24
4.4814686e-24
4.4811511e-24
4.4811121e-24
4.4813257e-24
4.4818896e-24
4.4830547e-24
9.2228454e-24
9.2131927e-24
9.2078009e-24
9.2048271e-24
9.2032841e-24
9.2025961e-24
9.2024614e-24
9.2028026e-24
9.2037806e-24
9.2058955e-24
9.2131927e-24
9.2035775e-24
9.1981995e-24
9.1952321e-24
9.1936935e-24
9.1930108e-24
9.1928865e-24
9.1932519e-24
9.194293e-24
9.1965902e-24
9.2078009e-24
9.1981995e-24
9.1928302e-24
9.1898683e-24
9.1883345e-24
9.1876584e-24
9.1875464e-24
9.1879357e-24
9.1890202e-24
9.1913796e-24
9.2048271e-24
9.1952321e-24
9.1898683e-24
9.1869108e-24
9.1853813e-24
9.1847112e-24
9.184609e-24
9.1850147e-24
9.1861227e-24
9.1885058e-24
9.2032841e-24
9.1936935e-24
9.1883345e-24
9.1853813e-24
9.1838559e-24
9.1831905e-24
9.183095e-24
9.1835103e-24
9.1846302e-24
9.1870227e-24
9.2025961e-24
9.1930108e-24
9.1876584e-24
9.1847112e-24
9.1831905e-24
9.1825292e-24
9.1824383e-24
9.1828589e-24
9.1839845e-24
9.1863811e-24
9.2024614e-24
9.1928865e-24
9.1875464e-24
9.184609e-24
9.183095e-24
9.1824383e-24
9.1823507e-24
9.1827745e-24
9.183903e-24
9.1863015e-24
9.2028026e-24
9.1932519e-24
9.1879357e-24
9.1850147e-24
9.1835103e-24
9.1828589e-24
9.1827745e-24
9.1832004e-24
9.1843308e-24
9.1867308e-24
9.2037806e-24
9.194293e-24
9.1890202e-24
9.1861227e-24
9.1846302e-24
9.1839845e-24
9.183903e-24
9.1843308e-24
9.185463e-24
9.1878653e-24
9.2058955e-24
9.1965902e-24
9.1913796e-24
9.1885058e-24
9.1870227e-24
9.1863811e-24
9.1863015e-24
9.1867308e-24
9.1878653e-24
9.1902748e-24
1.7249034e-23
1.7231569e-23
1.7221726e-23
1.7216281e-23
1.7213451e-23
1.7212187e-23
1.7211937e-23
1.7212555e-23
1.7214329e-23
1.7218204e-23
1.7231569e-23
1.7214171e-23
1.7204353e-23
1.7198919e-23
1.7196097e-23
1.7194843e-23
1.7194612e-23
1.7195276e-23
1.7197167e-23
1.7201382e-23
1.7221726e-23
1.7204353e-23
1.7194551e-23
1.7189127e-23
1.7186314e-23
1.7185072e-23
1.7184864e-23
1.7185572e-23
1.7187544e-23
1.7191874e-23
1.7216281e-23
1.7198919e-23
1.7189127e-23
1.7183711e-23
1.7180906e-23
1.7179675e-23
1.7179485e-23
1.7180223e-23
1.7182239e-23
1.7186614e-23
1.7213451e-23
1.7196097e-23
1.7186314e-23
1.7180906e-23
1.7178108e-23
1.7176886e-23
1.7176709e-23
1.7177465e-23
1.7179502e-23
1.7183894e-23
1.7212187e-23
1.7194843e-23
1.7185072e-23
1.7179675e-23
1.7176886e-23
1.7175672e-23
1.7175503e-23
1.7176269e-23
1.7178317e-23
1.7182717e-23
1.7211937e-23
1.7194612e-23
1.7184864e-23
1.7179485e-23
1.7176709e-23
1.7175503e-23
1.717534e-23
1.7176112e-23
1.7178166e-23
1.7182569e-23
1.7212555e-23
1.7195276e-23
1.7185572e-23
1.7180223e-23
1.7177465e-23
1.7176269e-23
1.7176112e-23
1.7176888e-23
1.7178945e-23
1.7183351e-23
1.7214329e-23
1.7197167e-23
1.7187544e-23
1.7182239e-23
1.7179502e-23
1.7178317e-23
1.7178166e-23
1.7178945e-23
1.7181006e-23
1.7185415e-23
1.7218204e-23
1.7201382e-23
1.7191874e-23
1.7186614e-23
1.7183894e-23
1.7182717e-23
1.7182569e-23
1.7183351e-23
1.7185415e-23
1.7189839e-23
3.1660131e-23
3.1629128e-23
3.1611546e-23
3.1601789e-23
3.1596709e-23
3.1594437e-23
3.1593982e-23
3.1595076e-23
3.1598214e-23
3.1605063e-23
3.1629128e-23
3.1598243e-23
3.1580704e-23
3.1570968e-23
3.1565902e-23
3.1563647e-23
3.1563228e-23
3.1564404e-23
3.1567756e-23
3.1575226e-23
3.1611546e-23
3.1580704e-23
3.1563194e-23
3.1553475e-23
3.1548425e-23
3.1546193e-23
3.1545815e-23
3.1547072e-23
3.1550571e-23
3.1558253e-23
3.1601789e-23
3.1570968e-23
3.1553475e-23
3.1543771e-23
3.1538735e-23
3.1536523e-23
3.1536178e-23
3.1537491e-23
3.154107e-23
3.1548831e-23
3.1596709e-23
3.1565902e-23
3.1548425e-23
3.1538735e-23
3.1533713e-23
3.1531517e-23
3.1531195e-23
3.153254e-23
3.1536159e-23
3.1543953e-23
3.1594437e-23
3.1563647e-23
3.1546193e-23
3.1536523e-23
3.1531517e-23
3.1529335e-23
3.1529028e-23
3.1530391e-23
3.1534029e-23
3.1541837e-23
3.1593982e-23
3.1563228e-23
3.1545815e-23
3.1536178e-23
3.1531195e-23
3.1529028e-23
3.1528733e-23
3.1530106e-23
3.1533754e-23
3.1541568e-23
3.1595076e-23
3.1564404e-23
3.1547072e-23
3.1537491e-23
3.153254e-23
3.1530391e-23
3.1530106e-23
3.1531487e-23
3.1535141e-23
3.154296e-23
3.1598214e-23
3.1567756e-23
3.1550571e-23
3.154107e-23
3.1536159e-23
3.1534029e-23
3.1533754e-23
3.1535141e-23
3.1538801e-23
3.1546628e-23
3.1605063e-23
3.1575226e-23
3.1558253e-23
3.1548831e-23
3.1543953e-23
3.1541837e-23
3.1541568e-23
3.154296e-23
3.1546628e-23
3.1554477e-23
5.8199544e-23
5.8144447e-23
5.8113042e-23
5.8095563e-23
5.8086445e-23
5.8082361e-23
5.8081535e-23
5.8083469e-23
5.8089008e-23
5.8101034e-23
5.8144447e-23
5.8089557e-23
5.805823e-23
5.8040786e-23
5.8031694e-23
5.8027642e-23
5.8026879e-23
5.8028963e-23
5.8034894e-23
5.8048056e-23
5.8113042e-23
5.805823e-23
5.8026951e-23
5.800954e-23
5.8000476e-23
5.7996464e-23
5.7995777e-23
5.7998009e-23
5.8004207e-23
5.8017756e-23
5.8095563e-23
5.8040786e-23
5.800954e-23
5.7992155e-23
5.7983117e-23
5.7979142e-23
5.7978515e-23
5.7980847e-23
5.7987191e-23
5.8000886e-23
5.8086445e-23
5.8031694e-23
5.8000476e-23
5.7983117e-23
5.7974104e-23
5.7970158e-23
5.7969572e-23
5.7971963e-23
5.797838e-23
5.7992134e-23
5.8082361e-23
5.8027642e-23
5.7996464e-23
5.7979142e-23
5.7970158e-23
5.7966237e-23
5.7965679e-23
5.7968102e-23
5.7974555e-23
5.7988334e-23
5.8081535e-23
5.8026879e-23
5.7995777e-23
5.7978515e-23
5.7969572e-23
5.7965679e-23
5.7965142e-23
5.7967585e-23
5.7974055e-23
5.7987846e-23
5.8083469e-23
5.8028963e-23
5.7998009e-23
5.7980847e-23
5.7971963e-23
5.7968102e-23
5.7967585e-23
5.7970041e-23
5.7976523e-23
5.7990321e-23
5.8089008e-23
5.8034894e-23
5.8004207e-23
5.7987191e-23
5.797838e-23
5.7974555e-23
5.7974055e-23
5.7976523e-23
5.7983015e-23
5.7996827e-23
5.8101034e-23
5.8048056e-23
5.8017756e-23
5.8000886e-23
5.7992134e-23
5.7988334e-23
5.7987846e-23
5.7990321e-23
5.7996827e-23
5.801068e-23
1.0781123e-22
1.077126e-22
1.0765612e-22
1.076246e-22
1.0760812e-22
1.0760073e-22
1.0759922e-22
1.0760266e-22
1.076125e-22
1.076337e-22
1.077126e-22
1.0761434e-22
1.07558e-22
1.0752654e-22
1.0751011e-22
1.0750278e-22
1.0750138e-22
1.075051e-22
1.0751565e-22
1.0753895e-22
1.0765612e-22
1.07558e-22
1.0750175e-22
1.0747034e-22
1.0745397e-22
1.0744671e-22
1.0744545e-22
1.0744944e-22
1.0746049e-22
1.0748449e-22
1.076246e-22
1.0752654e-22
1.0747034e-22
1.0743899e-22
1.0742266e-22
1.0741547e-22
1.0741432e-22
1.0741849e-22
1.0742981e-22
1.0745408e-22
1.0760812e-22
1.0751011e-22
1.0745397e-22
1.0742266e-22
1.0740637e-22
1.0739923e-22
1.0739816e-22
1.0740244e-22
1.0741389e-22
1.0743828e-22
1.0760073e-22
1.0750278e-22
1.0744671e-22
1.0741547e-22
1.0739923e-22
1.0739214e-22
1.0739112e-22
1.0739546e-22
1.0740698e-22
1.0743141e-22
1.0759922e-22
1.0750138e-22
1.0744545e-22
1.0741432e-22
1.0739816e-22
1.0739112e-22
1.0739014e-22
1.0739451e-22
1.0740606e-22
1.0743051e-22
1.0760266e-22
1.075051e-22
1.0744944e-22
1.0741849e-22
1.0740244e-22
1.0739546e-22
1.0739451e-22
1.0739891e-22
1.0741048e-22
1.0743495e-22
1.076125e-22
1.0751565e-22
1.0746049e-22
1.0742981e-22
1.0741389e-22
1.0740698e-22
1.0740606e-22
1.0741048e-22
1.0742207e-22
1.0744656e-22
1.076337e-22
1.0753895e-22
1.0748449e-22
1.0745408e-22
1.0743828e-22
1.0743141e-22
1.0743051e-22
1.0743495e-22
1.0744656e-22
1.0747112e-22
2.0164095e-22
2.0146276e-22
2.0136029e-22
2.0130292e-22
2.0127289e-22
2.012594e-22
2.0125661e-22
2.0126278e-22
2.012804e-22
2.0131809e-22
2.0146276e-22
2.0128524e-22
2.0118301e-22
2.0112576e-22
2.0109581e-22
2.0108242e-22
2.0107985e-22
2.0108654e-22
2.0110549e-22
2.0114707e-22
2.0136029e-22
2.0118301e-22
2.0108094e-22
2.0102379e-22
2.0099394e-22
2.0098069e-22
2.0097837e-22
2.0098555e-22
2.0100542e-22
2.0104832e-22
2.0130292e-22
2.0112576e-22
2.0102379e-22
2.0096673e-22
2.0093697e-22
2.0092384e-22
2.0092172e-22
2.0092925e-22
2.0094962e-22
2.0099301e-22
2.0127289e-22
2.0109581e-22
2.0099394e-22
2.0093697e-22
2.0090728e-22
2.0089425e-22
2.0089228e-22
2.0090001e-22
2.0092062e-22
2.0096421e-22
2.012594e-22
2.0108242e-22
2.0098069e-22
2.0092384e-22
2.0089425e-22
2.0088131e-22
2.0087942e-22
2.0088727e-22
2.00908e-22
2.0095168e-22
2.0125661e-22
2.0107985e-22
2.0097837e-22
2.0092172e-22
2.0089228e-22
2.0087942e-22
2.0087761e-22
2.0088552e-22
2.0090631e-22
2.0095003e-22
2.0126278e-22
2.0108654e-22
2.0098555e-22
2.0092925e-22
2.0090001e-22
2.0088727e-22
2.0088552e-22
2.0089347e-22
2.009143e-22
2.0095805e-22
2.012804e-22
2.0110549e-22
2.0100542e-22
2.0094962e-22
2.0092062e-22
2.00908e-22
2.0090631e-22
2.009143e-22
2.0093517e-22
2.0097896e-22
2.0131809e-22
2.0114707e-22
2.0104832e-22
2.0099301e-22
2.0096421e-22
2.0095168e-22
2.0095003e-22
2.0095805e-22
2.0097896e-22
2.0102287e-22
3.8100585e-22
3.8068078e-22
3.8049302e-22
3.8038763e-22
3.8033235e-22
3.8030747e-22
3.8030227e-22
3.8031347e-22
3.8034534e-22
3.8041295e-22
3.8068078e-22
3.803569e-22
3.8016958e-22
3.800644e-22
3.8000927e-22
3.7998459e-22
3.799798e-22
3.7999195e-22
3.8002632e-22
3.8010124e-22
3.8049302e-22
3.8016958e-22
3.7998256e-22
3.7987756e-22
3.7982261e-22
3.7979818e-22
3.7979387e-22
3.7980696e-22
3.7984305e-22
3.7992043e-22
3.8038763e-22
3.800644e-22
3.7987756e-22
3.7977273e-22
3.7971794e-22
3.7969374e-22
3.7968981e-22
3.7970354e-22
3.7974055e-22
3.7981887e-22
3.8033235e-22
3.8000927e-22
3.7982261e-22
3.7971794e-22
3.796633e-22
3.7963929e-22
3.7963562e-22
3.7964972e-22
3.796872e-22
3.7976589e-22
3.8030747e-22
3.7998459e-22
3.7979818e-22
3.7969374e-22
3.7963929e-22
3.7961544e-22
3.7961194e-22
3.7962625e-22
3.7966395e-22
3.7974281e-22
3.8030227e-22
3.799798e-22
3.7979387e-22
3.7968981e-22
3.7963562e-22
3.7961194e-22
3.7960857e-22
3.7962301e-22
3.7966082e-22
3.7973975e-22
3.8031347e-22
3.7999195e-22
3.7980696e-22
3.7970354e-22
3.7964972e-22
3.7962625e-22
3.7962301e-22
3.7963753e-22
3.7967541e-22
3.7975439e-22
3.8034534e-22
3.8002632e-22
3.7984305e-22
3.7974055e-22
3.796872e-22
3.7966395e-22
3.7966082e-22
3.7967541e-22
3.7971335e-22
3.7979241e-22
3.8041295e-22
3.8010124e-22
3.7992043e-22
3.7981887e-22
3.7976589e-22
3.7974281e-22
3.7973975e-22
3.7975439e-22
3.7979241e-22
3.7987169e-22
7.2747636e-22
7.2687733e-22
7.2652989e-22
7.2633432e-22
7.2623157e-22
7.2618525e-22
7.2617548e-22
7.2619599e-22
7.2625422e-22
7.2637674e-22
7.2687733e-22
7.2628049e-22
7.2593386e-22
7.2573867e-22
7.256362e-22
7.2559026e-22
7.2558125e-22
7.2560357e-22
7.2566654e-22
7.2580288e-22
7.2652989e-22
7.2593386e-22
7.2558775e-22
7.2539292e-22
7.2529077e-22
7.2524531e-22
7.252372e-22
7.2526129e-22
7.253275e-22
7.2546853e-22
7.2633432e-22
7.2573867e-22
7.2539292e-22
7.2519838e-22
7.2509654e-22
7.2505151e-22
7.2504412e-22
7.2506942e-22
7.2513738e-22
7.2528018e-22
7.2623157e-22
7.256362e-22
7.2529077e-22
7.2509654e-22
7.2499499e-22
7.249503e-22
7.2494341e-22
7.2496941e-22
7.2503825e-22
7.2518176e-22
7.2618525e-22
7.2559026e-22
7.2524531e-22
7.2505151e-22
7.249503e-22
7.2490592e-22
7.2489935e-22
7.2492575e-22
7.2499501e-22
7.2513883e-22
7.2617548e-22
7.2558125e-22
7.252372e-22
7.2504412e-22
7.2494341e-22
7.2489935e-22
7.2489304e-22
7.2491966e-22
7.2498914e-22
7.2513309e-22
7.2619599e-22
7.2560357e-22
7.2526129e-22
7.2506942e-22
7.2496941e-22
7.2492575e-22
7.2491966e-22
7.2494645e-22
7.2501605e-22
7.251601e-22
7.2625422e-22
7.2566654e-22
7.253275e-22
7.2513738e-22
7.2503825e-22
7.2499501e-22
7.2498914e-22
7.2501605e-22
7.2508577e-22
7.2522996e-22
7.2637674e-22
7.2580288e-22
7.2546853e-22
7.2528018e-22
7.2518176e-22
7.2513883e-22
7.2513309e-22
7.251601e-22
7.2522996e-22
7.2537455e-22
1.4037321e-21
1.402617e-21
1.4019676e-21
1.4016011e-21
1.4014082e-21
1.4013211e-21
1.4013025e-21
1.4013405e-21
1.401448e-21
1.4016723e-21
1.402617e-21
1.401506e-21
1.4008581e-21
1.4004923e-21
1.4002999e-21
1.4002135e-21
1.4001964e-21
1.4002378e-21
1.4003544e-21
1.4006051e-21
1.4019676e-21
1.4008581e-21
1.4002111e-21
1.399846e-21
1.3996542e-21
1.3995687e-21
1.3995534e-21
1.3995981e-21
1.3997209e-21
1.3999806e-21
1.4016011e-21
1.4004923e-21
1.399846e-21
1.3994814e-21
1.3992901e-21
1.3992055e-21
1.3991915e-21
1.3992386e-21
1.3993647e-21
1.3996278e-21
1.4014082e-21
1.4002999e-21
1.3996542e-21
1.3992901e-21
1.3990995e-21
1.3990155e-21
1.3990025e-21
1.3990509e-21
1.3991787e-21
1.3994431e-21
1.4013211e-21
1.4002135e-21
1.3995687e-21
1.3992055e-21
1.3990155e-21
1.3989321e-21
1.3989197e-21
1.3989689e-21
1.3990974e-21
1.3993625e-21
1.4013025e-21
1.4001964e-21
1.3995534e-21
1.3991915e-21
1.3990025e-21
1.3989197e-21
1.3989077e-21
1.3989574e-21
1.3990863e-21
1.3993516e-21
1.4013405e-21
1.4002378e-21
1.3995981e-21
1.3992386e-21
1.3990509e-21
1.3989689e-21
1.3989574e-21
1.3990073e-21
1.3991365e-21
1.399402e-21
1.401448e-21
1.4003544e-21
1.3997209e-21
1.3993647e-21
1.3991787e-21
1.3990974e-21
1.3990863e-21
1.3991365e-21
1.3992659e-21
1.3995317e-21
1.4016723e-21
1.4006051e-21
1.3999806e-21
1.3996278e-21
1.3994431e-21
1.3993625e-21
1.3993516e-21
1.399402e-21
1.3995317e-21
1.3997981e-21
2.7375009e-21
2.7354042e-21
2.734178e-21
2.7334841e-21
2.7331182e-21
2.7329528e-21
2.7329173e-21
2.7329883e-21
2.7331888e-21
2.7336036e-21
2.7354042e-21
2.733315e-21
2.7320916e-21
2.731399e-21
2.7310341e-21
2.7308701e-21
2.7308374e-21
2.730915e-21
2.731133e-21
2.731599e-21
2.734178e-21
2.7320916e-21
2.73087e-21
2.7301786e-21
2.7298149e-21
2.7296527e-21
2.7296233e-21
2.7297074e-21
2.7299374e-21
2.7304206e-21
2.7334841e-21
2.731399e-21
2.7301786e-21
2.7294883e-21
2.7291257e-21
2.7289651e-21
2.7289383e-21
2.7290269e-21
2.7292633e-21
2.7297531e-21
2.7331182e-21
2.7310341e-21
2.7298149e-21
2.7291257e-21
2.7287642e-21
2.7286048e-21
2.7285798e-21
2.7286711e-21
2.7289107e-21
2.7294031e-21
2.7329528e-21
2.7308701e-21
2.7296527e-21
2.7289651e-21
2.7286048e-21
2.7284465e-21
2.7284227e-21
2.7285154e-21
2.7287566e-21
2.7292501e-21
2.7329173e-21
2.7308374e-21
2.7296233e-21
2.7289383e-21
2.7285798e-21
2.7284227e-21
2.7283999e-21
2.7284934e-21
2.7287354e-21
2.7292294e-21
2.7329883e-21
2.730915e-21
2.7297074e-21
2.7290269e-21
2.7286711e-21
2.7285154e-21
2.7284934e-21
2.7285875e-21
2.7288299e-21
2.7293243e-21
2.7331888e-21
2.731133e-21
2.7299374e-21
2.7292633e-21
2.7289107e-21
2.7287566e-21
2.7287354e-21
2.7288299e-21
2.7290728e-21
2.7295676e-21
2.7336036e-21
2.731599e-21
2.7304206e-21
2.7297531e-21
2.7294031e-21
2.7292501e-21
2.7292294e-21
2.7293243e-21
2.7295676e-21
2.7300638e-21
5.395708e-21
5.391725e-21
5.3893862e-21
5.3880591e-21
5.3873583e-21
5.3870411e-21
5.3869724e-21
5.3871066e-21
5.3874845e-21
5.3882595e-21
5.391725e-21
5.3877562e-21
5.3854226e-21
5.3840981e-21
5.3833991e-21
5.3830845e-21
5.3830213e-21
5.3831685e-21
5.3835806e-21
5.3844555e-21
5.3893862e-21
5.3854226e-21
5.3830926e-21
5.3817704e-21
5.3810737e-21
5.3807625e-21
5.3807057e-21
5.3808656e-21
5.3813009e-21
5.3822097e-21
5.3880591e-21
5.3840981e-21
5.3817704e-21
5.3804503e-21
5.3797557e-21
5.3794476e-21
5.379396e-21
5.3795645e-21
5.3800124e-21
5.3809339e-21
5.3873583e-21
5.3833991e-21
5.3810737e-21
5.3797557e-21
5.3790632e-21
5.3787575e-21
5.3787094e-21
5.378883e-21
5.3793372e-21
5.3802638e-21
5.3870411e-21
5.3830845e-21
5.3807625e-21
5.3794476e-21
5.3787575e-21
5.378454e-21
5.3784082e-21
5.3785846e-21
5.3790419e-21
5.3799707e-21
5.3869724e-21
5.3830213e-21
5.3807057e-21
5.379396e-21
5.3787094e-21
5.3784082e-21
5.3783643e-21
5.3785423e-21
5.379001e-21
5.3799308e-21
5.3871066e-21
5.3831685e-21
5.3808656e-21
5.3795645e-21
5.378883e-21
5.3785846e-21
5.3785423e-21
5.3787215e-21
5.3791811e-21
5.3801115e-21
5.3874845e-21
5.3835806e-21
5.3813009e-21
5.3800124e-21
5.3793372e-21
5.3790419e-21
5.379001e-21
5.3791811e-21
5.3796415e-21
5.3805728e-21
5.3882595e-21
5.3844555e-21
5.3822097e-21
5.3809339e-21
5.3802638e-21
5.3799707e-21
5.3799308e-21
5.3801115e-21
5.3805728e-21
5.3815067e-21
1.0749334e-20
1.074169e-20
1.0737184e-20
1.073462e-20
1.0733264e-20
1.0732649e-20
1.0732515e-20
1.0732772e-20
1.0733491e-20
1.0734955e-20
1.074169e-20
1.0734073e-20
1.0729577e-20
1.0727018e-20
1.0725666e-20
1.0725056e-20
1.0724933e-20
1.0725215e-20
1.0726002e-20
1.0727662e-20
1.0737184e-20
1.0729577e-20
1.0725087e-20
1.0722533e-20
1.0721185e-20
1.0720582e-20
1.0720472e-20
1.0720779e-20
1.0721612e-20
1.0723339e-20
1.073462e-20
1.0727018e-20
1.0722533e-20
1.0719983e-20
1.0718639e-20
1.0718042e-20
1.0717942e-20
1.0718266e-20
1.0719123e-20
1.0720875e-20
1.0733264e-20
1.0725666e-20
1.0721185e-20
1.0718639e-20
1.0717299e-20
1.0716707e-20
1.0716614e-20
1.0716947e-20
1.0717818e-20
1.071958e-20
1.0732649e-20
1.0725056e-20
1.0720582e-20
1.0718042e-20
1.0716707e-20
1.0716119e-20
1.071603e-20
1.071637e-20
1.0717246e-20
1.0719012e-20
1.0732515e-20
1.0724933e-20
1.0720472e-20
1.0717942e-20
1.0716614e-20
1.071603e-20
1.0715945e-20
1.0716288e-20
1.0717167e-20
1.0718935e-20
1.0732772e-20
1.0725215e-20
1.0720779e-20
1.0718266e-20
1.0716947e-20
1.071637e-20
1.0716288e-20
1.0716632e-20
1.0717513e-20
1.0719283e-20
1.0733491e-20
1.0726002e-20
1.0721612e-20
1.0719123e-20
1.0717818e-20
1.0717246e-20
1.0717167e-20
1.0717513e-20
1.0718395e-20
1.0720167e-20
1.0734955e-20
1.0727662e-20
1.0723339e-20
1.0720875e-20
1.071958e-20
1.0719012e-20
1.0718935e-20
1.0719283e-20
1.0720167e-20
1.0721943e-20
2.1645341e-20
2.1630522e-20
2.1621751e-20
2.1616748e-20
2.1614097e-20
2.1612894e-20
2.161263e-20
2.1613125e-20
2.1614511e-20
2.1617302e-20
2.1630522e-20
2.1615755e-20
2.1607002e-20
2.1602009e-20
2.1599366e-20
2.1598173e-20
2.159793e-20
2.1598476e-20
2.1599995e-20
2.160318e-20
2.1621751e-20
2.1607002e-20
2.1598263e-20
2.1593279e-20
2.1590644e-20
2.1589465e-20
2.1589247e-20
2.1589842e-20
2.1591453e-20
2.159477e-20
2.1616748e-20
2.1602009e-20
2.1593279e-20
2.1588302e-20
2.1585675e-20
2.1584508e-20
2.1584311e-20
2.158494e-20
2.15866e-20
2.1589967e-20
2.1614097e-20
2.1599366e-20
2.1590644e-20
2.1585675e-20
2.1583057e-20
2.1581899e-20
2.1581715e-20
2.1582364e-20
2.1584049e-20
2.1587436e-20
2.1612894e-20
2.1598173e-20
2.1589465e-20
2.1584508e-20
2.1581899e-20
2.1580749e-20
2.1580575e-20
2.1581235e-20
2.1582931e-20
2.1586327e-20
2.161263e-20
2.159793e-20
2.1589247e-20
2.1584311e-20
2.1581715e-20
2.1580575e-20
2.1580407e-20
2.1581074e-20
2.1582776e-20
2.1586176e-20
2.1613125e-20
2.1598476e-20
2.1589842e-20
2.158494e-20
2.1582364e-20
2.1581235e-20
2.1581074e-20
2.1581745e-20
2.158345e-20
2.1586852e-20
2.1614511e-20
2.1599995e-20
2.1591453e-20
2.15866e-20
2.1584049e-20
2.1582931e-20
2.1582776e-20
2.158345e-20
2.1585159e-20
2.1588564e-20
2.1617302e-20
2.160318e-20
2.159477e-20
2.1589967e-20
2.1587436e-20
2.1586327e-20
2.1586176e-20
2.1586852e-20
2.1588564e-20
2.1591978e-20
4.4055876e-20
4.402685e-20
4.4009604e-20
4.3999742e-20
4.3994509e-20
4.3992131e-20
4.3991606e-20
4.3992572e-20
4.3995266e-20
4.4000648e-20
4.402685e-20
4.3997926e-20
4.3980716e-20
4.3970873e-20
4.3965654e-20
4.3963296e-20
4.3962814e-20
4.3963882e-20
4.3966846e-20
4.3973019e-20
4.4009604e-20
4.3980716e-20
4.3963532e-20
4.3953707e-20
4.3948504e-20
4.3946173e-20
4.3945742e-20
4.3946909e-20
4.3950057e-20
4.3956496e-20
4.3999742e-20
4.3970873e-20
4.3953707e-20
4.3943896e-20
4.393871e-20
4.3936403e-20
4.3936012e-20
4.3937248e-20
4.3940494e-20
4.3947034e-20
4.3994509e-20
4.3965654e-20
4.3948504e-20
4.393871e-20
4.393354e-20
4.3931253e-20
4.3930889e-20
4.3932164e-20
4.393546e-20
4.3942041e-20
4.3992131e-20
4.3963296e-20
4.3946173e-20
4.3936403e-20
4.3931253e-20
4.3928982e-20
4.3928636e-20
4.3929934e-20
4.3933253e-20
4.3939851e-20
4.3991606e-20
4.3962814e-20
4.3945742e-20
4.3936012e-20
4.3930889e-20
4.3928636e-20
4.3928305e-20
4.3929615e-20
4.3932947e-20
4.3939552e-20
4.3992572e-20
4.3963882e-20
4.3946909e-20
4.3937248e-20
4.3932164e-20
4.3929934e-20
4.3929615e-20
4.3930934e-20
4.3934273e-20
4.3940883e-20
4.3995266e-20
4.3966846e-20
4.3950057e-20
4.3940494e-20
4.393546e-20
4.3933253e-20
4.3932947e-20
4.3934273e-20
4.3937617e-20
4.3944233e-20
4.4000648e-20
4.3973019e-20
4.3956496e-20
4.3947034e-20
4.3942041e-20
4.3939851e-20
4.3939552e-20
4.3940883e-20
4.3944233e-20
4.3950867e-20
9.0636316e-20
9.0578883e-20
9.0544627e-20
9.0524991e-20
9.0514553e-20
9.0509806e-20
9.0508753e-20
9.0510657e-20
9.0515953e-20
9.0526436e-20
9.0578883e-20
9.0521649e-20
9.0487466e-20
9.0467866e-20
9.0457456e-20
9.045275e-20
9.0451783e-20
9.0453895e-20
9.0459739e-20
9.0471831e-20
9.0544627e-20
9.0487466e-20
9.0453332e-20
9.0433767e-20
9.0423391e-20
9.0418739e-20
9.0417875e-20
9.0420189e-20
9.0426406e-20
9.043904e-20
9.0524991e-20
9.0467866e-20
9.0433767e-20
9.0414232e-20
9.040389e-20
9.0399286e-20
9.0398503e-20
9.0400956e-20
9.0407374e-20
9.0420212e-20
9.0514553e-20
9.0457456e-20
9.0423391e-20
9.040389e-20
9.039358e-20
9.0389015e-20
9.0388288e-20
9.0390821e-20
9.0397339e-20
9.041026e-20
9.0509806e-20
9.045275e-20
9.0418739e-20
9.0399286e-20
9.0389015e-20
9.0384484e-20
9.0383794e-20
9.0386372e-20
9.0392938e-20
9.0405894e-20
9.0508753e-20
9.0451783e-20
9.0417875e-20
9.0398503e-20
9.0388288e-20
9.0383794e-20
9.0383133e-20
9.0385737e-20
9.0392327e-20
9.0405299e-20
9.0510657e-20
9.0453895e-20
9.0420189e-20
9.0400956e-20
9.0390821e-20
9.0386372e-20
9.0385737e-20
9.0388358e-20
9.0394963e-20
9.0407944e-20
9.0515953e-20
9.0459739e-20
9.0426406e-20
9.0407374e-20
9.0397339e-20
9.0392938e-20
9.0392327e-20
9.0394963e-20
9.0401579e-20
9.0414572e-20
9.0526436e-20
9.0471831e-20
9.043904e-20
9.0420212e-20
9.041026e-20
9.0405894e-20
9.0405299e-20
9.0407944e-20
9.0414572e-20
9.0427599e-20
1.8847667e-19
1.8836187e-19
1.8829314e-19
1.8825364e-19
1.8823261e-19
1.8822304e-19
1.8822091e-19
1.882247e-19
1.8823522e-19
1.8825586e-19
1.8836187e-19
1.8824746e-19
1.8817887e-19
1.8813945e-19
1.8811848e-19
1.8810899e-19
1.8810703e-19
1.8811126e-19
1.881229e-19
1.8814684e-19
1.8829314e-19
1.8817887e-19
1.8811038e-19
1.8807103e-19
1.8805013e-19
1.8804075e-19
1.88039e-19
1.8804364e-19
1.8805605e-19
1.8808111e-19
1.8825364e-19
1.8813945e-19
1.8807103e-19
1.8803174e-19
1.880109e-19
1.8800162e-19
1.8800004e-19
1.8800497e-19
1.8801779e-19
1.8804326e-19
1.8823261e-19
1.8811848e-19
1.8805013e-19
1.880109e-19
1.8799014e-19
1.8798094e-19
1.8797947e-19
1.8798456e-19
1.8799759e-19
1.8802323e-19
1.8822304e-19
1.8810899e-19
1.8804075e-19
1.8800162e-19
1.8798094e-19
1.8797181e-19
1.8797042e-19
1.8797559e-19
1.8798872e-19
1.8801444e-19
1.8822091e-19
1.8810703e-19
1.88039e-19
1.8800004e-19
1.8797947e-19
1.8797042e-19
1.8796909e-19
1.8797432e-19
1.8798749e-19
1.8801324e-19
1.882247e-19
1.8811126e-19
1.8804364e-19
1.8800497e-19
1.8798456e-19
1.8797559e-19
1.8797432e-19
1.8797958e-19
1.8799279e-19
1.8801855e-19
1.8823522e-19
1.881229e-19
1.8805605e-19
1.8801779e-19
1.8799759e-19
1.8798872e-19
1.8798749e-19
1.8799279e-19
1.8800602e-19
1.8803181e-19
1.8825586e-19
1.8814684e-19
1.8808111e-19
1.8804326e-19
1.8802323e-19
1.8801444e-19
1.8801324e-19
1.8801855e-19
1.8803181e-19
1.8805766e-19
3.9615311e-19
3.959213e-19
3.9578199e-19
3.9570175e-19
3.9565897e-19
3.9563947e-19
3.956351e-19
3.9564276e-19
3.9566388e-19
3.9570492e-19
3.959213e-19
3.9569027e-19
3.9555126e-19
3.9547116e-19
3.9542849e-19
3.9540917e-19
3.9540517e-19
3.954137e-19
3.9543716e-19
3.9548506e-19
3.9578199e-19
3.9555126e-19
3.9541244e-19
3.9533249e-19
3.9528996e-19
3.9527087e-19
3.952673e-19
3.9527669e-19
3.9530173e-19
3.9535195e-19
3.9570175e-19
3.9547116e-19
3.9533249e-19
3.9525266e-19
3.9521027e-19
3.9519138e-19
3.9518816e-19
3.9519814e-19
3.9522403e-19
3.9527512e-19
3.9565897e-19
3.9542849e-19
3.9528996e-19
3.9521027e-19
3.9516802e-19
3.9514929e-19
3.9514631e-19
3.9515664e-19
3.9518295e-19
3.9523439e-19
3.9563947e-19
3.9540917e-19
3.9527087e-19
3.9519138e-19
3.9514929e-19
3.9513071e-19
3.9512789e-19
3.951384e-19
3.9516492e-19
3.952165e-19
3.956351e-19
3.9540517e-19
3.952673e-19
3.9518816e-19
3.9514631e-19
3.9512789e-19
3.9512518e-19
3.9513581e-19
3.9516243e-19
3.9521408e-19
3.9564276e-19
3.954137e-19
3.9527669e-19
3.9519814e-19
3.9515664e-19
3.951384e-19
3.9513581e-19
3.951465e-19
3.9517319e-19
3.9522487e-19
3.9566388e-19
3.9543716e-19
3.9530173e-19
3.9522403e-19
3.9518295e-19
3.9516492e-19
3.9516243e-19
3.9517319e-19
3.9519992e-19
3.9525165e-19
3.9570492e-19
3.9548506e-19
3.9535195e-19
3.9527512e-19
3.9523439e-19
3.952165e-19
3.9521408e-19
3.9522487e-19
3.9525165e-19
3.9530352e-19
8.416018e-19
8.4112898e-19
8.408438e-19
8.4067915e-19
8.4059123e-19
8.4055113e-19
8.4054212e-19
8.405577e-19
8.4060054e-19
8.4068304e-19
8.4112898e-19
8.4065776e-19
8.4037316e-19
8.402088e-19
8.4012112e-19
8.4008138e-19
8.4007313e-19
8.4009057e-19
8.401383e-19
8.4023517e-19
8.408438e-19
8.4037316e-19
8.4008898e-19
8.3992491e-19
8.3983752e-19
8.3979826e-19
8.3979092e-19
8.3981015e-19
8.398612e-19
8.3996292e-19
8.4067915e-19
8.402088e-19
8.3992491e-19
8.397611e-19
8.39674e-19
8.3963516e-19
8.3962855e-19
8.3964901e-19
8.3970185e-19
8.3980538e-19
8.4059123e-19
8.4012112e-19
8.3983752e-19
8.39674e-19
8.3958719e-19
8.3954869e-19
8.3954257e-19
8.3956375e-19
8.3961747e-19
8.3972174e-19
8.4055113e-19
8.4008138e-19
8.3979826e-19
8.3963516e-19
8.3954869e-19
8.3951049e-19
8.3950471e-19
8.3952628e-19
8.3958043e-19
8.3968501e-19
8.4054212e-19
8.4007313e-19
8.3979092e-19
8.3962855e-19
8.3954257e-19
8.3950471e-19
8.3949917e-19
8.3952097e-19
8.3957534e-19
8.3968006e-19
8.405577e-19
8.4009057e-19
8.3981015e-19
8.3964901e-19
8.3956375e-19
8.3952628e-19
8.3952097e-19
8.3954293e-19
8.3959742e-19
8.3970222e-19
8.4060054e-19
8.401383e-19
8.398612e-19
8.3970185e-19
8.3961747e-19
8.3958043e-19
8.3957534e-19
8.3959742e-19
8.3965201e-19
8.3975691e-19
8.4068304e-19
8.4023517e-19
8.3996292e-19
8.3980538e-19
8.3972174e-19
8.3968501e-19
8.3968006e-19
8.3970222e-19
8.3975691e-19
8.3986206e-19
1.8070533e-18
1.8060792e-18
1.8054896e-18
1.8051484e-18
1.8049659e-18
1.8048826e-18
1.8048638e-18
1.8048959e-18
1.8049837e-18
1.8051513e-18
1.8060792e-18
1.8051084e-18
1.80452e-18
1.8041793e-18
1.8039973e-18
1.8039148e-18
1.8038977e-18
1.8039336e-18
1.8040318e-18
1.8042298e-18
1.8054896e-18
1.80452e-18
1.8039324e-18
1.8035923e-18
1.803411e-18
1.8033294e-18
1.8033142e-18
1.803354e-18
1.8034592e-18
1.8036674e-18
1.8051484e-18
1.8041793e-18
1.8035923e-18
1.8032528e-18
1.8030721e-18
1.8029914e-18
1.8029777e-18
1.8030201e-18
1.8031291e-18
1.8033412e-18
1.8049659e-18
1.8039973e-18
1.803411e-18
1.8030721e-18
1.8028919e-18
1.802812e-18
1.8027994e-18
1.8028433e-18
1.8029541e-18
1.8031677e-18
1.8048826e-18
1.8039148e-18
1.8033294e-18
1.8029914e-18
1.802812e-18
1.8027327e-18
1.8027208e-18
1.8027655e-18
1.8028773e-18
1.8030916e-18
1.8048638e-18
1.8038977e-18
1.8033142e-18
1.8029777e-18
1.8027994e-18
1.8027208e-18
1.8027093e-18
1.8027546e-18
1.8028668e-18
1.8030813e-18
1.8048959e-18
1.8039336e-18
1.803354e-18
1.8030201e-18
1.8028433e-18
1.8027655e-18
1.8027546e-18
1.8028001e-18
1.8029126e-18
1.8031273e-18
1.8049837e-18
1.8040318e-18
1.8034592e-18
1.8031291e-18
1.8029541e-18
1.8028773e-18
1.8028668e-18
1.8029126e-18
1.8030252e-18
1.8032402e-18
1.8051513e-18
1.8042298e-18
1.8036674e-18
1.8033412e-18
1.8031677e-18
1.8030916e-18