/*--------------------------------*- C++ -*----------------------------------*\
| =========                 |                                                 |
| \\      /  F ield         | OpenFOAM: The Open Source CFD Toolbox           |
|  \\    /   O peration     | Version:  dev                                   |
|   \\  /    A nd           | Web:      www.OpenFOAM.org                      |
|    \\/     M anipulation  |                                                 |
\*---------------------------------------------------------------------------*/
FoamFile
{
    version     2.0;
    format      ascii;
    class       volScalarField;
    location    "24";
    object      A;
}
// * * * * * * * * * * * * * * * * * * * * * * * * * * * * * * * * * * * * * //

dimensions      [0 0 0 0 1 0 0];

internalField   nonuniform List<scalar> 
10000
(
3.8271924e-49
3.8268409e-49
3.8266739e-49
3.8265991e-49
3.8265689e-49
3.8265583e-49
3.8265555e-49
3.8265567e-49
3.8265623e-49
3.826579e-49
3.8268409e-49
3.8264895e-49
3.8263226e-49
3.8262478e-49
3.8262176e-49
3.826207e-49
3.8262044e-49
3.826206e-49
3.826213e-49
3.826234e-49
3.8266739e-49
3.8263226e-49
3.8261557e-49
3.8260809e-49
3.8260508e-49
3.8260402e-49
3.8260378e-49
3.8260398e-49
3.8260476e-49
3.8260699e-49
3.8265991e-49
3.8262478e-49
3.8260809e-49
3.8260061e-49
3.825976e-49
3.8259655e-49
3.8259632e-49
3.8259653e-49
3.8259735e-49
3.8259964e-49
3.8265689e-49
3.8262176e-49
3.8260508e-49
3.825976e-49
3.8259459e-49
3.8259354e-49
3.8259331e-49
3.8259354e-49
3.8259438e-49
3.8259667e-49
3.8265583e-49
3.826207e-49
3.8260402e-49
3.8259655e-49
3.8259354e-49
3.825925e-49
3.8259227e-49
3.825925e-49
3.8259334e-49
3.8259564e-49
3.8265555e-49
3.8262044e-49
3.8260378e-49
3.8259632e-49
3.8259331e-49
3.8259227e-49
3.8259204e-49
3.8259228e-49
3.8259312e-49
3.8259542e-49
3.8265567e-49
3.826206e-49
3.8260398e-49
3.8259653e-49
3.8259354e-49
3.825925e-49
3.8259228e-49
3.8259251e-49
3.8259335e-49
3.8259565e-49
3.8265623e-49
3.826213e-49
3.8260476e-49
3.8259735e-49
3.8259438e-49
3.8259334e-49
3.8259312e-49
3.8259335e-49
3.8259419e-49
3.825965e-49
3.826579e-49
3.826234e-49
3.8260699e-49
3.8259964e-49
3.8259667e-49
3.8259564e-49
3.8259542e-49
3.8259565e-49
3.825965e-49
3.825988e-49
1.7389819e-48
1.7388269e-48
1.7387523e-48
1.7387188e-48
1.7387052e-48
1.7387005e-48
1.7386993e-48
1.7386998e-48
1.7387022e-48
1.73871e-48
1.7388269e-48
1.738672e-48
1.7385974e-48
1.7385639e-48
1.7385504e-48
1.7385456e-48
1.7385445e-48
1.7385452e-48
1.7385483e-48
1.738558e-48
1.7387523e-48
1.7385974e-48
1.7385228e-48
1.7384893e-48
1.7384758e-48
1.7384711e-48
1.73847e-48
1.7384709e-48
1.7384744e-48
1.7384847e-48
1.7387188e-48
1.7385639e-48
1.7384893e-48
1.7384558e-48
1.7384423e-48
1.7384376e-48
1.7384366e-48
1.7384376e-48
1.7384412e-48
1.7384517e-48
1.7387052e-48
1.7385504e-48
1.7384758e-48
1.7384423e-48
1.7384289e-48
1.7384242e-48
1.7384231e-48
1.7384242e-48
1.7384279e-48
1.7384385e-48
1.7387005e-48
1.7385456e-48
1.7384711e-48
1.7384376e-48
1.7384242e-48
1.7384195e-48
1.7384185e-48
1.7384195e-48
1.7384233e-48
1.7384338e-48
1.7386993e-48
1.7385445e-48
1.73847e-48
1.7384366e-48
1.7384231e-48
1.7384185e-48
1.7384175e-48
1.7384185e-48
1.7384223e-48
1.7384329e-48
1.7386998e-48
1.7385452e-48
1.7384709e-48
1.7384376e-48
1.7384242e-48
1.7384195e-48
1.7384185e-48
1.7384195e-48
1.7384233e-48
1.7384339e-48
1.7387022e-48
1.7385483e-48
1.7384744e-48
1.7384412e-48
1.7384279e-48
1.7384233e-48
1.7384223e-48
1.7384233e-48
1.7384271e-48
1.7384377e-48
1.73871e-48
1.738558e-48
1.7384847e-48
1.7384517e-48
1.7384385e-48
1.7384338e-48
1.7384329e-48
1.7384339e-48
1.7384377e-48
1.7384483e-48
5.8767236e-48
5.8762149e-48
5.8759686e-48
5.8758578e-48
5.8758131e-48
5.8757974e-48
5.8757933e-48
5.875795e-48
5.8758031e-48
5.8758287e-48
5.8762149e-48
5.8757064e-48
5.8754602e-48
5.8753494e-48
5.8753048e-48
5.8752891e-48
5.8752853e-48
5.8752876e-48
5.8752978e-48
5.8753298e-48
5.8759686e-48
5.8754602e-48
5.8752139e-48
5.8751033e-48
5.8750586e-48
5.875043e-48
5.8750394e-48
5.8750423e-48
5.8750538e-48
5.8750878e-48
5.8758578e-48
5.8753494e-48
5.8751033e-48
5.8749926e-48
5.874948e-48
5.8749324e-48
5.8749289e-48
5.8749322e-48
5.8749443e-48
5.874979e-48
5.8758131e-48
5.8753048e-48
5.8750586e-48
5.874948e-48
5.8749034e-48
5.8748878e-48
5.8748845e-48
5.8748878e-48
5.8749001e-48
5.8749351e-48
5.8757974e-48
5.8752891e-48
5.875043e-48
5.8749324e-48
5.8748878e-48
5.8748723e-48
5.874869e-48
5.8748724e-48
5.8748848e-48
5.8749198e-48
5.8757933e-48
5.8752853e-48
5.8750394e-48
5.8749289e-48
5.8748845e-48
5.874869e-48
5.8748656e-48
5.8748691e-48
5.8748815e-48
5.8749165e-48
5.875795e-48
5.8752876e-48
5.8750423e-48
5.8749322e-48
5.8748878e-48
5.8748724e-48
5.8748691e-48
5.8748726e-48
5.874885e-48
5.87492e-48
5.8758031e-48
5.8752978e-48
5.8750538e-48
5.8749443e-48
5.8749001e-48
5.8748848e-48
5.8748815e-48
5.874885e-48
5.8748974e-48
5.8749324e-48
5.8758287e-48
5.8753298e-48
5.8750878e-48
5.874979e-48
5.8749351e-48
5.8749198e-48
5.8749165e-48
5.87492e-48
5.8749324e-48
5.8749675e-48
1.9742384e-47
1.9740726e-47
1.9739919e-47
1.9739556e-47
1.9739409e-47
1.9739357e-47
1.9739344e-47
1.9739349e-47
1.9739376e-47
1.9739457e-47
1.9740726e-47
1.9739067e-47
1.9738261e-47
1.9737898e-47
1.9737751e-47
1.97377e-47
1.9737687e-47
1.9737695e-47
1.9737728e-47
1.9737831e-47
1.9739919e-47
1.9738261e-47
1.9737455e-47
1.9737092e-47
1.9736945e-47
1.9736894e-47
1.9736882e-47
1.9736892e-47
1.9736929e-47
1.9737039e-47
1.9739556e-47
1.9737898e-47
1.9737092e-47
1.9736729e-47
1.9736582e-47
1.9736531e-47
1.973652e-47
1.9736531e-47
1.973657e-47
1.9736682e-47
1.9739409e-47
1.9737751e-47
1.9736945e-47
1.9736582e-47
1.9736436e-47
1.9736385e-47
1.9736374e-47
1.9736385e-47
1.9736425e-47
1.9736538e-47
1.9739357e-47
1.97377e-47
1.9736894e-47
1.9736531e-47
1.9736385e-47
1.9736334e-47
1.9736323e-47
1.9736334e-47
1.9736375e-47
1.9736488e-47
1.9739344e-47
1.9737687e-47
1.9736882e-47
1.973652e-47
1.9736374e-47
1.9736323e-47
1.9736312e-47
1.9736324e-47
1.9736364e-47
1.9736477e-47
1.9739349e-47
1.9737695e-47
1.9736892e-47
1.9736531e-47
1.9736385e-47
1.9736334e-47
1.9736324e-47
1.9736335e-47
1.9736376e-47
1.9736489e-47
1.9739376e-47
1.9737728e-47
1.9736929e-47
1.973657e-47
1.9736425e-47
1.9736375e-47
1.9736364e-47
1.9736376e-47
1.9736416e-47
1.9736529e-47
1.9739457e-47
1.9737831e-47
1.9737039e-47
1.9736682e-47
1.9736538e-47
1.9736488e-47
1.9736477e-47
1.9736489e-47
1.9736529e-47
1.9736643e-47
6.7432377e-47
6.7426879e-47
6.7424196e-47
6.7422985e-47
6.7422496e-47
6.7422323e-47
6.7422279e-47
6.7422297e-47
6.7422384e-47
6.7422648e-47
6.7426879e-47
6.7421384e-47
6.7418701e-47
6.7417491e-47
6.7417002e-47
6.741683e-47
6.7416788e-47
6.7416814e-47
6.7416924e-47
6.741726e-47
6.7424196e-47
6.7418701e-47
6.7416019e-47
6.7414809e-47
6.7414321e-47
6.7414149e-47
6.741411e-47
6.7414143e-47
6.7414267e-47
6.7414626e-47
6.7422985e-47
6.7417491e-47
6.7414809e-47
6.7413599e-47
6.7413111e-47
6.7412941e-47
6.7412903e-47
6.7412939e-47
6.741307e-47
6.7413437e-47
6.7422496e-47
6.7417002e-47
6.7414321e-47
6.7413111e-47
6.7412623e-47
6.7412453e-47
6.7412416e-47
6.7412454e-47
6.7412587e-47
6.7412956e-47
6.7422323e-47
6.741683e-47
6.7414149e-47
6.7412941e-47
6.7412453e-47
6.7412283e-47
6.7412247e-47
6.7412285e-47
6.7412419e-47
6.7412789e-47
6.7422279e-47
6.7416788e-47
6.741411e-47
6.7412903e-47
6.7412416e-47
6.7412247e-47
6.7412211e-47
6.7412249e-47
6.7412383e-47
6.7412754e-47
6.7422297e-47
6.7416814e-47
6.7414143e-47
6.7412939e-47
6.7412454e-47
6.7412285e-47
6.7412249e-47
6.7412287e-47
6.7412422e-47
6.7412792e-47
6.7422384e-47
6.7416924e-47
6.7414267e-47
6.741307e-47
6.7412587e-47
6.7412419e-47
6.7412383e-47
6.7412422e-47
6.7412557e-47
6.7412927e-47
6.7422648e-47
6.741726e-47
6.7414626e-47
6.7413437e-47
6.7412956e-47
6.7412789e-47
6.7412754e-47
6.7412792e-47
6.7412927e-47
6.7413298e-47
2.3466334e-46
2.3464479e-46
2.346357e-46
2.3463159e-46
2.3462993e-46
2.3462934e-46
2.3462919e-46
2.3462925e-46
2.3462954e-46
2.3463041e-46
2.3464479e-46
2.3462624e-46
2.3461715e-46
2.3461304e-46
2.3461138e-46
2.346108e-46
2.3461066e-46
2.3461075e-46
2.3461112e-46
2.3461223e-46
2.346357e-46
2.3461715e-46
2.3460806e-46
2.3460396e-46
2.346023e-46
2.3460172e-46
2.3460159e-46
2.346017e-46
2.3460212e-46
2.3460331e-46
2.3463159e-46
2.3461304e-46
2.3460396e-46
2.3459985e-46
2.345982e-46
2.3459762e-46
2.3459749e-46
2.3459761e-46
2.3459805e-46
2.3459928e-46
2.3462993e-46
2.3461138e-46
2.346023e-46
2.345982e-46
2.3459654e-46
2.3459596e-46
2.3459584e-46
2.3459596e-46
2.3459642e-46
2.3459765e-46
2.3462934e-46
2.346108e-46
2.3460172e-46
2.3459762e-46
2.3459596e-46
2.3459538e-46
2.3459526e-46
2.3459539e-46
2.3459585e-46
2.3459708e-46
2.3462919e-46
2.3461066e-46
2.3460159e-46
2.3459749e-46
2.3459584e-46
2.3459526e-46
2.3459514e-46
2.3459527e-46
2.3459572e-46
2.3459696e-46
2.3462925e-46
2.3461075e-46
2.346017e-46
2.3459761e-46
2.3459596e-46
2.3459539e-46
2.3459527e-46
2.345954e-46
2.3459586e-46
2.3459709e-46
2.3462954e-46
2.3461112e-46
2.3460212e-46
2.3459805e-46
2.3459642e-46
2.3459585e-46
2.3459572e-46
2.3459586e-46
2.3459631e-46
2.3459755e-46
2.3463041e-46
2.3461223e-46
2.3460331e-46
2.3459928e-46
2.3459765e-46
2.3459708e-46
2.3459696e-46
2.3459709e-46
2.3459755e-46
2.3459878e-46
8.3221178e-46
8.3214798e-46
8.3211661e-46
8.3210242e-46
8.3209667e-46
8.3209464e-46
8.3209412e-46
8.3209433e-46
8.3209533e-46
8.3209825e-46
8.3214798e-46
8.3208421e-46
8.3205285e-46
8.3203866e-46
8.3203291e-46
8.3203089e-46
8.3203041e-46
8.3203071e-46
8.3203198e-46
8.3203577e-46
8.3211661e-46
8.3205285e-46
8.320215e-46
8.3200731e-46
8.3200157e-46
8.3199956e-46
8.319991e-46
8.3199949e-46
8.3200093e-46
8.32005e-46
8.3210242e-46
8.3203866e-46
8.3200731e-46
8.3199312e-46
8.3198738e-46
8.3198538e-46
8.3198494e-46
8.3198537e-46
8.319869e-46
8.3199105e-46
8.3209667e-46
8.3203291e-46
8.3200157e-46
8.3198738e-46
8.3198165e-46
8.3197965e-46
8.3197923e-46
8.3197967e-46
8.3198123e-46
8.3198541e-46
8.3209464e-46
8.3203089e-46
8.3199956e-46
8.3198538e-46
8.3197965e-46
8.3197766e-46
8.3197724e-46
8.3197769e-46
8.3197926e-46
8.3198345e-46
8.3209412e-46
8.3203041e-46
8.319991e-46
8.3198494e-46
8.3197923e-46
8.3197724e-46
8.3197681e-46
8.3197727e-46
8.3197884e-46
8.3198304e-46
8.3209433e-46
8.3203071e-46
8.3199949e-46
8.3198537e-46
8.3197967e-46
8.3197769e-46
8.3197727e-46
8.3197773e-46
8.319793e-46
8.319835e-46
8.3209533e-46
8.3203198e-46
8.3200093e-46
8.319869e-46
8.3198123e-46
8.3197926e-46
8.3197884e-46
8.319793e-46
8.3198087e-46
8.3198507e-46
8.3209825e-46
8.3203577e-46
8.32005e-46
8.3199105e-46
8.3198541e-46
8.3198345e-46
8.3198304e-46
8.319835e-46
8.3198507e-46
8.3198927e-46
3.0079117e-45
3.0076882e-45
3.0075779e-45
3.007528e-45
3.0075077e-45
3.0075006e-45
3.0074987e-45
3.0074995e-45
3.007503e-45
3.0075129e-45
3.0076882e-45
3.0074648e-45
3.0073546e-45
3.0073046e-45
3.0072844e-45
3.0072773e-45
3.0072756e-45
3.0072766e-45
3.0072811e-45
3.0072942e-45
3.0075779e-45
3.0073546e-45
3.0072444e-45
3.0071944e-45
3.0071742e-45
3.0071671e-45
3.0071655e-45
3.0071669e-45
3.007172e-45
3.007186e-45
3.007528e-45
3.0073046e-45
3.0071944e-45
3.0071445e-45
3.0071243e-45
3.0071172e-45
3.0071157e-45
3.0071172e-45
3.0071226e-45
3.007137e-45
3.0075077e-45
3.0072844e-45
3.0071742e-45
3.0071243e-45
3.0071041e-45
3.007097e-45
3.0070955e-45
3.0070971e-45
3.0071026e-45
3.0071171e-45
3.0075006e-45
3.0072773e-45
3.0071671e-45
3.0071172e-45
3.007097e-45
3.00709e-45
3.0070885e-45
3.0070901e-45
3.0070957e-45
3.0071102e-45
3.0074987e-45
3.0072756e-45
3.0071655e-45
3.0071157e-45
3.0070955e-45
3.0070885e-45
3.0070871e-45
3.0070887e-45
3.0070942e-45
3.0071088e-45
3.0074995e-45
3.0072766e-45
3.0071669e-45
3.0071172e-45
3.0070971e-45
3.0070901e-45
3.0070887e-45
3.0070903e-45
3.0070958e-45
3.0071104e-45
3.007503e-45
3.0072811e-45
3.007172e-45
3.0071226e-45
3.0071026e-45
3.0070957e-45
3.0070942e-45
3.0070958e-45
3.0071014e-45
3.0071159e-45
3.0075129e-45
3.0072942e-45
3.007186e-45
3.007137e-45
3.0071171e-45
3.0071102e-45
3.0071088e-45
3.0071104e-45
3.0071159e-45
3.0071305e-45
1.1080507e-44
1.1079709e-44
1.1079315e-44
1.1079135e-44
1.1079063e-44
1.1079037e-44
1.1079031e-44
1.1079033e-44
1.1079046e-44
1.107908e-44
1.1079709e-44
1.1078912e-44
1.1078518e-44
1.1078339e-44
1.1078266e-44
1.107824e-44
1.1078234e-44
1.1078238e-44
1.1078254e-44
1.10783e-44
1.1079315e-44
1.1078518e-44
1.1078123e-44
1.1077944e-44
1.1077871e-44
1.1077846e-44
1.107784e-44
1.1077845e-44
1.1077863e-44
1.1077913e-44
1.1079135e-44
1.1078339e-44
1.1077944e-44
1.1077765e-44
1.1077692e-44
1.1077667e-44
1.1077662e-44
1.1077667e-44
1.1077686e-44
1.1077737e-44
1.1079063e-44
1.1078266e-44
1.1077871e-44
1.1077692e-44
1.107762e-44
1.1077595e-44
1.1077589e-44
1.1077595e-44
1.1077615e-44
1.1077666e-44
1.1079037e-44
1.107824e-44
1.1077846e-44
1.1077667e-44
1.1077595e-44
1.1077569e-44
1.1077564e-44
1.107757e-44
1.107759e-44
1.1077641e-44
1.1079031e-44
1.1078234e-44
1.107784e-44
1.1077662e-44
1.1077589e-44
1.1077564e-44
1.1077559e-44
1.1077565e-44
1.1077584e-44
1.1077636e-44
1.1079033e-44
1.1078238e-44
1.1077845e-44
1.1077667e-44
1.1077595e-44
1.107757e-44
1.1077565e-44
1.1077571e-44
1.107759e-44
1.1077642e-44
1.1079046e-44
1.1078254e-44
1.1077863e-44
1.1077686e-44
1.1077615e-44
1.107759e-44
1.1077584e-44
1.107759e-44
1.107761e-44
1.1077662e-44
1.107908e-44
1.10783e-44
1.1077913e-44
1.1077737e-44
1.1077666e-44
1.1077641e-44
1.1077636e-44
1.1077642e-44
1.1077662e-44
1.1077713e-44
4.1603821e-44
4.1600922e-44
4.1599482e-44
4.1598827e-44
4.1598561e-44
4.1598468e-44
4.1598444e-44
4.1598454e-44
4.1598498e-44
4.1598622e-44
4.1600922e-44
4.1598024e-44
4.1596585e-44
4.159593e-44
4.1595665e-44
4.1595571e-44
4.1595549e-44
4.1595563e-44
4.1595621e-44
4.1595787e-44
4.1599482e-44
4.1596585e-44
4.1595145e-44
4.1594491e-44
4.1594226e-44
4.1594133e-44
4.1594112e-44
4.159413e-44
4.1594196e-44
4.1594375e-44
4.1598827e-44
4.159593e-44
4.1594491e-44
4.1593836e-44
4.1593571e-44
4.1593479e-44
4.1593459e-44
4.1593479e-44
4.1593549e-44
4.1593732e-44
4.1598561e-44
4.1595665e-44
4.1594226e-44
4.1593571e-44
4.1593306e-44
4.1593214e-44
4.1593195e-44
4.1593216e-44
4.1593287e-44
4.1593472e-44
4.1598468e-44
4.1595571e-44
4.1594133e-44
4.1593479e-44
4.1593214e-44
4.1593122e-44
4.1593103e-44
4.1593124e-44
4.1593196e-44
4.1593381e-44
4.1598444e-44
4.1595549e-44
4.1594112e-44
4.1593459e-44
4.1593195e-44
4.1593103e-44
4.1593083e-44
4.1593105e-44
4.1593177e-44
4.1593363e-44
4.1598454e-44
4.1595563e-44
4.159413e-44
4.1593479e-44
4.1593216e-44
4.1593124e-44
4.1593105e-44
4.1593127e-44
4.1593199e-44
4.1593384e-44
4.1598498e-44
4.1595621e-44
4.1594196e-44
4.1593549e-44
4.1593287e-44
4.1593196e-44
4.1593177e-44
4.1593199e-44
4.1593271e-44
4.1593457e-44
4.1598622e-44
4.1595787e-44
4.1594375e-44
4.1593732e-44
4.1593472e-44
4.1593381e-44
4.1593363e-44
4.1593384e-44
4.1593457e-44
4.1593642e-44
1.5921968e-43
1.5920894e-43
1.5920359e-43
1.5920115e-43
1.5920016e-43
1.5919981e-43
1.5919973e-43
1.5919976e-43
1.5919993e-43
1.5920038e-43
1.5920894e-43
1.5919821e-43
1.5919286e-43
1.5919042e-43
1.5918943e-43
1.5918909e-43
1.59189e-43
1.5918906e-43
1.5918927e-43
1.5918988e-43
1.5920359e-43
1.5919286e-43
1.5918751e-43
1.5918508e-43
1.5918409e-43
1.5918374e-43
1.5918366e-43
1.5918373e-43
1.5918398e-43
1.5918464e-43
1.5920115e-43
1.5919042e-43
1.5918508e-43
1.5918264e-43
1.5918165e-43
1.5918131e-43
1.5918123e-43
1.5918131e-43
1.5918157e-43
1.5918224e-43
1.5920016e-43
1.5918943e-43
1.5918409e-43
1.5918165e-43
1.5918067e-43
1.5918032e-43
1.5918025e-43
1.5918033e-43
1.591806e-43
1.5918128e-43
1.5919981e-43
1.5918909e-43
1.5918374e-43
1.5918131e-43
1.5918032e-43
1.5917998e-43
1.5917991e-43
1.5917999e-43
1.5918026e-43
1.5918094e-43
1.5919973e-43
1.59189e-43
1.5918366e-43
1.5918123e-43
1.5918025e-43
1.5917991e-43
1.5917984e-43
1.5917992e-43
1.5918019e-43
1.5918087e-43
1.5919976e-43
1.5918906e-43
1.5918373e-43
1.5918131e-43
1.5918033e-43
1.5917999e-43
1.5917992e-43
1.5918e-43
1.5918027e-43
1.5918095e-43
1.5919993e-43
1.5918927e-43
1.5918398e-43
1.5918157e-43
1.591806e-43
1.5918026e-43
1.5918019e-43
1.5918027e-43
1.5918054e-43
1.5918122e-43
1.5920038e-43
1.5918988e-43
1.5918464e-43
1.5918224e-43
1.5918128e-43
1.5918094e-43
1.5918087e-43
1.5918095e-43
1.5918122e-43
1.591819e-43
6.2109222e-43
6.2105171e-43
6.2103146e-43
6.2102222e-43
6.2101847e-43
6.2101714e-43
6.2101681e-43
6.2101695e-43
6.2101757e-43
6.2101923e-43
6.2105171e-43
6.2101122e-43
6.2099097e-43
6.2098174e-43
6.2097799e-43
6.2097667e-43
6.2097635e-43
6.2097656e-43
6.2097737e-43
6.2097964e-43
6.2103146e-43
6.2099097e-43
6.2097073e-43
6.2096149e-43
6.2095774e-43
6.2095643e-43
6.2095614e-43
6.209564e-43
6.2095734e-43
6.2095979e-43
6.2102222e-43
6.2098174e-43
6.2096149e-43
6.2095226e-43
6.2094852e-43
6.2094721e-43
6.2094693e-43
6.2094722e-43
6.2094821e-43
6.2095073e-43
6.2101847e-43
6.2097799e-43
6.2095774e-43
6.2094852e-43
6.2094477e-43
6.2094347e-43
6.209432e-43
6.209435e-43
6.2094451e-43
6.2094706e-43
6.2101714e-43
6.2097667e-43
6.2095643e-43
6.2094721e-43
6.2094347e-43
6.2094217e-43
6.209419e-43
6.2094221e-43
6.2094323e-43
6.2094578e-43
6.2101681e-43
6.2097635e-43
6.2095614e-43
6.2094693e-43
6.209432e-43
6.209419e-43
6.2094163e-43
6.2094194e-43
6.2094296e-43
6.2094552e-43
6.2101695e-43
6.2097656e-43
6.209564e-43
6.2094722e-43
6.209435e-43
6.2094221e-43
6.2094194e-43
6.2094225e-43
6.2094328e-43
6.2094583e-43
6.2101757e-43
6.2097737e-43
6.2095734e-43
6.2094821e-43
6.2094451e-43
6.2094323e-43
6.2094296e-43
6.2094328e-43
6.209443e-43
6.2094685e-43
6.2101923e-43
6.2097964e-43
6.2095979e-43
6.2095073e-43
6.2094706e-43
6.2094578e-43
6.2094552e-43
6.2094583e-43
6.2094685e-43
6.2094941e-43
2.4695167e-42
2.469361e-42
2.4692829e-42
2.4692472e-42
2.4692327e-42
2.4692276e-42
2.4692263e-42
2.4692269e-42
2.4692292e-42
2.4692355e-42
2.469361e-42
2.4692054e-42
2.4691273e-42
2.4690916e-42
2.4690771e-42
2.469072e-42
2.4690708e-42
2.4690716e-42
2.4690748e-42
2.4690834e-42
2.4692829e-42
2.4691273e-42
2.4690492e-42
2.4690135e-42
2.4689991e-42
2.468994e-42
2.4689929e-42
2.4689939e-42
2.4689975e-42
2.4690069e-42
2.4692472e-42
2.4690916e-42
2.4690135e-42
2.4689779e-42
2.4689634e-42
2.4689584e-42
2.4689573e-42
2.4689584e-42
2.4689623e-42
2.4689719e-42
2.4692327e-42
2.4690771e-42
2.4689991e-42
2.4689634e-42
2.468949e-42
2.4689439e-42
2.4689429e-42
2.4689441e-42
2.468948e-42
2.4689577e-42
2.4692276e-42
2.469072e-42
2.468994e-42
2.4689584e-42
2.4689439e-42
2.4689389e-42
2.4689379e-42
2.4689391e-42
2.468943e-42
2.4689528e-42
2.4692263e-42
2.4690708e-42
2.4689929e-42
2.4689573e-42
2.4689429e-42
2.4689379e-42
2.4689368e-42
2.468938e-42
2.468942e-42
2.4689518e-42
2.4692269e-42
2.4690716e-42
2.4689939e-42
2.4689584e-42
2.4689441e-42
2.4689391e-42
2.468938e-42
2.4689393e-42
2.4689432e-42
2.468953e-42
2.4692292e-42
2.4690748e-42
2.4689975e-42
2.4689623e-42
2.468948e-42
2.468943e-42
2.468942e-42
2.4689432e-42
2.4689472e-42
2.4689569e-42
2.4692355e-42
2.4690834e-42
2.4690069e-42
2.4689719e-42
2.4689577e-42
2.4689528e-42
2.4689518e-42
2.468953e-42
2.4689569e-42
2.4689667e-42
1.0008284e-41
1.0007675e-41
1.0007368e-41
1.0007228e-41
1.000717e-41
1.000715e-41
1.0007145e-41
1.0007147e-41
1.0007157e-41
1.0007181e-41
1.0007675e-41
1.0007065e-41
1.0006758e-41
1.0006618e-41
1.0006561e-41
1.0006541e-41
1.0006536e-41
1.0006539e-41
1.0006552e-41
1.0006585e-41
1.0007368e-41
1.0006758e-41
1.0006452e-41
1.0006311e-41
1.0006254e-41
1.0006235e-41
1.000623e-41
1.0006234e-41
1.0006248e-41
1.0006285e-41
1.0007228e-41
1.0006618e-41
1.0006311e-41
1.0006171e-41
1.0006114e-41
1.0006094e-41
1.000609e-41
1.0006095e-41
1.000611e-41
1.0006147e-41
1.000717e-41
1.0006561e-41
1.0006254e-41
1.0006114e-41
1.0006057e-41
1.0006038e-41
1.0006033e-41
1.0006038e-41
1.0006054e-41
1.0006091e-41
1.000715e-41
1.0006541e-41
1.0006235e-41
1.0006094e-41
1.0006038e-41
1.0006018e-41
1.0006014e-41
1.0006019e-41
1.0006034e-41
1.0006072e-41
1.0007145e-41
1.0006536e-41
1.000623e-41
1.000609e-41
1.0006033e-41
1.0006014e-41
1.000601e-41
1.0006015e-41
1.000603e-41
1.0006068e-41
1.0007147e-41
1.0006539e-41
1.0006234e-41
1.0006095e-41
1.0006038e-41
1.0006019e-41
1.0006015e-41
1.0006019e-41
1.0006035e-41
1.0006073e-41
1.0007157e-41
1.0006552e-41
1.0006248e-41
1.000611e-41
1.0006054e-41
1.0006034e-41
1.000603e-41
1.0006035e-41
1.0006051e-41
1.0006089e-41
1.0007181e-41
1.0006585e-41
1.0006285e-41
1.0006147e-41
1.0006091e-41
1.0006072e-41
1.0006068e-41
1.0006073e-41
1.0006089e-41
1.0006127e-41
4.1341734e-41
4.1339301e-41
4.1338074e-41
4.1337511e-41
4.1337283e-41
4.1337202e-41
4.1337181e-41
4.133719e-41
4.1337227e-41
4.1337321e-41
4.1339301e-41
4.1336869e-41
4.1335642e-41
4.133508e-41
4.1334851e-41
4.1334771e-41
4.1334752e-41
4.1334765e-41
4.1334815e-41
4.1334947e-41
4.1338074e-41
4.1335642e-41
4.1334415e-41
4.1333853e-41
4.1333625e-41
4.1333545e-41
4.1333527e-41
4.1333544e-41
4.1333601e-41
4.1333746e-41
4.1337511e-41
4.133508e-41
4.1333853e-41
4.1333291e-41
4.1333063e-41
4.1332983e-41
4.1332967e-41
4.1332985e-41
4.1333046e-41
4.1333195e-41
4.1337283e-41
4.1334851e-41
4.1333625e-41
4.1333063e-41
4.1332835e-41
4.1332755e-41
4.1332739e-41
4.1332758e-41
4.133282e-41
4.1332971e-41
4.1337202e-41
4.1334771e-41
4.1333545e-41
4.1332983e-41
4.1332755e-41
4.1332676e-41
4.133266e-41
4.1332679e-41
4.1332742e-41
4.1332893e-41
4.1337181e-41
4.1334752e-41
4.1333527e-41
4.1332967e-41
4.1332739e-41
4.133266e-41
4.1332644e-41
4.1332663e-41
4.1332726e-41
4.1332877e-41
4.133719e-41
4.1334765e-41
4.1333544e-41
4.1332985e-41
4.1332758e-41
4.1332679e-41
4.1332663e-41
4.1332683e-41
4.1332746e-41
4.1332897e-41
4.1337227e-41
4.1334815e-41
4.1333601e-41
4.1333046e-41
4.133282e-41
4.1332742e-41
4.1332726e-41
4.1332746e-41
4.1332809e-41
4.133296e-41
4.1337321e-41
4.1334947e-41
4.1333746e-41
4.1333195e-41
4.1332971e-41
4.1332893e-41
4.1332877e-41
4.1332897e-41
4.133296e-41
4.1333111e-41
1.7405351e-40
1.7404362e-40
1.7403862e-40
1.7403632e-40
1.7403539e-40
1.7403506e-40
1.7403498e-40
1.7403501e-40
1.7403516e-40
1.7403554e-40
1.7404362e-40
1.7403374e-40
1.7402874e-40
1.7402644e-40
1.7402551e-40
1.7402518e-40
1.740251e-40
1.7402516e-40
1.7402536e-40
1.740259e-40
1.7403862e-40
1.7402874e-40
1.7402374e-40
1.7402144e-40
1.7402051e-40
1.7402018e-40
1.7402011e-40
1.7402018e-40
1.7402041e-40
1.74021e-40
1.7403632e-40
1.7402644e-40
1.7402144e-40
1.7401915e-40
1.7401822e-40
1.7401789e-40
1.7401782e-40
1.740179e-40
1.7401815e-40
1.7401875e-40
1.7403539e-40
1.7402551e-40
1.7402051e-40
1.7401822e-40
1.7401729e-40
1.7401696e-40
1.740169e-40
1.7401697e-40
1.7401723e-40
1.7401784e-40
1.7403506e-40
1.7402518e-40
1.7402018e-40
1.7401789e-40
1.7401696e-40
1.7401664e-40
1.7401657e-40
1.7401665e-40
1.7401691e-40
1.7401752e-40
1.7403498e-40
1.740251e-40
1.7402011e-40
1.7401782e-40
1.740169e-40
1.7401657e-40
1.7401651e-40
1.7401659e-40
1.7401685e-40
1.7401746e-40
1.7403501e-40
1.7402516e-40
1.7402018e-40
1.740179e-40
1.7401697e-40
1.7401665e-40
1.7401659e-40
1.7401667e-40
1.7401693e-40
1.7401754e-40
1.7403516e-40
1.7402536e-40
1.7402041e-40
1.7401815e-40
1.7401723e-40
1.7401691e-40
1.7401685e-40
1.7401693e-40
1.7401719e-40
1.740178e-40
1.7403554e-40
1.740259e-40
1.74021e-40
1.7401875e-40
1.7401784e-40
1.7401752e-40
1.7401746e-40
1.7401754e-40
1.740178e-40
1.7401841e-40
7.4682594e-40
7.4678503e-40
7.4676427e-40
7.4675473e-40
7.4675084e-40
7.4674947e-40
7.4674912e-40
7.4674928e-40
7.467499e-40
7.4675143e-40
7.4678503e-40
7.4674413e-40
7.4672337e-40
7.4671384e-40
7.4670995e-40
7.4670859e-40
7.4670827e-40
7.4670849e-40
7.4670934e-40
7.4671154e-40
7.4676427e-40
7.4672337e-40
7.4670262e-40
7.4669308e-40
7.466892e-40
7.4668784e-40
7.4668755e-40
7.4668784e-40
7.4668881e-40
7.4669123e-40
7.4675473e-40
7.4671384e-40
7.4669308e-40
7.4668355e-40
7.4667967e-40
7.4667832e-40
7.4667804e-40
7.4667836e-40
7.466794e-40
7.4668189e-40
7.4675084e-40
7.4670995e-40
7.466892e-40
7.4667967e-40
7.466758e-40
7.4667445e-40
7.4667418e-40
7.4667451e-40
7.4667558e-40
7.4667809e-40
7.4674947e-40
7.4670859e-40
7.4668784e-40
7.4667832e-40
7.4667445e-40
7.466731e-40
7.4667283e-40
7.4667317e-40
7.4667425e-40
7.4667677e-40
7.4674912e-40
7.4670827e-40
7.4668755e-40
7.4667804e-40
7.4667418e-40
7.4667283e-40
7.4667257e-40
7.4667291e-40
7.4667398e-40
7.4667651e-40
7.4674928e-40
7.4670849e-40
7.4668784e-40
7.4667836e-40
7.4667451e-40
7.4667317e-40
7.4667291e-40
7.4667325e-40
7.4667433e-40
7.4667685e-40
7.467499e-40
7.4670934e-40
7.4668881e-40
7.466794e-40
7.4667558e-40
7.4667425e-40
7.4667398e-40
7.4667433e-40
7.466754e-40
7.4667793e-40
7.4675143e-40
7.4671154e-40
7.4669123e-40
7.4668189e-40
7.4667809e-40
7.4667677e-40
7.4667651e-40
7.4667685e-40
7.4667793e-40
7.4668046e-40
3.2656496e-39
3.2654771e-39
3.2653894e-39
3.265349e-39
3.2653325e-39
3.2653267e-39
3.2653253e-39
3.2653259e-39
3.2653286e-39
3.2653349e-39
3.2654771e-39
3.2653047e-39
3.265217e-39
3.2651766e-39
3.2651602e-39
3.2651544e-39
3.2651531e-39
3.265154e-39
3.2651576e-39
3.2651669e-39
3.2653894e-39
3.265217e-39
3.2651293e-39
3.2650889e-39
3.2650725e-39
3.2650667e-39
3.2650655e-39
3.2650667e-39
3.2650709e-39
3.265081e-39
3.265349e-39
3.2651766e-39
3.2650889e-39
3.2650486e-39
3.2650321e-39
3.2650264e-39
3.2650252e-39
3.2650266e-39
3.265031e-39
3.2650415e-39
3.2653325e-39
3.2651602e-39
3.2650725e-39
3.2650321e-39
3.2650157e-39
3.26501e-39
3.2650089e-39
3.2650103e-39
3.2650148e-39
3.2650254e-39
3.2653267e-39
3.2651544e-39
3.2650667e-39
3.2650264e-39
3.26501e-39
3.2650043e-39
3.2650032e-39
3.2650046e-39
3.2650092e-39
3.2650198e-39
3.2653253e-39
3.2651531e-39
3.2650655e-39
3.2650252e-39
3.2650089e-39
3.2650032e-39
3.2650021e-39
3.2650035e-39
3.2650081e-39
3.2650187e-39
3.2653259e-39
3.265154e-39
3.2650667e-39
3.2650266e-39
3.2650103e-39
3.2650046e-39
3.2650035e-39
3.265005e-39
3.2650096e-39
3.2650202e-39
3.2653286e-39
3.2651576e-39
3.2650709e-39
3.265031e-39
3.2650148e-39
3.2650092e-39
3.2650081e-39
3.2650096e-39
3.2650142e-39
3.2650248e-39
3.2653349e-39
3.2651669e-39
3.265081e-39
3.2650415e-39
3.2650254e-39
3.2650198e-39
3.2650187e-39
3.2650202e-39
3.2650248e-39
3.2650354e-39
1.4551161e-38
1.455042e-38
1.4550042e-38
1.4549868e-38
1.4549798e-38
1.4549772e-38
1.4549766e-38
1.4549769e-38
1.454978e-38
1.4549807e-38
1.455042e-38
1.454968e-38
1.4549302e-38
1.4549129e-38
1.4549058e-38
1.4549033e-38
1.4549027e-38
1.4549031e-38
1.4549047e-38
1.4549086e-38
1.4550042e-38
1.4549302e-38
1.4548925e-38
1.4548751e-38
1.454868e-38
1.4548655e-38
1.454865e-38
1.4548655e-38
1.4548673e-38
1.4548717e-38
1.4549868e-38
1.4549129e-38
1.4548751e-38
1.4548577e-38
1.4548506e-38
1.4548482e-38
1.4548477e-38
1.4548483e-38
1.4548502e-38
1.4548547e-38
1.4549798e-38
1.4549058e-38
1.454868e-38
1.4548506e-38
1.4548435e-38
1.4548411e-38
1.4548406e-38
1.4548412e-38
1.4548432e-38
1.4548477e-38
1.4549772e-38
1.4549033e-38
1.4548655e-38
1.4548482e-38
1.4548411e-38
1.4548386e-38
1.4548381e-38
1.4548388e-38
1.4548408e-38
1.4548453e-38
1.4549766e-38
1.4549027e-38
1.454865e-38
1.4548477e-38
1.4548406e-38
1.4548381e-38
1.4548377e-38
1.4548383e-38
1.4548403e-38
1.4548449e-38
1.4549769e-38
1.4549031e-38
1.4548655e-38
1.4548483e-38
1.4548412e-38
1.4548388e-38
1.4548383e-38
1.454839e-38
1.4548409e-38
1.4548455e-38
1.454978e-38
1.4549047e-38
1.4548673e-38
1.4548502e-38
1.4548432e-38
1.4548408e-38
1.4548403e-38
1.4548409e-38
1.4548429e-38
1.4548475e-38
1.4549807e-38
1.4549086e-38
1.4548717e-38
1.4548547e-38
1.4548477e-38
1.4548453e-38
1.4548449e-38
1.4548455e-38
1.4548475e-38
1.4548521e-38
6.606338e-38
6.6060144e-38
6.6058488e-38
6.6057725e-38
6.6057413e-38
6.6057303e-38
6.6057275e-38
6.6057288e-38
6.6057338e-38
6.6057454e-38
6.6060144e-38
6.6056909e-38
6.6055254e-38
6.605449e-38
6.6054179e-38
6.6054069e-38
6.6054044e-38
6.6054063e-38
6.6054131e-38
6.6054304e-38
6.6058488e-38
6.6055254e-38
6.6053598e-38
6.6052835e-38
6.6052524e-38
6.6052415e-38
6.6052392e-38
6.6052416e-38
6.6052496e-38
6.6052686e-38
6.6057725e-38
6.605449e-38
6.6052835e-38
6.6052073e-38
6.6051762e-38
6.6051653e-38
6.6051631e-38
6.6051658e-38
6.6051743e-38
6.605194e-38
6.6057413e-38
6.6054179e-38
6.6052524e-38
6.6051762e-38
6.6051451e-38
6.6051343e-38
6.6051321e-38
6.6051349e-38
6.6051436e-38
6.6051635e-38
6.6057303e-38
6.6054069e-38
6.6052415e-38
6.6051653e-38
6.6051343e-38
6.6051235e-38
6.6051214e-38
6.6051242e-38
6.605133e-38
6.6051529e-38
6.6057275e-38
6.6054044e-38
6.6052392e-38
6.6051631e-38
6.6051321e-38
6.6051214e-38
6.6051193e-38
6.6051222e-38
6.6051309e-38
6.6051509e-38
6.6057288e-38
6.6054063e-38
6.6052416e-38
6.6051658e-38
6.6051349e-38
6.6051242e-38
6.6051222e-38
6.6051251e-38
6.6051338e-38
6.6051538e-38
6.6057338e-38
6.6054131e-38
6.6052496e-38
6.6051743e-38
6.6051436e-38
6.605133e-38
6.6051309e-38
6.6051338e-38
6.6051426e-38
6.6051626e-38
6.6057454e-38
6.6054304e-38
6.6052686e-38
6.605194e-38
6.6051635e-38
6.6051529e-38
6.6051509e-38
6.6051538e-38
6.6051626e-38
6.6051825e-38
3.0556873e-37
3.0555433e-37
3.0554695e-37
3.0554354e-37
3.0554214e-37
3.0554165e-37
3.0554153e-37
3.0554159e-37
3.0554181e-37
3.0554232e-37
3.0555433e-37
3.0553994e-37
3.0553255e-37
3.0552915e-37
3.0552775e-37
3.0552726e-37
3.0552715e-37
3.0552724e-37
3.0552754e-37
3.0552831e-37
3.0554695e-37
3.0553255e-37
3.0552517e-37
3.0552176e-37
3.0552037e-37
3.0551988e-37
3.0551978e-37
3.0551989e-37
3.0552025e-37
3.055211e-37
3.0554354e-37
3.0552915e-37
3.0552176e-37
3.0551835e-37
3.0551696e-37
3.0551648e-37
3.0551638e-37
3.055165e-37
3.0551689e-37
3.0551776e-37
3.0554214e-37
3.0552775e-37
3.0552037e-37
3.0551696e-37
3.0551558e-37
3.0551509e-37
3.05515e-37
3.0551513e-37
3.0551552e-37
3.055164e-37
3.0554165e-37
3.0552726e-37
3.0551988e-37
3.0551648e-37
3.0551509e-37
3.0551461e-37
3.0551452e-37
3.0551465e-37
3.0551504e-37
3.0551593e-37
3.0554153e-37
3.0552715e-37
3.0551978e-37
3.0551638e-37
3.05515e-37
3.0551452e-37
3.0551443e-37
3.0551456e-37
3.0551495e-37
3.0551584e-37
3.0554159e-37
3.0552724e-37
3.0551989e-37
3.055165e-37
3.0551513e-37
3.0551465e-37
3.0551456e-37
3.0551469e-37
3.0551508e-37
3.0551597e-37
3.0554181e-37
3.0552754e-37
3.0552025e-37
3.0551689e-37
3.0551552e-37
3.0551504e-37
3.0551495e-37
3.0551508e-37
3.0551548e-37
3.0551637e-37
3.0554232e-37
3.0552831e-37
3.055211e-37
3.0551776e-37
3.055164e-37
3.0551593e-37
3.0551584e-37
3.0551597e-37
3.0551637e-37