/*--------------------------------*- C++ -*----------------------------------*\
| =========                 |                                                 |
| \\      /  F ield         | OpenFOAM: The Open Source CFD Toolbox           |
|  \\    /   O peration     | Version:  dev                                   |
|   \\  /    A nd           | Web:      www.OpenFOAM.org                      |
|    \\/     M anipulation  |                                                 |
\*---------------------------------------------------------------------------*/
FoamFile
{
    version     2.0;
    format      ascii;
    class       volScalarField;
    location    "24";
    object      A_0;
}
// * * * * * * * * * * * * * * * * * * * * * * * * * * * * * * * * * * * * * //

dimensions      [0 0 0 0 1 0 0];

internalField   nonuniform List<scalar> 
10000
(
3.7831514e-49
3.7828038e-49
3.7826387e-49
3.7825647e-49
3.7825349e-49
3.7825244e-49
3.7825217e-49
3.7825228e-49
3.7825283e-49
3.7825449e-49
3.7828038e-49
3.7824563e-49
3.7822913e-49
3.7822173e-49
3.7821875e-49
3.7821771e-49
3.7821745e-49
3.7821761e-49
3.782183e-49
3.7822037e-49
3.7826387e-49
3.7822913e-49
3.7821263e-49
3.7820524e-49
3.7820226e-49
3.7820122e-49
3.7820098e-49
3.7820117e-49
3.7820194e-49
3.7820415e-49
3.7825647e-49
3.7822173e-49
3.7820524e-49
3.7819784e-49
3.7819487e-49
3.7819383e-49
3.781936e-49
3.7819381e-49
3.7819462e-49
3.7819688e-49
3.7825349e-49
3.7821875e-49
3.7820226e-49
3.7819487e-49
3.7819189e-49
3.7819086e-49
3.7819063e-49
3.7819085e-49
3.7819168e-49
3.7819395e-49
3.7825244e-49
3.7821771e-49
3.7820122e-49
3.7819383e-49
3.7819086e-49
3.7818982e-49
3.781896e-49
3.7818982e-49
3.7819065e-49
3.7819293e-49
3.7825217e-49
3.7821745e-49
3.7820098e-49
3.781936e-49
3.7819063e-49
3.781896e-49
3.7818937e-49
3.781896e-49
3.7819043e-49
3.7819271e-49
3.7825228e-49
3.7821761e-49
3.7820117e-49
3.7819381e-49
3.7819085e-49
3.7818982e-49
3.781896e-49
3.7818983e-49
3.7819066e-49
3.7819294e-49
3.7825283e-49
3.782183e-49
3.7820194e-49
3.7819462e-49
3.7819168e-49
3.7819065e-49
3.7819043e-49
3.7819066e-49
3.781915e-49
3.7819377e-49
3.7825449e-49
3.7822037e-49
3.7820415e-49
3.7819688e-49
3.7819395e-49
3.7819293e-49
3.7819271e-49
3.7819294e-49
3.7819377e-49
3.7819605e-49
1.7191148e-48
1.7189616e-48
1.7188878e-48
1.7188547e-48
1.7188413e-48
1.7188366e-48
1.7188354e-48
1.7188359e-48
1.7188383e-48
1.718846e-48
1.7189616e-48
1.7188084e-48
1.7187346e-48
1.7187015e-48
1.7186882e-48
1.7186835e-48
1.7186823e-48
1.718683e-48
1.7186861e-48
1.7186957e-48
1.7188878e-48
1.7187346e-48
1.7186608e-48
1.7186277e-48
1.7186144e-48
1.7186097e-48
1.7186087e-48
1.7186095e-48
1.718613e-48
1.7186232e-48
1.7188547e-48
1.7187015e-48
1.7186277e-48
1.7185946e-48
1.7185813e-48
1.7185767e-48
1.7185756e-48
1.7185766e-48
1.7185802e-48
1.7185906e-48
1.7188413e-48
1.7186882e-48
1.7186144e-48
1.7185813e-48
1.718568e-48
1.7185633e-48
1.7185623e-48
1.7185633e-48
1.718567e-48
1.7185775e-48
1.7188366e-48
1.7186835e-48
1.7186097e-48
1.7185767e-48
1.7185633e-48
1.7185587e-48
1.7185577e-48
1.7185587e-48
1.7185624e-48
1.7185729e-48
1.7188354e-48
1.7186823e-48
1.7186087e-48
1.7185756e-48
1.7185623e-48
1.7185577e-48
1.7185567e-48
1.7185577e-48
1.7185615e-48
1.7185719e-48
1.7188359e-48
1.718683e-48
1.7186095e-48
1.7185766e-48
1.7185633e-48
1.7185587e-48
1.7185577e-48
1.7185588e-48
1.7185625e-48
1.718573e-48
1.7188383e-48
1.7186861e-48
1.718613e-48
1.7185802e-48
1.718567e-48
1.7185624e-48
1.7185615e-48
1.7185625e-48
1.7185662e-48
1.7185767e-48
1.718846e-48
1.7186957e-48
1.7186232e-48
1.7185906e-48
1.7185775e-48
1.7185729e-48
1.7185719e-48
1.718573e-48
1.7185767e-48
1.7185872e-48
5.8102965e-48
5.8097934e-48
5.8095497e-48
5.8094402e-48
5.809396e-48
5.8093804e-48
5.8093764e-48
5.8093781e-48
5.8093861e-48
5.8094114e-48
5.8097934e-48
5.8092904e-48
5.8090469e-48
5.8089374e-48
5.8088932e-48
5.8088777e-48
5.8088739e-48
5.8088763e-48
5.8088864e-48
5.808918e-48
5.8095497e-48
5.8090469e-48
5.8088034e-48
5.8086939e-48
5.8086498e-48
5.8086344e-48
5.8086308e-48
5.8086337e-48
5.808645e-48
5.8086787e-48
5.8094402e-48
5.8089374e-48
5.8086939e-48
5.8085845e-48
5.8085404e-48
5.808525e-48
5.8085216e-48
5.8085248e-48
5.8085367e-48
5.808571e-48
5.809396e-48
5.8088932e-48
5.8086498e-48
5.8085404e-48
5.8084963e-48
5.8084809e-48
5.8084776e-48
5.8084809e-48
5.8084931e-48
5.8085276e-48
5.8093804e-48
5.8088777e-48
5.8086344e-48
5.808525e-48
5.8084809e-48
5.8084656e-48
5.8084623e-48
5.8084657e-48
5.8084779e-48
5.8085125e-48
5.8093764e-48
5.8088739e-48
5.8086308e-48
5.8085216e-48
5.8084776e-48
5.8084623e-48
5.808459e-48
5.8084624e-48
5.8084747e-48
5.8085093e-48
5.8093781e-48
5.8088763e-48
5.8086337e-48
5.8085248e-48
5.8084809e-48
5.8084657e-48
5.8084624e-48
5.8084659e-48
5.8084781e-48
5.8085128e-48
5.8093861e-48
5.8088864e-48
5.808645e-48
5.8085367e-48
5.8084931e-48
5.8084779e-48
5.8084747e-48
5.8084781e-48
5.8084904e-48
5.808525e-48
5.8094114e-48
5.808918e-48
5.8086787e-48
5.808571e-48
5.8085276e-48
5.8085125e-48
5.8085093e-48
5.8085128e-48
5.808525e-48
5.8085597e-48
1.9521817e-47
1.9520176e-47
1.9519378e-47
1.9519019e-47
1.9518874e-47
1.9518823e-47
1.951881e-47
1.9518815e-47
1.9518841e-47
1.9518922e-47
1.9520176e-47
1.9518536e-47
1.9517738e-47
1.9517379e-47
1.9517234e-47
1.9517183e-47
1.9517171e-47
1.9517178e-47
1.9517211e-47
1.9517313e-47
1.9519378e-47
1.9517738e-47
1.9516941e-47
1.9516582e-47
1.9516437e-47
1.9516386e-47
1.9516375e-47
1.9516384e-47
1.9516421e-47
1.951653e-47
1.9519019e-47
1.9517379e-47
1.9516582e-47
1.9516223e-47
1.9516078e-47
1.9516027e-47
1.9516016e-47
1.9516027e-47
1.9516066e-47
1.9516177e-47
1.9518874e-47
1.9517234e-47
1.9516437e-47
1.9516078e-47
1.9515933e-47
1.9515883e-47
1.9515872e-47
1.9515883e-47
1.9515923e-47
1.9516034e-47
1.9518823e-47
1.9517183e-47
1.9516386e-47
1.9516027e-47
1.9515883e-47
1.9515832e-47
1.9515822e-47
1.9515833e-47
1.9515873e-47
1.9515985e-47
1.951881e-47
1.9517171e-47
1.9516375e-47
1.9516016e-47
1.9515872e-47
1.9515822e-47
1.9515811e-47
1.9515822e-47
1.9515862e-47
1.9515974e-47
1.9518815e-47
1.9517178e-47
1.9516384e-47
1.9516027e-47
1.9515883e-47
1.9515833e-47
1.9515822e-47
1.9515834e-47
1.9515874e-47
1.9515985e-47
1.9518841e-47
1.9517211e-47
1.9516421e-47
1.9516066e-47
1.9515923e-47
1.9515873e-47
1.9515862e-47
1.9515874e-47
1.9515914e-47
1.9516026e-47
1.9518922e-47
1.9517313e-47
1.951653e-47
1.9516177e-47
1.9516034e-47
1.9515985e-47
1.9515974e-47
1.9515985e-47
1.9516026e-47
1.9516138e-47
6.6688038e-47
6.6682599e-47
6.6679945e-47
6.6678747e-47
6.6678264e-47
6.6678093e-47
6.6678049e-47
6.6678067e-47
6.6678153e-47
6.6678414e-47
6.6682599e-47
6.6677162e-47
6.6674509e-47
6.6673312e-47
6.6672828e-47
6.6672658e-47
6.6672617e-47
6.6672642e-47
6.6672751e-47
6.6673083e-47
6.6679945e-47
6.6674509e-47
6.6671856e-47
6.6670659e-47
6.6670176e-47
6.6670007e-47
6.6669968e-47
6.667e-47
6.6670123e-47
6.6670478e-47
6.6678747e-47
6.6673312e-47
6.6670659e-47
6.6669462e-47
6.6668979e-47
6.6668811e-47
6.6668774e-47
6.6668809e-47
6.6668939e-47
6.6669301e-47
6.6678264e-47
6.6672828e-47
6.6670176e-47
6.6668979e-47
6.6668497e-47
6.6668328e-47
6.6668292e-47
6.6668329e-47
6.6668461e-47
6.6668826e-47
6.6678093e-47
6.6672658e-47
6.6670007e-47
6.6668811e-47
6.6668328e-47
6.6668161e-47
6.6668125e-47
6.6668162e-47
6.6668295e-47
6.6668661e-47
6.6678049e-47
6.6672617e-47
6.6669968e-47
6.6668774e-47
6.6668292e-47
6.6668125e-47
6.6668089e-47
6.6668127e-47
6.666826e-47
6.6668626e-47
6.6678067e-47
6.6672642e-47
6.667e-47
6.6668809e-47
6.6668329e-47
6.6668162e-47
6.6668127e-47
6.6668165e-47
6.6668298e-47
6.6668664e-47
6.6678153e-47
6.6672751e-47
6.6670123e-47
6.6668939e-47
6.6668461e-47
6.6668295e-47
6.666826e-47
6.6668298e-47
6.6668431e-47
6.6668797e-47
6.6678414e-47
6.6673083e-47
6.6670478e-47
6.6669301e-47
6.6668826e-47
6.6668661e-47
6.6668626e-47
6.6668664e-47
6.6668797e-47
6.6669164e-47
2.3210489e-46
2.3208653e-46
2.3207753e-46
2.3207347e-46
2.3207183e-46
2.3207125e-46
2.320711e-46
2.3207116e-46
2.3207145e-46
2.3207231e-46
2.3208653e-46
2.3206818e-46
2.3205918e-46
2.3205512e-46
2.3205348e-46
2.320529e-46
2.3205276e-46
2.3205285e-46
2.3205322e-46
2.3205432e-46
2.3207753e-46
2.3205918e-46
2.3205019e-46
2.3204613e-46
2.3204449e-46
2.3204392e-46
2.3204379e-46
2.320439e-46
2.3204431e-46
2.3204549e-46
2.3207347e-46
2.3205512e-46
2.3204613e-46
2.3204207e-46
2.3204043e-46
2.3203986e-46
2.3203973e-46
2.3203986e-46
2.3204029e-46
2.320415e-46
2.3207183e-46
2.3205348e-46
2.3204449e-46
2.3204043e-46
2.3203879e-46
2.3203822e-46
2.320381e-46
2.3203823e-46
2.3203867e-46
2.3203989e-46
2.3207125e-46
2.320529e-46
2.3204392e-46
2.3203986e-46
2.3203822e-46
2.3203765e-46
2.3203753e-46
2.3203766e-46
2.3203811e-46
2.3203933e-46
2.320711e-46
2.3205276e-46
2.3204379e-46
2.3203973e-46
2.320381e-46
2.3203753e-46
2.3203741e-46
2.3203754e-46
2.3203799e-46
2.3203921e-46
2.3207116e-46
2.3205285e-46
2.320439e-46
2.3203986e-46
2.3203823e-46
2.3203766e-46
2.3203754e-46
2.3203767e-46
2.3203812e-46
2.3203934e-46
2.3207145e-46
2.3205322e-46
2.3204431e-46
2.3204029e-46
2.3203867e-46
2.3203811e-46
2.3203799e-46
2.3203812e-46
2.3203857e-46
2.3203979e-46
2.3207231e-46
2.3205432e-46
2.3204549e-46
2.320415e-46
2.3203989e-46
2.3203933e-46
2.3203921e-46
2.3203934e-46
2.3203979e-46
2.3204101e-46
8.2325259e-46
8.2318945e-46
8.2315842e-46
8.2314437e-46
8.2313868e-46
8.2313667e-46
8.2313616e-46
8.2313637e-46
8.2313736e-46
8.2314024e-46
8.2318945e-46
8.2312634e-46
8.2309531e-46
8.2308127e-46
8.2307559e-46
8.2307359e-46
8.2307311e-46
8.2307341e-46
8.2307467e-46
8.2307842e-46
8.2315842e-46
8.2309531e-46
8.2306429e-46
8.2305025e-46
8.2304457e-46
8.2304259e-46
8.2304213e-46
8.2304251e-46
8.2304394e-46
8.2304796e-46
8.2314437e-46
8.2308127e-46
8.2305025e-46
8.2303621e-46
8.2303054e-46
8.2302856e-46
8.2302813e-46
8.2302855e-46
8.2303006e-46
8.2303417e-46
8.2313868e-46
8.2307559e-46
8.2304457e-46
8.2303054e-46
8.2302487e-46
8.2302289e-46
8.2302247e-46
8.2302291e-46
8.2302445e-46
8.2302859e-46
8.2313667e-46
8.2307359e-46
8.2304259e-46
8.2302856e-46
8.2302289e-46
8.2302092e-46
8.230205e-46
8.2302095e-46
8.230225e-46
8.2302665e-46
8.2313616e-46
8.2307311e-46
8.2304213e-46
8.2302813e-46
8.2302247e-46
8.230205e-46
8.2302008e-46
8.2302054e-46
8.2302209e-46
8.2302624e-46
8.2313637e-46
8.2307341e-46
8.2304251e-46
8.2302855e-46
8.2302291e-46
8.2302095e-46
8.2302054e-46
8.2302099e-46
8.2302254e-46
8.230267e-46
8.2313736e-46
8.2307467e-46
8.2304394e-46
8.2303006e-46
8.2302445e-46
8.230225e-46
8.2302209e-46
8.2302254e-46
8.230241e-46
8.2302825e-46
8.2314024e-46
8.2307842e-46
8.2304796e-46
8.2303417e-46
8.2302859e-46
8.2302665e-46
8.2302624e-46
8.230267e-46
8.2302825e-46
8.2303241e-46
2.9759468e-45
2.9757257e-45
2.9756166e-45
2.9755671e-45
2.9755471e-45
2.97554e-45
2.9755382e-45
2.9755389e-45
2.9755424e-45
2.9755522e-45
2.9757257e-45
2.9755046e-45
2.9753955e-45
2.9753461e-45
2.975326e-45
2.975319e-45
2.9753173e-45
2.9753184e-45
2.9753228e-45
2.9753357e-45
2.9756166e-45
2.9753955e-45
2.9752864e-45
2.975237e-45
2.975217e-45
2.97521e-45
2.9752084e-45
2.9752098e-45
2.9752148e-45
2.9752287e-45
2.9755671e-45
2.9753461e-45
2.975237e-45
2.9751876e-45
2.9751676e-45
2.9751606e-45
2.9751591e-45
2.9751606e-45
2.9751659e-45
2.9751801e-45
2.9755471e-45
2.975326e-45
2.975217e-45
2.9751676e-45
2.9751476e-45
2.9751406e-45
2.9751392e-45
2.9751407e-45
2.9751461e-45
2.9751605e-45
2.97554e-45
2.975319e-45
2.97521e-45
2.9751606e-45
2.9751406e-45
2.9751337e-45
2.9751322e-45
2.9751338e-45
2.9751393e-45
2.9751537e-45
2.9755382e-45
2.9753173e-45
2.9752084e-45
2.9751591e-45
2.9751392e-45
2.9751322e-45
2.9751308e-45
2.9751324e-45
2.9751378e-45
2.9751522e-45
2.9755389e-45
2.9753184e-45
2.9752098e-45
2.9751606e-45
2.9751407e-45
2.9751338e-45
2.9751324e-45
2.975134e-45
2.9751394e-45
2.9751538e-45
2.9755424e-45
2.9753228e-45
2.9752148e-45
2.9751659e-45
2.9751461e-45
2.9751393e-45
2.9751378e-45
2.9751394e-45
2.9751449e-45
2.9751593e-45
2.9755522e-45
2.9753357e-45
2.9752287e-45
2.9751801e-45
2.9751605e-45
2.9751537e-45
2.9751522e-45
2.9751538e-45
2.9751593e-45
2.9751737e-45
1.0964307e-44
1.0963518e-44
1.0963127e-44
1.096295e-44
1.0962878e-44
1.0962852e-44
1.0962846e-44
1.0962849e-44
1.0962861e-44
1.0962895e-44
1.0963518e-44
1.0962729e-44
1.0962338e-44
1.0962161e-44
1.0962089e-44
1.0962064e-44
1.0962058e-44
1.0962062e-44
1.0962077e-44
1.0962123e-44
1.0963127e-44
1.0962338e-44
1.0961948e-44
1.096177e-44
1.0961699e-44
1.0961673e-44
1.0961668e-44
1.0961673e-44
1.0961691e-44
1.096174e-44
1.096295e-44
1.0962161e-44
1.096177e-44
1.0961593e-44
1.0961521e-44
1.0961496e-44
1.0961491e-44
1.0961496e-44
1.0961515e-44
1.0961566e-44
1.0962878e-44
1.0962089e-44
1.0961699e-44
1.0961521e-44
1.096145e-44
1.0961425e-44
1.0961419e-44
1.0961425e-44
1.0961444e-44
1.0961495e-44
1.0962852e-44
1.0962064e-44
1.0961673e-44
1.0961496e-44
1.0961425e-44
1.09614e-44
1.0961394e-44
1.09614e-44
1.096142e-44
1.0961471e-44
1.0962846e-44
1.0962058e-44
1.0961668e-44
1.0961491e-44
1.0961419e-44
1.0961394e-44
1.0961389e-44
1.0961395e-44
1.0961415e-44
1.0961465e-44
1.0962849e-44
1.0962062e-44
1.0961673e-44
1.0961496e-44
1.0961425e-44
1.09614e-44
1.0961395e-44
1.0961401e-44
1.096142e-44
1.0961471e-44
1.0962861e-44
1.0962077e-44
1.0961691e-44
1.0961515e-44
1.0961444e-44
1.096142e-44
1.0961415e-44
1.096142e-44
1.096144e-44
1.0961491e-44
1.0962895e-44
1.0962123e-44
1.096174e-44
1.0961566e-44
1.0961495e-44
1.0961471e-44
1.0961465e-44
1.0961471e-44
1.0961491e-44
1.0961542e-44
4.1173414e-44
4.1170544e-44
4.1169119e-44
4.1168471e-44
4.1168208e-44
4.1168115e-44
4.1168091e-44
4.1168101e-44
4.1168145e-44
4.1168268e-44
4.1170544e-44
4.1167676e-44
4.1166251e-44
4.1165603e-44
4.116534e-44
4.1165247e-44
4.1165225e-44
4.1165239e-44
4.1165297e-44
4.1165461e-44
4.1169119e-44
4.1166251e-44
4.1164826e-44
4.1164178e-44
4.1163915e-44
4.1163823e-44
4.1163803e-44
4.1163821e-44
4.1163886e-44
4.1164063e-44
4.1168471e-44
4.1165603e-44
4.1164178e-44
4.116353e-44
4.1163268e-44
4.1163176e-44
4.1163156e-44
4.1163176e-44
4.1163246e-44
4.1163427e-44
4.1168208e-44
4.116534e-44
4.1163915e-44
4.1163268e-44
4.1163006e-44
4.1162914e-44
4.1162895e-44
4.1162916e-44
4.1162987e-44
4.116317e-44
4.1168115e-44
4.1165247e-44
4.1163823e-44
4.1163176e-44
4.1162914e-44
4.1162823e-44
4.1162804e-44
4.1162825e-44
4.1162897e-44
4.116308e-44
4.1168091e-44
4.1165225e-44
4.1163803e-44
4.1163156e-44
4.1162895e-44
4.1162804e-44
4.1162785e-44
4.1162806e-44
4.1162878e-44
4.1163061e-44
4.1168101e-44
4.1165239e-44
4.1163821e-44
4.1163176e-44
4.1162916e-44
4.1162825e-44
4.1162806e-44
4.1162828e-44
4.1162899e-44
4.1163083e-44
4.1168145e-44
4.1165297e-44
4.1163886e-44
4.1163246e-44
4.1162987e-44
4.1162897e-44
4.1162878e-44
4.1162899e-44
4.1162971e-44
4.1163154e-44
4.1168268e-44
4.1165461e-44
4.1164063e-44
4.1163427e-44
4.116317e-44
4.116308e-44
4.1163061e-44
4.1163083e-44
4.1163154e-44
4.1163338e-44
1.5759525e-43
1.5758462e-43
1.5757932e-43
1.5757691e-43
1.5757593e-43
1.5757558e-43
1.5757549e-43
1.5757553e-43
1.5757569e-43
1.5757614e-43
1.5758462e-43
1.5757399e-43
1.575687e-43
1.5756628e-43
1.575653e-43
1.5756496e-43
1.5756488e-43
1.5756493e-43
1.5756514e-43
1.5756574e-43
1.5757932e-43
1.575687e-43
1.575634e-43
1.5756099e-43
1.5756001e-43
1.5755967e-43
1.5755959e-43
1.5755966e-43
1.575599e-43
1.5756055e-43
1.5757691e-43
1.5756628e-43
1.5756099e-43
1.5755858e-43
1.575576e-43
1.5755726e-43
1.5755719e-43
1.5755726e-43
1.5755752e-43
1.5755819e-43
1.5757593e-43
1.575653e-43
1.5756001e-43
1.575576e-43
1.5755662e-43
1.5755628e-43
1.5755621e-43
1.5755629e-43
1.5755655e-43
1.5755723e-43
1.5757558e-43
1.5756496e-43
1.5755967e-43
1.5755726e-43
1.5755628e-43
1.5755594e-43
1.5755587e-43
1.5755595e-43
1.5755622e-43
1.5755689e-43
1.5757549e-43
1.5756488e-43
1.5755959e-43
1.5755719e-43
1.5755621e-43
1.5755587e-43
1.575558e-43
1.5755588e-43
1.5755615e-43
1.5755682e-43
1.5757553e-43
1.5756493e-43
1.5755966e-43
1.5755726e-43
1.5755629e-43
1.5755595e-43
1.5755588e-43
1.5755596e-43
1.5755623e-43
1.5755691e-43
1.5757569e-43
1.5756514e-43
1.575599e-43
1.5755752e-43
1.5755655e-43
1.5755622e-43
1.5755615e-43
1.5755623e-43
1.575565e-43
1.5755717e-43
1.5757614e-43
1.5756574e-43
1.5756055e-43
1.5755819e-43
1.5755723e-43
1.5755689e-43
1.5755682e-43
1.5755691e-43
1.5755717e-43
1.5755785e-43
6.1484521e-43
6.148051e-43
6.1478504e-43
6.1477589e-43
6.1477218e-43
6.1477086e-43
6.1477053e-43
6.1477067e-43
6.1477129e-43
6.1477293e-43
6.148051e-43
6.14765e-43
6.1474494e-43
6.147358e-43
6.1473209e-43
6.1473078e-43
6.1473047e-43
6.1473067e-43
6.1473148e-43
6.1473372e-43
6.1478504e-43
6.1474494e-43
6.147249e-43
6.1471575e-43
6.1471204e-43
6.1471075e-43
6.1471046e-43
6.1471071e-43
6.1471164e-43
6.1471407e-43
6.1477589e-43
6.147358e-43
6.1471575e-43
6.1470661e-43
6.1470291e-43
6.1470161e-43
6.1470134e-43
6.1470162e-43
6.147026e-43
6.147051e-43
6.1477218e-43
6.1473209e-43
6.1471204e-43
6.1470291e-43
6.146992e-43
6.1469791e-43
6.1469764e-43
6.1469794e-43
6.1469894e-43
6.1470146e-43
6.1477086e-43
6.1473078e-43
6.1471075e-43
6.1470161e-43
6.1469791e-43
6.1469662e-43
6.1469635e-43
6.1469666e-43
6.1469767e-43
6.147002e-43
6.1477053e-43
6.1473047e-43
6.1471046e-43
6.1470134e-43
6.1469764e-43
6.1469635e-43
6.1469609e-43
6.146964e-43
6.1469741e-43
6.1469994e-43
6.1477067e-43
6.1473067e-43
6.1471071e-43
6.1470162e-43
6.1469794e-43
6.1469666e-43
6.146964e-43
6.1469671e-43
6.1469772e-43
6.1470025e-43
6.1477129e-43
6.1473148e-43
6.1471164e-43
6.147026e-43
6.1469894e-43
6.1469767e-43
6.1469741e-43
6.1469772e-43
6.1469873e-43
6.1470126e-43
6.1477293e-43
6.1473372e-43
6.1471407e-43
6.147051e-43
6.1470146e-43
6.147002e-43
6.1469994e-43
6.1470025e-43
6.1470126e-43
6.1470379e-43
2.4450379e-42
2.4448837e-42
2.4448064e-42
2.444771e-42
2.4447567e-42
2.4447516e-42
2.4447503e-42
2.4447509e-42
2.4447532e-42
2.4447594e-42
2.4448837e-42
2.4447295e-42
2.4446522e-42
2.4446169e-42
2.4446025e-42
2.4445975e-42
2.4445963e-42
2.4445971e-42
2.4446002e-42
2.4446087e-42
2.4448064e-42
2.4446522e-42
2.4445749e-42
2.4445396e-42
2.4445252e-42
2.4445202e-42
2.4445191e-42
2.4445201e-42
2.4445237e-42
2.444533e-42
2.444771e-42
2.4446169e-42
2.4445396e-42
2.4445043e-42
2.44449e-42
2.444485e-42
2.4444839e-42
2.444485e-42
2.4444888e-42
2.4444984e-42
2.4447567e-42
2.4446025e-42
2.4445252e-42
2.44449e-42
2.4444756e-42
2.4444706e-42
2.4444696e-42
2.4444708e-42
2.4444747e-42
2.4444843e-42
2.4447516e-42
2.4445975e-42
2.4445202e-42
2.444485e-42
2.4444706e-42
2.4444657e-42
2.4444646e-42
2.4444658e-42
2.4444697e-42
2.4444794e-42
2.4447503e-42
2.4445963e-42
2.4445191e-42
2.4444839e-42
2.4444696e-42
2.4444646e-42
2.4444636e-42
2.4444648e-42
2.4444687e-42
2.4444784e-42
2.4447509e-42
2.4445971e-42
2.4445201e-42
2.444485e-42
2.4444708e-42
2.4444658e-42
2.4444648e-42
2.444466e-42
2.44447e-42
2.4444796e-42
2.4447532e-42
2.4446002e-42
2.4445237e-42
2.4444888e-42
2.4444747e-42
2.4444697e-42
2.4444687e-42
2.44447e-42
2.4444739e-42
2.4444835e-42
2.4447594e-42
2.4446087e-42
2.444533e-42
2.4444984e-42
2.4444843e-42
2.4444794e-42
2.4444784e-42
2.4444796e-42
2.4444835e-42
2.4444932e-42
9.9105508e-42
9.9099468e-42
9.9096429e-42
9.9095039e-42
9.9094474e-42
9.9094274e-42
9.9094224e-42
9.9094245e-42
9.9094338e-42
9.9094575e-42
9.9099468e-42
9.909343e-42
9.9090391e-42
9.9089002e-42
9.9088437e-42
9.9088238e-42
9.9088191e-42
9.9088223e-42
9.9088346e-42
9.9088677e-42
9.9096429e-42
9.9090391e-42
9.9087354e-42
9.9085965e-42
9.90854e-42
9.9085203e-42
9.9085159e-42
9.9085199e-42
9.908534e-42
9.9085702e-42
9.9095039e-42
9.9089002e-42
9.9085965e-42
9.9084576e-42
9.9084012e-42
9.9083815e-42
9.9083773e-42
9.9083818e-42
9.9083968e-42
9.908434e-42
9.9094474e-42
9.9088437e-42
9.90854e-42
9.9084012e-42
9.9083448e-42
9.9083252e-42
9.9083211e-42
9.9083258e-42
9.9083411e-42
9.9083786e-42
9.9094274e-42
9.9088238e-42
9.9085203e-42
9.9083815e-42
9.9083252e-42
9.9083056e-42
9.9083016e-42
9.9083063e-42
9.9083217e-42
9.9083593e-42
9.9094224e-42
9.9088191e-42
9.9085159e-42
9.9083773e-42
9.9083211e-42
9.9083016e-42
9.9082976e-42
9.9083024e-42
9.9083178e-42
9.9083555e-42
9.9094245e-42
9.9088223e-42
9.9085199e-42
9.9083818e-42
9.9083258e-42
9.9083063e-42
9.9083024e-42
9.9083072e-42
9.9083227e-42
9.9083603e-42
9.9094338e-42
9.9088346e-42
9.908534e-42
9.9083968e-42
9.9083411e-42
9.9083217e-42
9.9083178e-42
9.9083227e-42
9.9083381e-42
9.9083758e-42
9.9094575e-42
9.9088677e-42
9.9085702e-42
9.908434e-42
9.9083786e-42
9.9083593e-42
9.9083555e-42
9.9083603e-42
9.9083758e-42
9.9084134e-42
4.0944158e-41
4.0941748e-41
4.0940532e-41
4.0939975e-41
4.0939748e-41
4.0939668e-41
4.0939648e-41
4.0939657e-41
4.0939694e-41
4.0939787e-41
4.0941748e-41
4.0939339e-41
4.0938123e-41
4.0937566e-41
4.093734e-41
4.093726e-41
4.0937241e-41
4.0937254e-41
4.0937303e-41
4.0937435e-41
4.0940532e-41
4.0938123e-41
4.0936908e-41
4.0936351e-41
4.0936125e-41
4.0936045e-41
4.0936028e-41
4.0936044e-41
4.0936101e-41
4.0936245e-41
4.0939975e-41
4.0937566e-41
4.0936351e-41
4.0935794e-41
4.0935568e-41
4.0935489e-41
4.0935473e-41
4.0935491e-41
4.0935551e-41
4.0935699e-41
4.0939748e-41
4.093734e-41
4.0936125e-41
4.0935568e-41
4.0935342e-41
4.0935263e-41
4.0935247e-41
4.0935266e-41
4.0935328e-41
4.0935477e-41
4.0939668e-41
4.093726e-41
4.0936045e-41
4.0935489e-41
4.0935263e-41
4.0935185e-41
4.0935169e-41
4.0935188e-41
4.093525e-41
4.09354e-41
4.0939648e-41
4.0937241e-41
4.0936028e-41
4.0935473e-41
4.0935247e-41
4.0935169e-41
4.0935153e-41
4.0935173e-41
4.0935235e-41
4.0935384e-41
4.0939657e-41
4.0937254e-41
4.0936044e-41
4.0935491e-41
4.0935266e-41
4.0935188e-41
4.0935173e-41
4.0935192e-41
4.0935254e-41
4.0935404e-41
4.0939694e-41
4.0937303e-41
4.0936101e-41
4.0935551e-41
4.0935328e-41
4.093525e-41
4.0935235e-41
4.0935254e-41
4.0935316e-41
4.0935466e-41
4.0939787e-41
4.0937435e-41
4.0936245e-41
4.0935699e-41
4.0935477e-41
4.09354e-41
4.0935384e-41
4.0935404e-41
4.0935466e-41
4.0935616e-41
1.7240574e-40
1.7239595e-40
1.7239099e-40
1.7238872e-40
1.7238779e-40
1.7238746e-40
1.7238738e-40
1.7238742e-40
1.7238757e-40
1.7238794e-40
1.7239595e-40
1.7238615e-40
1.723812e-40
1.7237893e-40
1.72378e-40
1.7237768e-40
1.723776e-40
1.7237765e-40
1.7237785e-40
1.7237838e-40
1.7239099e-40
1.723812e-40
1.7237624e-40
1.7237397e-40
1.7237305e-40
1.7237272e-40
1.7237265e-40
1.7237272e-40
1.7237295e-40
1.7237353e-40
1.7238872e-40
1.7237893e-40
1.7237397e-40
1.723717e-40
1.7237078e-40
1.7237045e-40
1.7237039e-40
1.7237046e-40
1.7237071e-40
1.7237131e-40
1.7238779e-40
1.72378e-40
1.7237305e-40
1.7237078e-40
1.7236985e-40
1.7236953e-40
1.7236947e-40
1.7236955e-40
1.723698e-40
1.723704e-40
1.7238746e-40
1.7237768e-40
1.7237272e-40
1.7237045e-40
1.7236953e-40
1.7236921e-40
1.7236915e-40
1.7236923e-40
1.7236948e-40
1.7237009e-40
1.7238738e-40
1.723776e-40
1.7237265e-40
1.7237039e-40
1.7236947e-40
1.7236915e-40
1.7236908e-40
1.7236916e-40
1.7236942e-40
1.7237002e-40
1.7238742e-40
1.7237765e-40
1.7237272e-40
1.7237046e-40
1.7236955e-40
1.7236923e-40
1.7236916e-40
1.7236924e-40
1.723695e-40
1.723701e-40
1.7238757e-40
1.7237785e-40
1.7237295e-40
1.7237071e-40
1.723698e-40
1.7236948e-40
1.7236942e-40
1.723695e-40
1.7236975e-40
1.7237036e-40
1.7238794e-40
1.7237838e-40
1.7237353e-40
1.7237131e-40
1.723704e-40
1.7237009e-40
1.7237002e-40
1.723701e-40
1.7237036e-40
1.7237097e-40
7.3986861e-40
7.3982807e-40
7.3980749e-40
7.3979804e-40
7.3979419e-40
7.3979283e-40
7.3979249e-40
7.3979264e-40
7.3979326e-40
7.3979477e-40
7.3982807e-40
7.3978754e-40
7.3976696e-40
7.3975752e-40
7.3975367e-40
7.3975231e-40
7.39752e-40
7.3975222e-40
7.3975306e-40
7.3975524e-40
7.3980749e-40
7.3976696e-40
7.3974639e-40
7.3973695e-40
7.397331e-40
7.3973176e-40
7.3973147e-40
7.3973175e-40
7.3973272e-40
7.3973512e-40
7.3979804e-40
7.3975752e-40
7.3973695e-40
7.3972751e-40
7.3972366e-40
7.3972232e-40
7.3972205e-40
7.3972236e-40
7.3972339e-40
7.3972586e-40
7.3979419e-40
7.3975367e-40
7.397331e-40
7.3972366e-40
7.3971982e-40
7.3971849e-40
7.3971822e-40
7.3971855e-40
7.397196e-40
7.3972209e-40
7.3979283e-40
7.3975231e-40
7.3973176e-40
7.3972232e-40
7.3971849e-40
7.3971715e-40
7.3971689e-40
7.3971722e-40
7.3971829e-40
7.3972078e-40
7.3979249e-40
7.39752e-40
7.3973147e-40
7.3972205e-40
7.3971822e-40
7.3971689e-40
7.3971662e-40
7.3971696e-40
7.3971803e-40
7.3972053e-40
7.3979264e-40
7.3975222e-40
7.3973175e-40
7.3972236e-40
7.3971855e-40
7.3971722e-40
7.3971696e-40
7.397173e-40
7.3971837e-40
7.3972087e-40
7.3979326e-40
7.3975306e-40
7.3973272e-40
7.3972339e-40
7.397196e-40
7.3971829e-40
7.3971803e-40
7.3971837e-40
7.3971943e-40
7.3972194e-40
7.3979477e-40
7.3975524e-40
7.3973512e-40
7.3972586e-40
7.3972209e-40
7.3972078e-40
7.3972053e-40
7.3972087e-40
7.3972194e-40
7.3972444e-40
3.2357251e-39
3.2355541e-39
3.2354671e-39
3.2354271e-39
3.2354108e-39
3.2354051e-39
3.2354036e-39
3.2354043e-39
3.2354069e-39
3.2354132e-39
3.2355541e-39
3.2353833e-39
3.2352963e-39
3.2352563e-39
3.23524e-39
3.2352343e-39
3.2352329e-39
3.2352339e-39
3.2352374e-39
3.2352466e-39
3.2354671e-39
3.2352963e-39
3.2352093e-39
3.2351693e-39
3.2351531e-39
3.2351474e-39
3.2351461e-39
3.2351473e-39
3.2351515e-39
3.2351616e-39
3.2354271e-39
3.2352563e-39
3.2351693e-39
3.2351294e-39
3.2351131e-39
3.2351074e-39
3.2351062e-39
3.2351076e-39
3.235112e-39
3.2351224e-39
3.2354108e-39
3.23524e-39
3.2351531e-39
3.2351131e-39
3.2350968e-39
3.2350912e-39
3.23509e-39
3.2350915e-39
3.2350959e-39
3.2351064e-39
3.2354051e-39
3.2352343e-39
3.2351474e-39
3.2351074e-39
3.2350912e-39
3.2350855e-39
3.2350844e-39
3.2350858e-39
3.2350904e-39
3.2351009e-39
3.2354036e-39
3.2352329e-39
3.2351461e-39
3.2351062e-39
3.23509e-39
3.2350844e-39
3.2350833e-39
3.2350847e-39
3.2350893e-39
3.2350998e-39
3.2354043e-39
3.2352339e-39
3.2351473e-39
3.2351076e-39
3.2350915e-39
3.2350858e-39
3.2350847e-39
3.2350862e-39
3.2350907e-39
3.2351013e-39
3.2354069e-39
3.2352374e-39
3.2351515e-39
3.235112e-39
3.2350959e-39
3.2350904e-39
3.2350893e-39
3.2350907e-39
3.2350953e-39
3.2351058e-39
3.2354132e-39
3.2352466e-39
3.2351616e-39
3.2351224e-39
3.2351064e-39
3.2351009e-39
3.2350998e-39
3.2351013e-39
3.2351058e-39
3.2351164e-39
1.4420059e-38
1.4419325e-38
1.4418951e-38
1.4418778e-38
1.4418708e-38
1.4418683e-38
1.4418677e-38
1.441868e-38
1.4418691e-38
1.4418718e-38
1.4419325e-38
1.4418592e-38
1.4418217e-38
1.4418045e-38
1.4417974e-38
1.441795e-38
1.4417944e-38
1.4417948e-38
1.4417964e-38
1.4418003e-38
1.4418951e-38
1.4418217e-38
1.4417843e-38
1.441767e-38
1.44176e-38
1.4417576e-38
1.441757e-38
1.4417576e-38
1.4417594e-38
1.4417637e-38
1.4418778e-38
1.4418045e-38
1.441767e-38
1.4417498e-38
1.4417428e-38
1.4417403e-38
1.4417398e-38
1.4417404e-38
1.4417423e-38
1.4417468e-38
1.4418708e-38
1.4417974e-38
1.44176e-38
1.4417428e-38
1.4417358e-38
1.4417333e-38
1.4417329e-38
1.4417335e-38
1.4417354e-38
1.4417399e-38
1.4418683e-38
1.441795e-38
1.4417576e-38
1.4417403e-38
1.4417333e-38
1.4417309e-38
1.4417304e-38
1.4417311e-38
1.441733e-38
1.4417375e-38
1.4418677e-38
1.4417944e-38
1.441757e-38
1.4417398e-38
1.4417329e-38
1.4417304e-38
1.4417299e-38
1.4417306e-38
1.4417326e-38
1.4417371e-38
1.441868e-38
1.4417948e-38
1.4417576e-38
1.4417404e-38
1.4417335e-38
1.4417311e-38
1.4417306e-38
1.4417312e-38
1.4417332e-38
1.4417377e-38
1.4418691e-38
1.4417964e-38
1.4417594e-38
1.4417423e-38
1.4417354e-38
1.441733e-38
1.4417326e-38
1.4417332e-38
1.4417352e-38
1.4417397e-38
1.4418718e-38
1.4418003e-38
1.4417637e-38
1.4417468e-38
1.4417399e-38
1.4417375e-38
1.4417371e-38
1.4417377e-38
1.4417397e-38
1.4417442e-38
6.5478409e-38
6.5475201e-38
6.5473559e-38
6.5472802e-38
6.5472493e-38
6.5472384e-38
6.5472357e-38
6.547237e-38
6.5472419e-38
6.5472534e-38
6.5475201e-38
6.5471993e-38
6.5470352e-38
6.5469596e-38
6.5469287e-38
6.5469178e-38
6.5469153e-38
6.5469172e-38
6.546924e-38
6.5469411e-38
6.5473559e-38
6.5470352e-38
6.5468711e-38
6.5467955e-38
6.5467646e-38
6.5467539e-38
6.5467516e-38
6.5467539e-38
6.5467618e-38
6.5467807e-38
6.5472802e-38
6.5469596e-38
6.5467955e-38
6.5467199e-38
6.546689e-38
6.5466783e-38
6.5466761e-38
6.5466788e-38
6.5466872e-38
6.5467067e-38
6.5472493e-38
6.5469287e-38
6.5467646e-38
6.546689e-38
6.5466582e-38
6.5466475e-38
6.5466454e-38
6.5466482e-38
6.5466568e-38
6.5466765e-38
6.5472384e-38
6.5469178e-38
6.5467539e-38
6.5466783e-38
6.5466475e-38
6.5466368e-38
6.5466347e-38
6.5466376e-38
6.5466462e-38
6.546666e-38
6.5472357e-38
6.5469153e-38
6.5467516e-38
6.5466761e-38
6.5466454e-38
6.5466347e-38
6.5466327e-38
6.5466355e-38
6.5466442e-38
6.546664e-38
6.547237e-38
6.5469172e-38
6.5467539e-38
6.5466788e-38
6.5466482e-38
6.5466376e-38
6.5466355e-38
6.5466384e-38
6.5466471e-38
6.5466669e-38
6.5472419e-38
6.546924e-38
6.5467618e-38
6.5466872e-38
6.5466568e-38
6.5466462e-38
6.5466442e-38
6.5466471e-38
6.5466558e-38
6.5466756e-38
6.5472534e-38
6.5469411e-38
6.5467807e-38
6.5467067e-38
6.5466765e-38
6.546666e-38
6.546664e-38
6.5466669e-38
6.5466756e-38
6.5466954e-38
3.0291076e-37
3.0289648e-37
3.0288916e-37
3.0288578e-37
3.028844e-37
3.0288391e-37
3.0288379e-37
3.0288385e-37
3.0288407e-37
3.0288457e-37
3.0289648e-37
3.0288221e-37
3.0287489e-37
3.0287151e-37
3.0287013e-37
3.0286964e-37
3.0286953e-37
3.0286962e-37
3.0286992e-37
3.0287068e-37
3.0288916e-37
3.0287489e-37
3.0286757e-37
3.0286419e-37
3.0286281e-37
3.0286233e-37
3.0286222e-37
3.0286233e-37
3.0286269e-37
3.0286353e-37
3.0288578e-37
3.0287151e-37
3.0286419e-37
3.0286081e-37
3.0285943e-37
3.0285895e-37
3.0285885e-37
3.0285897e-37
3.0285935e-37
3.0286022e-37
3.028844e-37
3.0287013e-37
3.0286281e-37
3.0285943e-37
3.0285805e-37
3.0285757e-37
3.0285748e-37
3.0285761e-37
3.0285799e-37
3.0285887e-37
3.0288391e-37
3.0286964e-37
3.0286233e-37
3.0285895e-37
3.0285757e-37
3.028571e-37
3.02857e-37
3.0285713e-37
3.0285752e-37
3.028584e-37
3.0288379e-37
3.0286953e-37
3.0286222e-37
3.0285885e-37
3.0285748e-37
3.02857e-37
3.0285691e-37
3.0285704e-37
3.0285743e-37
3.0285831e-37
3.0288385e-37
3.0286962e-37
3.0286233e-37
3.0285897e-37
3.0285761e-37
3.0285713e-37
3.0285704e-37
3.0285717e-37
3.0285756e-37
3.0285845e-37
3.0288407e-37
3.0286992e-37
3.0286269e-37
3.0285935e-37
3.0285799e-37
3.0285752e-37
3.0285743e-37
3.0285756e-37
3.0285796e-37
3.0285884e-37
3.0288457e-37
3.0287068e-37
3.0286353e-37
3.0286022e-37
3.0285887e-37
3.028584e-37
3.0285831e-37
3.0285845e-37