/*--------------------------------*- C++ -*----------------------------------*\
| =========                 |                                                 |
| \\      /  F ield         | OpenFOAM: The Open Source CFD Toolbox           |
|  \\    /   O peration     | Version:  dev                                   |
|   \\  /    A nd           | Web:      www.OpenFOAM.org                      |
|    \\/     M anipulation  |                                                 |
\*---------------------------------------------------------------------------*/
FoamFile
{
    version     2.0;
    format      ascii;
    class       volScalarField;
    location    "2";
    object      A;
}
// * * * * * * * * * * * * * * * * * * * * * * * * * * * * * * * * * * * * * //

dimensions      [0 0 0 0 1 0 0];

internalField   nonuniform List<scalar> 
10000
(
2.3449275e-118
2.3377984e-118
2.3371385e-118
2.3370959e-118
2.3370938e-118
2.3370937e-118
2.3370937e-118
2.3370937e-118
2.337094e-118
2.3370975e-118
2.3377984e-118
2.3306943e-118
2.3300367e-118
2.3299942e-118
2.3299921e-118
2.3299921e-118
2.3299921e-118
2.3299922e-118
2.3299938e-118
2.3300126e-118
2.3371385e-118
2.3300367e-118
2.3293792e-118
2.3293368e-118
2.3293347e-118
2.3293346e-118
2.3293346e-118
2.3293348e-118
2.3293366e-118
2.3293566e-118
2.3370959e-118
2.3299942e-118
2.3293368e-118
2.3292944e-118
2.3292923e-118
2.3292922e-118
2.3292922e-118
2.3292923e-118
2.3292942e-118
2.3293143e-118
2.3370938e-118
2.3299921e-118
2.3293347e-118
2.3292923e-118
2.3292902e-118
2.3292901e-118
2.3292901e-118
2.3292903e-118
2.3292921e-118
2.3293122e-118
2.3370937e-118
2.3299921e-118
2.3293346e-118
2.3292922e-118
2.3292901e-118
2.3292901e-118
2.3292901e-118
2.3292902e-118
2.329292e-118
2.3293121e-118
2.3370937e-118
2.3299921e-118
2.3293346e-118
2.3292922e-118
2.3292901e-118
2.3292901e-118
2.3292901e-118
2.3292902e-118
2.329292e-118
2.3293122e-118
2.3370937e-118
2.3299922e-118
2.3293348e-118
2.3292923e-118
2.3292903e-118
2.3292902e-118
2.3292902e-118
2.3292903e-118
2.3292921e-118
2.3293123e-118
2.337094e-118
2.3299938e-118
2.3293366e-118
2.3292942e-118
2.3292921e-118
2.329292e-118
2.329292e-118
2.3292921e-118
2.3292939e-118
2.3293141e-118
2.3370975e-118
2.3300126e-118
2.3293566e-118
2.3293143e-118
2.3293122e-118
2.3293121e-118
2.3293122e-118
2.3293123e-118
2.3293141e-118
2.3293342e-118
5.9080062e-117
5.8905035e-117
5.8888818e-117
5.8887772e-117
5.888772e-117
5.8887718e-117
5.8887718e-117
5.8887719e-117
5.8887725e-117
5.8887814e-117
5.8905035e-117
5.8730606e-117
5.8714445e-117
5.8713402e-117
5.8713351e-117
5.8713349e-117
5.8713349e-117
5.8713352e-117
5.8713392e-117
5.8713862e-117
5.8888818e-117
5.8714445e-117
5.8698289e-117
5.8697247e-117
5.8697196e-117
5.8697194e-117
5.8697194e-117
5.8697197e-117
5.8697241e-117
5.8697743e-117
5.8887772e-117
5.8713402e-117
5.8697247e-117
5.8696205e-117
5.8696153e-117
5.8696151e-117
5.8696151e-117
5.8696154e-117
5.8696199e-117
5.8696703e-117
5.888772e-117
5.8713351e-117
5.8697196e-117
5.8696153e-117
5.8696102e-117
5.86961e-117
5.86961e-117
5.8696103e-117
5.8696148e-117
5.8696652e-117
5.8887718e-117
5.8713349e-117
5.8697194e-117
5.8696151e-117
5.86961e-117
5.8696098e-117
5.8696098e-117
5.8696101e-117
5.8696146e-117
5.869665e-117
5.8887718e-117
5.8713349e-117
5.8697194e-117
5.8696151e-117
5.86961e-117
5.8696098e-117
5.8696098e-117
5.8696101e-117
5.8696146e-117
5.869665e-117
5.8887719e-117
5.8713352e-117
5.8697197e-117
5.8696154e-117
5.8696103e-117
5.8696101e-117
5.8696101e-117
5.8696104e-117
5.8696149e-117
5.8696653e-117
5.8887725e-117
5.8713392e-117
5.8697241e-117
5.8696199e-117
5.8696148e-117
5.8696146e-117
5.8696146e-117
5.8696149e-117
5.8696194e-117
5.8696698e-117
5.8887814e-117
5.8713862e-117
5.8697743e-117
5.8696703e-117
5.8696652e-117
5.869665e-117
5.869665e-117
5.8696653e-117
5.8696698e-117
5.8697202e-117
1.4723547e-115
1.4681081e-115
1.4677146e-115
1.4676892e-115
1.467688e-115
1.4676879e-115
1.4676879e-115
1.4676879e-115
1.4676881e-115
1.4676902e-115
1.4681081e-115
1.4638758e-115
1.4634836e-115
1.4634583e-115
1.463457e-115
1.463457e-115
1.463457e-115
1.463457e-115
1.463458e-115
1.4634695e-115
1.4677146e-115
1.4634836e-115
1.4630915e-115
1.4630662e-115
1.4630649e-115
1.4630649e-115
1.4630649e-115
1.463065e-115
1.4630661e-115
1.4630784e-115
1.4676892e-115
1.4634583e-115
1.4630662e-115
1.4630409e-115
1.4630396e-115
1.4630396e-115
1.4630396e-115
1.4630397e-115
1.4630408e-115
1.4630531e-115
1.467688e-115
1.463457e-115
1.4630649e-115
1.4630396e-115
1.4630384e-115
1.4630383e-115
1.4630383e-115
1.4630384e-115
1.4630395e-115
1.4630519e-115
1.4676879e-115
1.463457e-115
1.4630649e-115
1.4630396e-115
1.4630383e-115
1.4630383e-115
1.4630383e-115
1.4630384e-115
1.4630395e-115
1.4630518e-115
1.4676879e-115
1.463457e-115
1.4630649e-115
1.4630396e-115
1.4630383e-115
1.4630383e-115
1.4630383e-115
1.4630384e-115
1.4630395e-115
1.4630518e-115
1.4676879e-115
1.463457e-115
1.463065e-115
1.4630397e-115
1.4630384e-115
1.4630384e-115
1.4630384e-115
1.4630384e-115
1.4630395e-115
1.4630519e-115
1.4676881e-115
1.463458e-115
1.4630661e-115
1.4630408e-115
1.4630395e-115
1.4630395e-115
1.4630395e-115
1.4630395e-115
1.4630407e-115
1.463053e-115
1.4676902e-115
1.4634695e-115
1.4630784e-115
1.4630531e-115
1.4630519e-115
1.4630518e-115
1.4630518e-115
1.4630519e-115
1.463053e-115
1.4630654e-115
3.7832546e-114
3.7726363e-114
3.7716521e-114
3.7715886e-114
3.7715854e-114
3.7715853e-114
3.7715853e-114
3.7715853e-114
3.7715857e-114
3.7715909e-114
3.7726363e-114
3.7620527e-114
3.7610716e-114
3.7610084e-114
3.7610052e-114
3.7610051e-114
3.7610051e-114
3.7610053e-114
3.7610078e-114
3.7610369e-114
3.7716521e-114
3.7610716e-114
3.7600909e-114
3.7600277e-114
3.7600246e-114
3.7600244e-114
3.7600244e-114
3.7600246e-114
3.7600274e-114
3.7600585e-114
3.7715886e-114
3.7610084e-114
3.7600277e-114
3.7599644e-114
3.7599613e-114
3.7599612e-114
3.7599612e-114
3.7599614e-114
3.7599642e-114
3.7599954e-114
3.7715854e-114
3.7610052e-114
3.7600246e-114
3.7599613e-114
3.7599582e-114
3.7599581e-114
3.7599581e-114
3.7599582e-114
3.7599611e-114
3.7599923e-114
3.7715853e-114
3.7610051e-114
3.7600244e-114
3.7599612e-114
3.7599581e-114
3.7599579e-114
3.7599579e-114
3.7599581e-114
3.7599609e-114
3.7599922e-114
3.7715853e-114
3.7610051e-114
3.7600244e-114
3.7599612e-114
3.7599581e-114
3.7599579e-114
3.7599579e-114
3.7599581e-114
3.7599609e-114
3.7599922e-114
3.7715853e-114
3.7610053e-114
3.7600246e-114
3.7599614e-114
3.7599582e-114
3.7599581e-114
3.7599581e-114
3.7599583e-114
3.7599611e-114
3.7599923e-114
3.7715857e-114
3.7610078e-114
3.7600274e-114
3.7599642e-114
3.7599611e-114
3.7599609e-114
3.7599609e-114
3.7599611e-114
3.7599639e-114
3.7599952e-114
3.7715909e-114
3.7610369e-114
3.7600585e-114
3.7599954e-114
3.7599923e-114
3.7599922e-114
3.7599922e-114
3.7599923e-114
3.7599952e-114
3.7600264e-114
1.0022333e-112
9.9949721e-113
9.9924354e-113
9.9922718e-113
9.9922637e-113
9.9922634e-113
9.9922634e-113
9.9922635e-113
9.9922645e-113
9.9922777e-113
9.9949721e-113
9.9676986e-113
9.9651701e-113
9.965007e-113
9.964999e-113
9.9649986e-113
9.9649986e-113
9.9649991e-113
9.9650057e-113
9.9650813e-113
9.9924354e-113
9.9651701e-113
9.9626423e-113
9.9624793e-113
9.9624713e-113
9.9624709e-113
9.962471e-113
9.9624714e-113
9.9624787e-113
9.9625597e-113
9.9922718e-113
9.965007e-113
9.9624793e-113
9.9623162e-113
9.9623082e-113
9.9623079e-113
9.9623079e-113
9.9623084e-113
9.9623157e-113
9.962397e-113
9.9922637e-113
9.964999e-113
9.9624713e-113
9.9623082e-113
9.9623002e-113
9.9622999e-113
9.9622999e-113
9.9623003e-113
9.9623077e-113
9.962389e-113
9.9922634e-113
9.9649986e-113
9.9624709e-113
9.9623079e-113
9.9622999e-113
9.9622995e-113
9.9622996e-113
9.9623e-113
9.9623074e-113
9.9623887e-113
9.9922634e-113
9.9649986e-113
9.962471e-113
9.9623079e-113
9.9622999e-113
9.9622996e-113
9.9622996e-113
9.9623e-113
9.9623074e-113
9.9623887e-113
9.9922635e-113
9.9649991e-113
9.9624714e-113
9.9623084e-113
9.9623003e-113
9.9623e-113
9.9623e-113
9.9623005e-113
9.9623079e-113
9.9623892e-113
9.9922645e-113
9.9650057e-113
9.9624787e-113
9.9623157e-113
9.9623077e-113
9.9623074e-113
9.9623074e-113
9.9623079e-113
9.9623152e-113
9.9623965e-113
9.9922777e-113
9.9650813e-113
9.9625597e-113
9.962397e-113
9.962389e-113
9.9623887e-113
9.9623887e-113
9.9623892e-113
9.9623965e-113
9.9624779e-113
2.7368933e-111
2.7296292e-111
2.7289556e-111
2.7289122e-111
2.72891e-111
2.7289099e-111
2.7289099e-111
2.72891e-111
2.7289102e-111
2.7289137e-111
2.7296292e-111
2.7223877e-111
2.7217162e-111
2.7216729e-111
2.7216708e-111
2.7216707e-111
2.7216707e-111
2.7216708e-111
2.7216726e-111
2.7216929e-111
2.7289556e-111
2.7217162e-111
2.7210449e-111
2.7210016e-111
2.7209995e-111
2.7209994e-111
2.7209994e-111
2.7209995e-111
2.7210015e-111
2.7210233e-111
2.7289122e-111
2.7216729e-111
2.7210016e-111
2.7209583e-111
2.7209562e-111
2.7209561e-111
2.7209561e-111
2.7209562e-111
2.7209582e-111
2.7209801e-111
2.72891e-111
2.7216708e-111
2.7209995e-111
2.7209562e-111
2.7209541e-111
2.720954e-111
2.720954e-111
2.7209541e-111
2.7209561e-111
2.7209779e-111
2.7289099e-111
2.7216707e-111
2.7209994e-111
2.7209561e-111
2.720954e-111
2.7209539e-111
2.7209539e-111
2.720954e-111
2.720956e-111
2.7209778e-111
2.7289099e-111
2.7216707e-111
2.7209994e-111
2.7209561e-111
2.720954e-111
2.7209539e-111
2.7209539e-111
2.720954e-111
2.720956e-111
2.7209778e-111
2.72891e-111
2.7216708e-111
2.7209995e-111
2.7209562e-111
2.7209541e-111
2.720954e-111
2.720954e-111
2.7209542e-111
2.7209561e-111
2.720978e-111
2.7289102e-111
2.7216726e-111
2.7210015e-111
2.7209582e-111
2.7209561e-111
2.720956e-111
2.720956e-111
2.7209561e-111
2.7209581e-111
2.72098e-111
2.7289137e-111
2.7216929e-111
2.7210233e-111
2.7209801e-111
2.7209779e-111
2.7209778e-111
2.7209778e-111
2.720978e-111
2.72098e-111
2.7210018e-111
7.703079e-110
7.6832113e-110
7.6813687e-110
7.6812498e-110
7.681244e-110
7.6812437e-110
7.6812437e-110
7.6812438e-110
7.6812445e-110
7.6812538e-110
7.6832113e-110
7.663404e-110
7.661567e-110
7.6614485e-110
7.6614426e-110
7.6614424e-110
7.6614424e-110
7.6614427e-110
7.6614477e-110
7.6615038e-110
7.6813687e-110
7.661567e-110
7.6597305e-110
7.659612e-110
7.6596062e-110
7.659606e-110
7.659606e-110
7.6596063e-110
7.6596118e-110
7.659672e-110
7.6812498e-110
7.6614485e-110
7.659612e-110
7.6594936e-110
7.6594877e-110
7.6594875e-110
7.6594875e-110
7.6594879e-110
7.6594934e-110
7.6595538e-110
7.681244e-110
7.6614426e-110
7.6596062e-110
7.6594877e-110
7.6594819e-110
7.6594817e-110
7.6594817e-110
7.6594821e-110
7.6594876e-110
7.659548e-110
7.6812437e-110
7.6614424e-110
7.659606e-110
7.6594875e-110
7.6594817e-110
7.6594815e-110
7.6594815e-110
7.6594818e-110
7.6594873e-110
7.6595478e-110
7.6812437e-110
7.6614424e-110
7.659606e-110
7.6594875e-110
7.6594817e-110
7.6594815e-110
7.6594815e-110
7.6594818e-110
7.6594873e-110
7.6595478e-110
7.6812438e-110
7.6614427e-110
7.6596063e-110
7.6594879e-110
7.6594821e-110
7.6594818e-110
7.6594818e-110
7.6594822e-110
7.6594877e-110
7.6595481e-110
7.6812445e-110
7.6614477e-110
7.6596118e-110
7.6594934e-110
7.6594876e-110
7.6594873e-110
7.6594873e-110
7.6594877e-110
7.6594932e-110
7.6595536e-110
7.6812538e-110
7.6615038e-110
7.659672e-110
7.6595538e-110
7.659548e-110
7.6595478e-110
7.6595478e-110
7.6595481e-110
7.6595536e-110
7.6596141e-110
2.234168e-108
2.2285711e-108
2.2280519e-108
2.2280184e-108
2.2280168e-108
2.2280167e-108
2.2280167e-108
2.2280167e-108
2.228017e-108
2.2280195e-108
2.2285711e-108
2.2229909e-108
2.2224732e-108
2.2224399e-108
2.2224382e-108
2.2224381e-108
2.2224382e-108
2.2224382e-108
2.2224397e-108
2.2224557e-108
2.2280519e-108
2.2224732e-108
2.2219558e-108
2.2219224e-108
2.2219207e-108
2.2219207e-108
2.2219207e-108
2.2219208e-108
2.2219223e-108
2.2219395e-108
2.2280184e-108
2.2224399e-108
2.2219224e-108
2.221889e-108
2.2218874e-108
2.2218873e-108
2.2218873e-108
2.2218874e-108
2.221889e-108
2.2219062e-108
2.2280168e-108
2.2224382e-108
2.2219207e-108
2.2218874e-108
2.2218857e-108
2.2218857e-108
2.2218857e-108
2.2218858e-108
2.2218873e-108
2.2219046e-108
2.2280167e-108
2.2224381e-108
2.2219207e-108
2.2218873e-108
2.2218857e-108
2.2218856e-108
2.2218856e-108
2.2218857e-108
2.2218873e-108
2.2219045e-108
2.2280167e-108
2.2224382e-108
2.2219207e-108
2.2218873e-108
2.2218857e-108
2.2218856e-108
2.2218856e-108
2.2218857e-108
2.2218873e-108
2.2219045e-108
2.2280167e-108
2.2224382e-108
2.2219208e-108
2.2218874e-108
2.2218858e-108
2.2218857e-108
2.2218857e-108
2.2218858e-108
2.2218874e-108
2.2219046e-108
2.228017e-108
2.2224397e-108
2.2219223e-108
2.221889e-108
2.2218873e-108
2.2218873e-108
2.2218873e-108
2.2218874e-108
2.221889e-108
2.2219062e-108
2.2280195e-108
2.2224557e-108
2.2219395e-108
2.2219062e-108
2.2219046e-108
2.2219045e-108
2.2219045e-108
2.2219046e-108
2.2219062e-108
2.2219234e-108
6.6762965e-107
6.6600602e-107
6.6585539e-107
6.6584567e-107
6.6584519e-107
6.6584517e-107
6.6584517e-107
6.6584518e-107
6.6584524e-107
6.6584598e-107
6.6600602e-107
6.643871e-107
6.642369e-107
6.6422721e-107
6.6422674e-107
6.6422672e-107
6.6422672e-107
6.6422674e-107
6.6422716e-107
6.6423186e-107
6.6585539e-107
6.642369e-107
6.6408674e-107
6.6407706e-107
6.6407658e-107
6.6407656e-107
6.6407657e-107
6.640766e-107
6.6407706e-107
6.640821e-107
6.6584567e-107
6.6422721e-107
6.6407706e-107
6.6406737e-107
6.640669e-107
6.6406688e-107
6.6406688e-107
6.6406691e-107
6.6406737e-107
6.6407244e-107
6.6584519e-107
6.6422674e-107
6.6407658e-107
6.640669e-107
6.6406642e-107
6.640664e-107
6.640664e-107
6.6406643e-107
6.640669e-107
6.6407197e-107
6.6584517e-107
6.6422672e-107
6.6407656e-107
6.6406688e-107
6.640664e-107
6.6406638e-107
6.6406639e-107
6.6406642e-107
6.6406688e-107
6.6407195e-107
6.6584517e-107
6.6422672e-107
6.6407657e-107
6.6406688e-107
6.640664e-107
6.6406639e-107
6.6406639e-107
6.6406642e-107
6.6406688e-107
6.6407195e-107
6.6584518e-107
6.6422674e-107
6.640766e-107
6.6406691e-107
6.6406643e-107
6.6406642e-107
6.6406642e-107
6.6406645e-107
6.6406691e-107
6.6407198e-107
6.6584524e-107
6.6422716e-107
6.6407706e-107
6.6406737e-107
6.640669e-107
6.6406688e-107
6.6406688e-107
6.6406691e-107
6.6406737e-107
6.6407244e-107
6.6584598e-107
6.6423186e-107
6.640821e-107
6.6407244e-107
6.6407197e-107
6.6407195e-107
6.6407195e-107
6.6407198e-107
6.6407244e-107
6.6407751e-107
2.0551465e-105
2.0502971e-105
2.0498471e-105
2.0498181e-105
2.0498167e-105
2.0498166e-105
2.0498166e-105
2.0498166e-105
2.0498168e-105
2.049819e-105
2.0502971e-105
2.0454614e-105
2.0450127e-105
2.0449838e-105
2.0449823e-105
2.0449823e-105
2.0449823e-105
2.0449824e-105
2.0449836e-105
2.0449979e-105
2.0498471e-105
2.0450127e-105
2.0445641e-105
2.0445352e-105
2.0445338e-105
2.0445337e-105
2.0445337e-105
2.0445338e-105
2.0445352e-105
2.0445505e-105
2.0498181e-105
2.0449838e-105
2.0445352e-105
2.0445063e-105
2.0445048e-105
2.0445048e-105
2.0445048e-105
2.0445049e-105
2.0445063e-105
2.0445216e-105
2.0498167e-105
2.0449823e-105
2.0445338e-105
2.0445048e-105
2.0445034e-105
2.0445034e-105
2.0445034e-105
2.0445035e-105
2.0445049e-105
2.0445202e-105
2.0498166e-105
2.0449823e-105
2.0445337e-105
2.0445048e-105
2.0445034e-105
2.0445033e-105
2.0445033e-105
2.0445034e-105
2.0445048e-105
2.0445202e-105
2.0498166e-105
2.0449823e-105
2.0445337e-105
2.0445048e-105
2.0445034e-105
2.0445033e-105
2.0445033e-105
2.0445034e-105
2.0445048e-105
2.0445202e-105
2.0498166e-105
2.0449824e-105
2.0445338e-105
2.0445049e-105
2.0445035e-105
2.0445034e-105
2.0445034e-105
2.0445035e-105
2.0445049e-105
2.0445202e-105
2.0498168e-105
2.0449836e-105
2.0445352e-105
2.0445063e-105
2.0445049e-105
2.0445048e-105
2.0445048e-105
2.0445049e-105
2.0445063e-105
2.0445217e-105
2.049819e-105
2.0449979e-105
2.0445505e-105
2.0445216e-105
2.0445202e-105
2.0445202e-105
2.0445202e-105
2.0445202e-105
2.0445217e-105
2.044537e-105
6.5155633e-104
6.5006541e-104
6.4992704e-104
6.4991812e-104
6.4991768e-104
6.4991766e-104
6.4991766e-104
6.4991767e-104
6.4991772e-104
6.4991839e-104
6.5006541e-104
6.4857859e-104
6.484406e-104
6.484317e-104
6.4843127e-104
6.4843125e-104
6.4843125e-104
6.4843127e-104
6.4843167e-104
6.4843611e-104
6.4992704e-104
6.484406e-104
6.4830266e-104
6.4829376e-104
6.4829332e-104
6.4829331e-104
6.4829331e-104
6.4829333e-104
6.4829377e-104
6.4829853e-104
6.4991812e-104
6.484317e-104
6.4829376e-104
6.4828486e-104
6.4828443e-104
6.4828441e-104
6.4828441e-104
6.4828444e-104
6.4828488e-104
6.4828966e-104
6.4991768e-104
6.4843127e-104
6.4829332e-104
6.4828443e-104
6.4828399e-104
6.4828397e-104
6.4828397e-104
6.48284e-104
6.4828444e-104
6.4828923e-104
6.4991766e-104
6.4843125e-104
6.4829331e-104
6.4828441e-104
6.4828397e-104
6.4828396e-104
6.4828396e-104
6.4828398e-104
6.4828442e-104
6.4828921e-104
6.4991766e-104
6.4843125e-104
6.4829331e-104
6.4828441e-104
6.4828397e-104
6.4828396e-104
6.4828396e-104
6.4828399e-104
6.4828442e-104
6.4828921e-104
6.4991767e-104
6.4843127e-104
6.4829333e-104
6.4828444e-104
6.48284e-104
6.4828398e-104
6.4828399e-104
6.4828401e-104
6.4828445e-104
6.4828924e-104
6.4991772e-104
6.4843167e-104
6.4829377e-104
6.4828488e-104
6.4828444e-104
6.4828442e-104
6.4828442e-104
6.4828445e-104
6.4828489e-104
6.4828968e-104
6.4991839e-104
6.4843611e-104
6.4829853e-104
6.4828966e-104
6.4828923e-104
6.4828921e-104
6.4828921e-104
6.4828924e-104
6.4828968e-104
6.4829446e-104
2.1270281e-102
2.1223108e-102
2.1218729e-102
2.1218447e-102
2.1218433e-102
2.1218432e-102
2.1218432e-102
2.1218432e-102
2.1218434e-102
2.1218455e-102
2.1223108e-102
2.1176061e-102
2.1171694e-102
2.1171413e-102
2.1171399e-102
2.1171398e-102
2.1171398e-102
2.1171399e-102
2.1171412e-102
2.1171554e-102
2.1218729e-102
2.1171694e-102
2.1167329e-102
2.1167047e-102
2.1167033e-102
2.1167033e-102
2.1167033e-102
2.1167034e-102
2.1167048e-102
2.1167201e-102
2.1218447e-102
2.1171413e-102
2.1167047e-102
2.1166766e-102
2.1166752e-102
2.1166751e-102
2.1166751e-102
2.1166752e-102
2.1166766e-102
2.116692e-102
2.1218433e-102
2.1171399e-102
2.1167033e-102
2.1166752e-102
2.1166738e-102
2.1166738e-102
2.1166738e-102
2.1166738e-102
2.1166753e-102
2.1166906e-102
2.1218432e-102
2.1171398e-102
2.1167033e-102
2.1166751e-102
2.1166738e-102
2.1166737e-102
2.1166737e-102
2.1166738e-102
2.1166752e-102
2.1166906e-102
2.1218432e-102
2.1171398e-102
2.1167033e-102
2.1166751e-102
2.1166738e-102
2.1166737e-102
2.1166737e-102
2.1166738e-102
2.1166752e-102
2.1166906e-102
2.1218432e-102
2.1171399e-102
2.1167034e-102
2.1166752e-102
2.1166738e-102
2.1166738e-102
2.1166738e-102
2.1166739e-102
2.1166753e-102
2.1166907e-102
2.1218434e-102
2.1171412e-102
2.1167048e-102
2.1166766e-102
2.1166753e-102
2.1166752e-102
2.1166752e-102
2.1166753e-102
2.1166767e-102
2.1166921e-102
2.1218455e-102
2.1171554e-102
2.1167201e-102
2.116692e-102
2.1166906e-102
2.1166906e-102
2.1166906e-102
2.1166907e-102
2.1166921e-102
2.1167074e-102
7.1484502e-101
7.1330934e-101
7.1316679e-101
7.1315759e-101
7.1315714e-101
7.1315713e-101
7.1315712e-101
7.1315713e-101
7.1315719e-101
7.1315787e-101
7.1330934e-101
7.1177769e-101
7.116355e-101
7.1162633e-101
7.1162588e-101
7.1162587e-101
7.1162587e-101
7.1162589e-101
7.1162631e-101
7.1163102e-101
7.1316679e-101
7.116355e-101
7.1149336e-101
7.1148419e-101
7.1148374e-101
7.1148372e-101
7.1148372e-101
7.1148375e-101
7.1148422e-101
7.1148927e-101
7.1315759e-101
7.1162633e-101
7.1148419e-101
7.1147502e-101
7.1147457e-101
7.1147456e-101
7.1147456e-101
7.1147459e-101
7.1147506e-101
7.1148013e-101
7.1315714e-101
7.1162588e-101
7.1148374e-101
7.1147457e-101
7.1147412e-101
7.1147411e-101
7.1147411e-101
7.1147414e-101
7.114746e-101
7.1147968e-101
7.1315713e-101
7.1162587e-101
7.1148372e-101
7.1147456e-101
7.1147411e-101
7.1147409e-101
7.1147409e-101
7.1147412e-101
7.1147459e-101
7.1147966e-101
7.1315712e-101
7.1162587e-101
7.1148372e-101
7.1147456e-101
7.1147411e-101
7.1147409e-101
7.1147409e-101
7.1147412e-101
7.1147459e-101
7.1147966e-101
7.1315713e-101
7.1162589e-101
7.1148375e-101
7.1147459e-101
7.1147414e-101
7.1147412e-101
7.1147412e-101
7.1147415e-101
7.1147462e-101
7.114797e-101
7.1315719e-101
7.1162631e-101
7.1148422e-101
7.1147506e-101
7.114746e-101
7.1147459e-101
7.1147459e-101
7.1147462e-101
7.1147509e-101
7.1148016e-101
7.1315787e-101
7.1163102e-101
7.1148927e-101
7.1148013e-101
7.1147968e-101
7.1147966e-101
7.1147966e-101
7.114797e-101
7.1148016e-101
7.1148524e-101
2.4726833e-99
2.4675409e-99
2.4670635e-99
2.4670327e-99
2.4670312e-99
2.4670311e-99
2.4670311e-99
2.4670311e-99
2.4670314e-99
2.4670336e-99
2.4675409e-99
2.4624117e-99
2.4619354e-99
2.4619047e-99
2.4619032e-99
2.4619032e-99
2.4619032e-99
2.4619033e-99
2.4619047e-99
2.4619207e-99
2.4670635e-99
2.4619354e-99
2.4614594e-99
2.4614287e-99
2.4614271e-99
2.4614271e-99
2.4614271e-99
2.4614272e-99
2.4614288e-99
2.461446e-99
2.4670327e-99
2.4619047e-99
2.4614287e-99
2.461398e-99
2.4613965e-99
2.4613964e-99
2.4613964e-99
2.4613965e-99
2.4613981e-99
2.4614154e-99
2.4670312e-99
2.4619032e-99
2.4614271e-99
2.4613965e-99
2.4613949e-99
2.4613949e-99
2.4613949e-99
2.461395e-99
2.4613966e-99
2.4614138e-99
2.4670311e-99
2.4619032e-99
2.4614271e-99
2.4613964e-99
2.4613949e-99
2.4613948e-99
2.4613948e-99
2.4613949e-99
2.4613965e-99
2.4614138e-99
2.4670311e-99
2.4619032e-99
2.4614271e-99
2.4613964e-99
2.4613949e-99
2.4613948e-99
2.4613948e-99
2.4613949e-99
2.4613965e-99
2.4614138e-99
2.4670311e-99
2.4619033e-99
2.4614272e-99
2.4613965e-99
2.461395e-99
2.4613949e-99
2.4613949e-99
2.461395e-99
2.4613966e-99
2.4614139e-99
2.4670314e-99
2.4619047e-99
2.4614288e-99
2.4613981e-99
2.4613966e-99
2.4613965e-99
2.4613965e-99
2.4613966e-99
2.4613982e-99
2.4614155e-99
2.4670336e-99
2.4619207e-99
2.461446e-99
2.4614154e-99
2.4614138e-99
2.4614138e-99
2.4614138e-99
2.4614139e-99
2.4614155e-99
2.4614328e-99
8.8011308e-98
8.7834226e-98
8.7817783e-98
8.7816723e-98
8.7816671e-98
8.7816669e-98
8.7816669e-98
8.781667e-98
8.7816677e-98
8.7816754e-98
8.7834226e-98
8.7657584e-98
8.7641182e-98
8.7640125e-98
8.7640073e-98
8.7640071e-98
8.7640071e-98
8.7640074e-98
8.7640124e-98
8.7640684e-98
8.7817783e-98
8.7641182e-98
8.7624785e-98
8.7623728e-98
8.7623676e-98
8.7623674e-98
8.7623674e-98
8.7623677e-98
8.7623733e-98
8.7624334e-98
8.7816723e-98
8.7640125e-98
8.7623728e-98
8.762267e-98
8.7622618e-98
8.7622616e-98
8.7622616e-98
8.762262e-98
8.7622676e-98
8.762328e-98
8.7816671e-98
8.7640073e-98
8.7623676e-98
8.7622618e-98
8.7622566e-98
8.7622564e-98
8.7622564e-98
8.7622568e-98
8.7622624e-98
8.7623228e-98
8.7816669e-98
8.7640071e-98
8.7623674e-98
8.7622616e-98
8.7622564e-98
8.7622562e-98
8.7622562e-98
8.7622566e-98
8.7622622e-98
8.7623226e-98
8.7816669e-98
8.7640071e-98
8.7623674e-98
8.7622616e-98
8.7622564e-98
8.7622562e-98
8.7622563e-98
8.7622566e-98
8.7622622e-98
8.7623226e-98
8.781667e-98
8.7640074e-98
8.7623677e-98
8.762262e-98
8.7622568e-98
8.7622566e-98
8.7622566e-98
8.762257e-98
8.7622626e-98
8.762323e-98
8.7816677e-98
8.7640124e-98
8.7623733e-98
8.7622676e-98
8.7622624e-98
8.7622622e-98
8.7622622e-98
8.7622626e-98
8.7622681e-98
8.7623286e-98
8.7816754e-98
8.7640684e-98
8.7624334e-98
8.762328e-98
8.7623228e-98
8.7623226e-98
8.7623226e-98
8.762323e-98
8.7623286e-98
8.762389e-98
3.2226421e-96
3.2163729e-96
3.2157907e-96
3.2157532e-96
3.2157514e-96
3.2157513e-96
3.2157513e-96
3.2157513e-96
3.2157516e-96
3.2157543e-96
3.2163729e-96
3.2101189e-96
3.2095381e-96
3.2095007e-96
3.2094988e-96
3.2094988e-96
3.2094988e-96
3.2094989e-96
3.2095007e-96
3.2095208e-96
3.2157907e-96
3.2095381e-96
3.2089575e-96
3.2089201e-96
3.2089182e-96
3.2089182e-96
3.2089182e-96
3.2089183e-96
3.2089203e-96
3.2089419e-96
3.2157532e-96
3.2095007e-96
3.2089201e-96
3.2088826e-96
3.2088808e-96
3.2088807e-96
3.2088807e-96
3.2088809e-96
3.2088829e-96
3.2089046e-96
3.2157514e-96
3.2094988e-96
3.2089182e-96
3.2088808e-96
3.208879e-96
3.2088789e-96
3.2088789e-96
3.208879e-96
3.208881e-96
3.2089028e-96
3.2157513e-96
3.2094988e-96
3.2089182e-96
3.2088807e-96
3.2088789e-96
3.2088788e-96
3.2088788e-96
3.2088789e-96
3.208881e-96
3.2089027e-96
3.2157513e-96
3.2094988e-96
3.2089182e-96
3.2088807e-96
3.2088789e-96
3.2088788e-96
3.2088788e-96
3.208879e-96
3.208881e-96
3.2089027e-96
3.2157513e-96
3.2094989e-96
3.2089183e-96
3.2088809e-96
3.208879e-96
3.2088789e-96
3.208879e-96
3.2088791e-96
3.2088811e-96
3.2089028e-96
3.2157516e-96
3.2095007e-96
3.2089203e-96
3.2088829e-96
3.208881e-96
3.208881e-96
3.208881e-96
3.2088811e-96
3.2088831e-96
3.2089049e-96
3.2157543e-96
3.2095208e-96
3.2089419e-96
3.2089046e-96
3.2089028e-96
3.2089027e-96
3.2089027e-96
3.2089028e-96
3.2089049e-96
3.2089266e-96
1.2135959e-94
1.2113148e-94
1.211103e-94
1.2110893e-94
1.2110886e-94
1.2110886e-94
1.2110886e-94
1.2110886e-94
1.2110887e-94
1.2110897e-94
1.2113148e-94
1.2090391e-94
1.2088277e-94
1.2088141e-94
1.2088134e-94
1.2088134e-94
1.2088134e-94
1.2088134e-94
1.2088141e-94
1.2088216e-94
1.211103e-94
1.2088277e-94
1.2086164e-94
1.2086028e-94
1.2086021e-94
1.2086021e-94
1.2086021e-94
1.2086021e-94
1.2086029e-94
1.2086109e-94
1.2110893e-94
1.2088141e-94
1.2086028e-94
1.2085892e-94
1.2085885e-94
1.2085885e-94
1.2085885e-94
1.2085885e-94
1.2085893e-94
1.2085973e-94
1.2110886e-94
1.2088134e-94
1.2086021e-94
1.2085885e-94
1.2085878e-94
1.2085878e-94
1.2085878e-94
1.2085878e-94
1.2085886e-94
1.2085966e-94
1.2110886e-94
1.2088134e-94
1.2086021e-94
1.2085885e-94
1.2085878e-94
1.2085878e-94
1.2085878e-94
1.2085878e-94
1.2085886e-94
1.2085966e-94
1.2110886e-94
1.2088134e-94
1.2086021e-94
1.2085885e-94
1.2085878e-94
1.2085878e-94
1.2085878e-94
1.2085878e-94
1.2085886e-94
1.2085966e-94
1.2110886e-94
1.2088134e-94
1.2086021e-94
1.2085885e-94
1.2085878e-94
1.2085878e-94
1.2085878e-94
1.2085879e-94
1.2085886e-94
1.2085967e-94
1.2110887e-94
1.2088141e-94
1.2086029e-94
1.2085893e-94
1.2085886e-94
1.2085886e-94
1.2085886e-94
1.2085886e-94
1.2085894e-94
1.2085974e-94
1.2110897e-94
1.2088216e-94
1.2086109e-94
1.2085973e-94
1.2085966e-94
1.2085966e-94
1.2085966e-94
1.2085967e-94
1.2085974e-94
1.2086055e-94
4.6989819e-93
4.6904537e-93
4.6896616e-93
4.6896105e-93
4.689608e-93
4.6896079e-93
4.6896079e-93
4.6896079e-93
4.6896083e-93
4.689612e-93
4.6904537e-93
4.681945e-93
4.6811547e-93
4.6811038e-93
4.6811013e-93
4.6811012e-93
4.6811012e-93
4.6811013e-93
4.6811039e-93
4.6811323e-93
4.6896616e-93
4.6811547e-93
4.6803646e-93
4.6803137e-93
4.6803112e-93
4.6803111e-93
4.6803111e-93
4.6803113e-93
4.6803141e-93
4.6803446e-93
4.6896105e-93
4.6811038e-93
4.6803137e-93
4.6802627e-93
4.6802602e-93
4.6802601e-93
4.6802601e-93
4.6802603e-93
4.6802632e-93
4.6802938e-93
4.689608e-93
4.6811013e-93
4.6803112e-93
4.6802602e-93
4.6802577e-93
4.6802576e-93
4.6802576e-93
4.6802578e-93
4.6802607e-93
4.6802913e-93
4.6896079e-93
4.6811012e-93
4.6803111e-93
4.6802601e-93
4.6802576e-93
4.6802575e-93
4.6802575e-93
4.6802577e-93
4.6802606e-93
4.6802912e-93
4.6896079e-93
4.6811012e-93
4.6803111e-93
4.6802601e-93
4.6802576e-93
4.6802575e-93
4.6802575e-93
4.6802577e-93
4.6802606e-93
4.6802912e-93
4.6896079e-93
4.6811013e-93
4.6803113e-93
4.6802603e-93
4.6802578e-93
4.6802577e-93
4.6802577e-93
4.6802579e-93
4.6802608e-93
4.6802914e-93
4.6896083e-93
4.6811039e-93
4.6803141e-93
4.6802632e-93
4.6802607e-93
4.6802606e-93
4.6802606e-93
4.6802608e-93
4.6802636e-93
4.6802942e-93
4.689612e-93
4.6811323e-93
4.6803446e-93
4.6802938e-93
4.6802913e-93
4.6802912e-93
4.6802912e-93
4.6802914e-93
4.6802942e-93
4.6803249e-93
1.8701409e-91
1.866866e-91
1.8665618e-91
1.8665422e-91
1.8665413e-91
1.8665412e-91
1.8665412e-91
1.8665412e-91
1.8665414e-91
1.8665428e-91
1.866866e-91
1.8635984e-91
1.8632949e-91
1.8632753e-91
1.8632744e-91
1.8632743e-91
1.8632743e-91
1.8632744e-91
1.8632754e-91
1.8632865e-91
1.8665618e-91
1.8632949e-91
1.8629914e-91
1.8629719e-91
1.8629709e-91
1.8629709e-91
1.8629709e-91
1.8629709e-91
1.8629721e-91
1.862984e-91
1.8665422e-91
1.8632753e-91
1.8629719e-91
1.8629523e-91
1.8629514e-91
1.8629513e-91
1.8629513e-91
1.8629514e-91
1.8629525e-91
1.8629645e-91
1.8665413e-91
1.8632744e-91
1.8629709e-91
1.8629514e-91
1.8629504e-91
1.8629504e-91
1.8629504e-91
1.8629504e-91
1.8629515e-91
1.8629635e-91
1.8665412e-91
1.8632743e-91
1.8629709e-91
1.8629513e-91
1.8629504e-91
1.8629503e-91
1.8629503e-91
1.8629504e-91
1.8629515e-91
1.8629635e-91
1.8665412e-91
1.8632743e-91
1.8629709e-91
1.8629513e-91
1.8629504e-91
1.8629503e-91
1.8629503e-91
1.8629504e-91
1.8629515e-91
1.8629635e-91
1.8665412e-91
1.8632744e-91
1.8629709e-91
1.8629514e-91
1.8629504e-91
1.8629504e-91
1.8629504e-91
1.8629505e-91
1.8629516e-91
1.8629636e-91
1.8665414e-91
1.8632754e-91
1.8629721e-91
1.8629525e-91
1.8629515e-91
1.8629515e-91
1.8629515e-91
1.8629516e-91
1.8629527e-91
1.8629647e-91
1.8665428e-91
1.8632865e-91
1.862984e-91
1.8629645e-91
1.8629635e-91
1.8629635e-91
1.8629635e-91
1.8629636e-91
1.8629647e-91
1.8629766e-91
7.6480897e-90
7.6351767e-90
7.6339771e-90
7.6338997e-90
7.6338959e-90
7.6338958e-90
7.6338958e-90
7.6338958e-90
7.6338964e-90
7.6339021e-90
7.6351767e-90
7.6222916e-90
7.6210946e-90
7.6210174e-90
7.6210136e-90
7.6210135e-90
7.6210135e-90
7.6210138e-90
7.6210178e-90
7.6210623e-90
7.6339771e-90
7.6210946e-90
7.6198979e-90
7.6198207e-90
7.6198169e-90
7.6198168e-90
7.6198168e-90
7.6198171e-90
7.6198215e-90
7.6198694e-90
7.6338997e-90
7.6210174e-90
7.6198207e-90
7.6197436e-90
7.6197398e-90
7.6197396e-90
7.6197396e-90
7.6197399e-90
7.6197444e-90
7.6197925e-90
7.6338959e-90
7.6210136e-90
7.6198169e-90
7.6197398e-90
7.619736e-90
7.6197359e-90
7.6197359e-90
7.6197362e-90
7.6197406e-90
7.6197887e-90
7.6338958e-90
7.6210135e-90
7.6198168e-90
7.6197396e-90
7.6197359e-90
7.6197357e-90
7.6197357e-90
7.619736e-90
7.6197405e-90
7.6197886e-90
7.6338958e-90
7.6210135e-90
7.6198168e-90
7.6197396e-90
7.6197359e-90
7.6197357e-90
7.6197357e-90
7.619736e-90
7.6197405e-90
7.6197886e-90
7.6338958e-90
7.6210138e-90
7.6198171e-90
7.6197399e-90
7.6197362e-90
7.619736e-90
7.619736e-90
7.6197363e-90
7.6197408e-90
7.6197889e-90
7.6338964e-90
7.6210178e-90
7.6198215e-90
7.6197444e-90
7.6197406e-90
7.6197405e-90
7.6197405e-90
7.6197408e-90
7.6197452e-90
7.6197934e-90
7.6339021e-90
7.6210623e-90
7.6198694e-90
7.6197925e-90
7.6197887e-90
7.6197886e-90
7.6197886e-90
7.6197889e-90
7.6197934e-90
7.6198415e-90
3.2129237e-88
3.2076974e-88