/*--------------------------------*- C++ -*----------------------------------*\
| =========                 |                                                 |
| \\      /  F ield         | OpenFOAM: The Open Source CFD Toolbox           |
|  \\    /   O peration     | Version:  dev                                   |
|   \\  /    A nd           | Web:      www.OpenFOAM.org                      |
|    \\/     M anipulation  |                                                 |
\*---------------------------------------------------------------------------*/
FoamFile
{
    version     2.0;
    format      ascii;
    class       volScalarField;
    location    "2";
    object      A_0;
}
// * * * * * * * * * * * * * * * * * * * * * * * * * * * * * * * * * * * * * //

dimensions      [0 0 0 0 1 0 0];

internalField   nonuniform List<scalar> 
10000
(
1.9775918e-118
1.9715633e-118
1.9710065e-118
1.9709706e-118
1.9709689e-118
1.9709688e-118
1.9709688e-118
1.9709688e-118
1.970969e-118
1.970972e-118
1.9715633e-118
1.9655559e-118
1.965001e-118
1.9649653e-118
1.9649636e-118
1.9649635e-118
1.9649635e-118
1.9649636e-118
1.964965e-118
1.9649808e-118
1.9710065e-118
1.965001e-118
1.9644464e-118
1.9644107e-118
1.9644089e-118
1.9644088e-118
1.9644088e-118
1.9644089e-118
1.9644105e-118
1.9644274e-118
1.9709706e-118
1.9649653e-118
1.9644107e-118
1.964375e-118
1.9643732e-118
1.9643731e-118
1.9643731e-118
1.9643732e-118
1.9643748e-118
1.9643918e-118
1.9709689e-118
1.9649636e-118
1.9644089e-118
1.9643732e-118
1.9643715e-118
1.9643714e-118
1.9643714e-118
1.9643715e-118
1.964373e-118
1.96439e-118
1.9709688e-118
1.9649635e-118
1.9644088e-118
1.9643731e-118
1.9643714e-118
1.9643713e-118
1.9643713e-118
1.9643714e-118
1.9643729e-118
1.9643899e-118
1.9709688e-118
1.9649635e-118
1.9644088e-118
1.9643731e-118
1.9643714e-118
1.9643713e-118
1.9643713e-118
1.9643714e-118
1.9643729e-118
1.9643899e-118
1.9709688e-118
1.9649636e-118
1.9644089e-118
1.9643732e-118
1.9643715e-118
1.9643714e-118
1.9643714e-118
1.9643715e-118
1.964373e-118
1.96439e-118
1.970969e-118
1.964965e-118
1.9644105e-118
1.9643748e-118
1.964373e-118
1.9643729e-118
1.9643729e-118
1.964373e-118
1.9643746e-118
1.9643916e-118
1.970972e-118
1.9649808e-118
1.9644274e-118
1.9643918e-118
1.96439e-118
1.9643899e-118
1.9643899e-118
1.96439e-118
1.9643916e-118
1.9644086e-118
4.9932644e-117
4.9784317e-117
4.9770605e-117
4.9769722e-117
4.9769679e-117
4.9769677e-117
4.9769677e-117
4.9769678e-117
4.9769683e-117
4.9769758e-117
4.9784317e-117
4.9636498e-117
4.9622833e-117
4.9621953e-117
4.962191e-117
4.9621909e-117
4.9621909e-117
4.9621911e-117
4.9621945e-117
4.9622342e-117
4.9770605e-117
4.9622833e-117
4.9609173e-117
4.9608294e-117
4.960825e-117
4.9608249e-117
4.9608249e-117
4.9608251e-117
4.9608289e-117
4.9608713e-117
4.9769722e-117
4.9621953e-117
4.9608294e-117
4.9607414e-117
4.9607371e-117
4.960737e-117
4.960737e-117
4.9607372e-117
4.960741e-117
4.9607836e-117
4.9769679e-117
4.962191e-117
4.960825e-117
4.9607371e-117
4.9607328e-117
4.9607326e-117
4.9607326e-117
4.9607329e-117
4.9607367e-117
4.9607793e-117
4.9769677e-117
4.9621909e-117
4.9608249e-117
4.960737e-117
4.9607326e-117
4.9607325e-117
4.9607325e-117
4.9607327e-117
4.9607365e-117
4.9607791e-117
4.9769677e-117
4.9621909e-117
4.9608249e-117
4.960737e-117
4.9607326e-117
4.9607325e-117
4.9607325e-117
4.9607327e-117
4.9607365e-117
4.9607791e-117
4.9769678e-117
4.9621911e-117
4.9608251e-117
4.9607372e-117
4.9607329e-117
4.9607327e-117
4.9607327e-117
4.960733e-117
4.9607368e-117
4.9607794e-117
4.9769683e-117
4.9621945e-117
4.9608289e-117
4.960741e-117
4.9607367e-117
4.9607365e-117
4.9607365e-117
4.9607368e-117
4.9607406e-117
4.9607832e-117
4.9769758e-117
4.9622342e-117
4.9608713e-117
4.9607836e-117
4.9607793e-117
4.9607791e-117
4.9607791e-117
4.9607794e-117
4.9607832e-117
4.9608258e-117
1.2472028e-115
1.2435959e-115
1.2432624e-115
1.2432409e-115
1.2432399e-115
1.2432398e-115
1.2432398e-115
1.2432398e-115
1.24324e-115
1.2432418e-115
1.2435959e-115
1.2400011e-115
1.2396687e-115
1.2396473e-115
1.2396462e-115
1.2396462e-115
1.2396462e-115
1.2396463e-115
1.2396471e-115
1.2396568e-115
1.2432624e-115
1.2396687e-115
1.2393364e-115
1.239315e-115
1.239314e-115
1.2393139e-115
1.2393139e-115
1.239314e-115
1.2393149e-115
1.2393253e-115
1.2432409e-115
1.2396473e-115
1.239315e-115
1.2392936e-115
1.2392926e-115
1.2392925e-115
1.2392925e-115
1.2392926e-115
1.2392935e-115
1.239304e-115
1.2432399e-115
1.2396462e-115
1.239314e-115
1.2392926e-115
1.2392915e-115
1.2392915e-115
1.2392915e-115
1.2392916e-115
1.2392925e-115
1.239303e-115
1.2432398e-115
1.2396462e-115
1.2393139e-115
1.2392925e-115
1.2392915e-115
1.2392915e-115
1.2392915e-115
1.2392915e-115
1.2392925e-115
1.2393029e-115
1.2432398e-115
1.2396462e-115
1.2393139e-115
1.2392925e-115
1.2392915e-115
1.2392915e-115
1.2392915e-115
1.2392915e-115
1.2392925e-115
1.2393029e-115
1.2432398e-115
1.2396463e-115
1.239314e-115
1.2392926e-115
1.2392916e-115
1.2392915e-115
1.2392915e-115
1.2392916e-115
1.2392925e-115
1.239303e-115
1.24324e-115
1.2396471e-115
1.2393149e-115
1.2392935e-115
1.2392925e-115
1.2392925e-115
1.2392925e-115
1.2392925e-115
1.2392935e-115
1.2393039e-115
1.2432418e-115
1.2396568e-115
1.2393253e-115
1.239304e-115
1.239303e-115
1.2393029e-115
1.2393029e-115
1.239303e-115
1.2393039e-115
1.2393144e-115
3.2119922e-114
3.2029528e-114
3.2021169e-114
3.2020631e-114
3.2020604e-114
3.2020603e-114
3.2020603e-114
3.2020603e-114
3.2020607e-114
3.2020651e-114
3.2029528e-114
3.1939431e-114
3.1931098e-114
3.1930562e-114
3.1930535e-114
3.1930534e-114
3.1930534e-114
3.1930536e-114
3.1930557e-114
3.1930804e-114
3.2021169e-114
3.1931098e-114
3.1922768e-114
3.1922232e-114
3.1922206e-114
3.1922205e-114
3.1922205e-114
3.1922206e-114
3.192223e-114
3.1922494e-114
3.2020631e-114
3.1930562e-114
3.1922232e-114
3.1921696e-114
3.192167e-114
3.1921669e-114
3.1921669e-114
3.192167e-114
3.1921694e-114
3.1921959e-114
3.2020604e-114
3.1930535e-114
3.1922206e-114
3.192167e-114
3.1921643e-114
3.1921642e-114
3.1921642e-114
3.1921644e-114
3.1921668e-114
3.1921933e-114
3.2020603e-114
3.1930534e-114
3.1922205e-114
3.1921669e-114
3.1921642e-114
3.1921641e-114
3.1921641e-114
3.1921643e-114
3.1921667e-114
3.1921932e-114
3.2020603e-114
3.1930534e-114
3.1922205e-114
3.1921669e-114
3.1921642e-114
3.1921641e-114
3.1921641e-114
3.1921643e-114
3.1921667e-114
3.1921932e-114
3.2020603e-114
3.1930536e-114
3.1922206e-114
3.192167e-114
3.1921644e-114
3.1921643e-114
3.1921643e-114
3.1921645e-114
3.1921668e-114
3.1921933e-114
3.2020607e-114
3.1930557e-114
3.192223e-114
3.1921694e-114
3.1921668e-114
3.1921667e-114
3.1921667e-114
3.1921668e-114
3.1921692e-114
3.1921957e-114
3.2020651e-114
3.1930804e-114
3.1922494e-114
3.1921959e-114
3.1921933e-114
3.1921932e-114
3.1921932e-114
3.1921933e-114
3.1921957e-114
3.1922222e-114
8.5283505e-113
8.5050052e-113
8.5028457e-113
8.5027067e-113
8.5026999e-113
8.5026997e-113
8.5026996e-113
8.5026997e-113
8.5027006e-113
8.5027118e-113
8.5050052e-113
8.4817345e-113
8.4795819e-113
8.4794434e-113
8.4794366e-113
8.4794363e-113
8.4794363e-113
8.4794367e-113
8.4794423e-113
8.4795066e-113
8.5028457e-113
8.4795819e-113
8.47743e-113
8.4772915e-113
8.4772848e-113
8.4772845e-113
8.4772845e-113
8.4772849e-113
8.4772911e-113
8.47736e-113
8.5027067e-113
8.4794434e-113
8.4772915e-113
8.4771531e-113
8.4771463e-113
8.477146e-113
8.477146e-113
8.4771464e-113
8.4771527e-113
8.4772218e-113
8.5026999e-113
8.4794366e-113
8.4772848e-113
8.4771463e-113
8.4771395e-113
8.4771392e-113
8.4771392e-113
8.4771396e-113
8.4771459e-113
8.477215e-113
8.5026997e-113
8.4794363e-113
8.4772845e-113
8.477146e-113
8.4771392e-113
8.4771389e-113
8.4771389e-113
8.4771394e-113
8.4771456e-113
8.4772148e-113
8.5026996e-113
8.4794363e-113
8.4772845e-113
8.477146e-113
8.4771392e-113
8.4771389e-113
8.477139e-113
8.4771394e-113
8.4771456e-113
8.4772148e-113
8.5026997e-113
8.4794367e-113
8.4772849e-113
8.4771464e-113
8.4771396e-113
8.4771394e-113
8.4771394e-113
8.4771398e-113
8.477146e-113
8.4772152e-113
8.5027006e-113
8.4794423e-113
8.4772911e-113
8.4771527e-113
8.4771459e-113
8.4771456e-113
8.4771456e-113
8.477146e-113
8.4771523e-113
8.4772214e-113
8.5027118e-113
8.4795066e-113
8.47736e-113
8.4772218e-113
8.477215e-113
8.4772148e-113
8.4772148e-113
8.4772152e-113
8.4772214e-113
8.4772906e-113
2.3342337e-111
2.3280215e-111
2.3274468e-111
2.3274098e-111
2.327408e-111
2.3274079e-111
2.3274079e-111
2.3274079e-111
2.3274081e-111
2.3274111e-111
2.3280215e-111
2.3218287e-111
2.3212557e-111
2.3212188e-111
2.321217e-111
2.321217e-111
2.321217e-111
2.3212171e-111
2.3212186e-111
2.3212359e-111
2.3274468e-111
2.3212557e-111
2.3206829e-111
2.3206461e-111
2.3206443e-111
2.3206442e-111
2.3206442e-111
2.3206443e-111
2.320646e-111
2.3206645e-111
2.3274098e-111
2.3212188e-111
2.3206461e-111
2.3206092e-111
2.3206074e-111
2.3206073e-111
2.3206073e-111
2.3206074e-111
2.3206091e-111
2.3206278e-111
2.327408e-111
2.321217e-111
2.3206443e-111
2.3206074e-111
2.3206056e-111
2.3206055e-111
2.3206055e-111
2.3206056e-111
2.3206073e-111
2.3206259e-111
2.3274079e-111
2.321217e-111
2.3206442e-111
2.3206073e-111
2.3206055e-111
2.3206055e-111
2.3206055e-111
2.3206056e-111
2.3206073e-111
2.3206259e-111
2.3274079e-111
2.321217e-111
2.3206442e-111
2.3206073e-111
2.3206055e-111
2.3206055e-111
2.3206055e-111
2.3206056e-111
2.3206073e-111
2.3206259e-111
2.3274079e-111
2.3212171e-111
2.3206443e-111
2.3206074e-111
2.3206056e-111
2.3206056e-111
2.3206056e-111
2.3206057e-111
2.3206074e-111
2.320626e-111
2.3274081e-111
2.3212186e-111
2.320646e-111
2.3206091e-111
2.3206073e-111
2.3206073e-111
2.3206073e-111
2.3206074e-111
2.3206091e-111
2.3206277e-111
2.3274111e-111
2.3212359e-111
2.3206645e-111
2.3206278e-111
2.3206259e-111
2.3206259e-111
2.3206259e-111
2.320626e-111
2.3206277e-111
2.3206463e-111
6.5848207e-110
6.5677909e-110
6.5662151e-110
6.5661137e-110
6.5661087e-110
6.5661085e-110
6.5661085e-110
6.5661086e-110
6.5661092e-110
6.5661171e-110
6.5677909e-110
6.5508131e-110
6.5492421e-110
6.549141e-110
6.549136e-110
6.5491358e-110
6.5491358e-110
6.5491361e-110
6.5491403e-110
6.5491883e-110
6.5662151e-110
6.5492421e-110
6.5476715e-110
6.5475705e-110
6.5475655e-110
6.5475653e-110
6.5475653e-110
6.5475656e-110
6.5475703e-110
6.5476217e-110
6.5661137e-110
6.549141e-110
6.5475705e-110
6.5474694e-110
6.5474644e-110
6.5474642e-110
6.5474643e-110
6.5474646e-110
6.5474692e-110
6.5475209e-110
6.5661087e-110
6.549136e-110
6.5475655e-110
6.5474644e-110
6.5474595e-110
6.5474593e-110
6.5474593e-110
6.5474596e-110
6.5474643e-110
6.547516e-110
6.5661085e-110
6.5491358e-110
6.5475653e-110
6.5474642e-110
6.5474593e-110
6.5474591e-110
6.5474591e-110
6.5474594e-110
6.5474641e-110
6.5475158e-110
6.5661085e-110
6.5491358e-110
6.5475653e-110
6.5474643e-110
6.5474593e-110
6.5474591e-110
6.5474591e-110
6.5474594e-110
6.5474641e-110
6.5475158e-110
6.5661086e-110
6.5491361e-110
6.5475656e-110
6.5474646e-110
6.5474596e-110
6.5474594e-110
6.5474594e-110
6.5474597e-110
6.5474644e-110
6.5475161e-110
6.5661092e-110
6.5491403e-110
6.5475703e-110
6.5474692e-110
6.5474643e-110
6.5474641e-110
6.5474641e-110
6.5474644e-110
6.5474691e-110
6.5475208e-110
6.5661171e-110
6.5491883e-110
6.5476217e-110
6.5475209e-110
6.547516e-110
6.5475158e-110
6.5475158e-110
6.5475161e-110
6.5475208e-110
6.5475724e-110
1.9142178e-108
1.9094094e-108
1.9089644e-108
1.9089358e-108
1.9089344e-108
1.9089343e-108
1.9089343e-108
1.9089343e-108
1.9089345e-108
1.9089367e-108
1.9094094e-108
1.9046153e-108
1.9041716e-108
1.9041431e-108
1.9041417e-108
1.9041416e-108
1.9041416e-108
1.9041417e-108
1.9041429e-108
1.9041566e-108
1.9089644e-108
1.9041716e-108
1.9037281e-108
1.9036995e-108
1.9036981e-108
1.9036981e-108
1.9036981e-108
1.9036982e-108
1.9036995e-108
1.9037142e-108
1.9089358e-108
1.9041431e-108
1.9036995e-108
1.903671e-108
1.9036696e-108
1.9036695e-108
1.9036695e-108
1.9036696e-108
1.903671e-108
1.9036857e-108
1.9089344e-108
1.9041417e-108
1.9036981e-108
1.9036696e-108
1.9036682e-108
1.9036681e-108
1.9036681e-108
1.9036682e-108
1.9036696e-108
1.9036843e-108
1.9089343e-108
1.9041416e-108
1.9036981e-108
1.9036695e-108
1.9036681e-108
1.9036681e-108
1.9036681e-108
1.9036682e-108
1.9036695e-108
1.9036843e-108
1.9089343e-108
1.9041416e-108
1.9036981e-108
1.9036695e-108
1.9036681e-108
1.9036681e-108
1.9036681e-108
1.9036682e-108
1.9036695e-108
1.9036843e-108
1.9089343e-108
1.9041417e-108
1.9036982e-108
1.9036696e-108
1.9036682e-108
1.9036682e-108
1.9036682e-108
1.9036683e-108
1.9036696e-108
1.9036844e-108
1.9089345e-108
1.9041429e-108
1.9036995e-108
1.903671e-108
1.9036696e-108
1.9036695e-108
1.9036695e-108
1.9036696e-108
1.903671e-108
1.9036857e-108
1.9089367e-108
1.9041566e-108
1.9037142e-108
1.9036857e-108
1.9036843e-108
1.9036843e-108
1.9036843e-108
1.9036844e-108
1.9036857e-108
1.9037005e-108
5.7333683e-107
5.7193872e-107
5.718093e-107
5.7180097e-107
5.7180056e-107
5.7180055e-107
5.7180055e-107
5.7180055e-107
5.718006e-107
5.7180124e-107
5.7193872e-107
5.7054466e-107
5.7041562e-107
5.7040731e-107
5.7040691e-107
5.7040689e-107
5.7040689e-107
5.7040691e-107
5.7040727e-107
5.7041131e-107
5.718093e-107
5.7041562e-107
5.7028661e-107
5.7027831e-107
5.7027791e-107
5.7027789e-107
5.7027789e-107
5.7027792e-107
5.7027831e-107
5.7028264e-107
5.7180097e-107
5.7040731e-107
5.7027831e-107
5.7027001e-107
5.702696e-107
5.7026959e-107
5.7026959e-107
5.7026961e-107
5.7027001e-107
5.7027436e-107
5.7180056e-107
5.7040691e-107
5.7027791e-107
5.702696e-107
5.702692e-107
5.7026918e-107
5.7026918e-107
5.7026921e-107
5.702696e-107
5.7027396e-107
5.7180055e-107
5.7040689e-107
5.7027789e-107
5.7026959e-107
5.7026918e-107
5.7026917e-107
5.7026917e-107
5.7026919e-107
5.7026959e-107
5.7027394e-107
5.7180055e-107
5.7040689e-107
5.7027789e-107
5.7026959e-107
5.7026918e-107
5.7026917e-107
5.7026917e-107
5.7026919e-107
5.7026959e-107
5.7027394e-107
5.7180055e-107
5.7040691e-107
5.7027792e-107
5.7026961e-107
5.7026921e-107
5.7026919e-107
5.7026919e-107
5.7026922e-107
5.7026962e-107
5.7027397e-107
5.718006e-107
5.7040727e-107
5.7027831e-107
5.7027001e-107
5.702696e-107
5.7026959e-107
5.7026959e-107
5.7026962e-107
5.7027001e-107
5.7027436e-107
5.7180124e-107
5.7041131e-107
5.7028264e-107
5.7027436e-107
5.7027396e-107
5.7027394e-107
5.7027394e-107
5.7027397e-107
5.7027436e-107
5.7027872e-107
1.7689616e-105
1.7647761e-105
1.7643886e-105
1.7643636e-105
1.7643624e-105
1.7643624e-105
1.7643624e-105
1.7643624e-105
1.7643625e-105
1.7643644e-105
1.7647761e-105
1.7606024e-105
1.760216e-105
1.7601911e-105
1.7601899e-105
1.7601899e-105
1.7601899e-105
1.7601899e-105
1.760191e-105
1.7602033e-105
1.7643886e-105
1.760216e-105
1.7598297e-105
1.7598049e-105
1.7598036e-105
1.7598036e-105
1.7598036e-105
1.7598037e-105
1.7598049e-105
1.759818e-105
1.7643636e-105
1.7601911e-105
1.7598049e-105
1.75978e-105
1.7597788e-105
1.7597787e-105
1.7597787e-105
1.7597788e-105
1.75978e-105
1.7597932e-105
1.7643624e-105
1.7601899e-105
1.7598036e-105
1.7597788e-105
1.7597776e-105
1.7597775e-105
1.7597775e-105
1.7597776e-105
1.7597788e-105
1.759792e-105
1.7643624e-105
1.7601899e-105
1.7598036e-105
1.7597787e-105
1.7597775e-105
1.7597775e-105
1.7597775e-105
1.7597776e-105
1.7597788e-105
1.759792e-105
1.7643624e-105
1.7601899e-105
1.7598036e-105
1.7597787e-105
1.7597775e-105
1.7597775e-105
1.7597775e-105
1.7597776e-105
1.7597788e-105
1.759792e-105
1.7643624e-105
1.7601899e-105
1.7598037e-105
1.7597788e-105
1.7597776e-105
1.7597776e-105
1.7597776e-105
1.7597776e-105
1.7597788e-105
1.759792e-105
1.7643625e-105
1.760191e-105
1.7598049e-105
1.75978e-105
1.7597788e-105
1.7597788e-105
1.7597788e-105
1.7597788e-105
1.75978e-105
1.7597933e-105
1.7643644e-105
1.7602033e-105
1.759818e-105
1.7597932e-105
1.759792e-105
1.759792e-105
1.759792e-105
1.759792e-105
1.7597933e-105
1.7598065e-105
5.621233e-104
5.6083349e-104
5.6071407e-104
5.6070638e-104
5.6070601e-104
5.6070599e-104
5.6070599e-104
5.60706e-104
5.6070605e-104
5.6070662e-104
5.6083349e-104
5.5954725e-104
5.5942816e-104
5.594205e-104
5.5942012e-104
5.594201e-104
5.5942011e-104
5.5942013e-104
5.5942047e-104
5.594243e-104
5.6071407e-104
5.5942816e-104
5.5930909e-104
5.5930143e-104
5.5930106e-104
5.5930104e-104
5.5930104e-104
5.5930107e-104
5.5930144e-104
5.5930555e-104
5.6070638e-104
5.594205e-104
5.5930143e-104
5.5929377e-104
5.592934e-104
5.5929338e-104
5.5929338e-104
5.5929341e-104
5.5929379e-104
5.5929791e-104
5.6070601e-104
5.5942012e-104
5.5930106e-104
5.592934e-104
5.5929302e-104
5.5929301e-104
5.5929301e-104
5.5929303e-104
5.5929341e-104
5.5929754e-104
5.6070599e-104
5.594201e-104
5.5930104e-104
5.5929338e-104
5.5929301e-104
5.5929299e-104
5.5929299e-104
5.5929302e-104
5.592934e-104
5.5929752e-104
5.6070599e-104
5.5942011e-104
5.5930104e-104
5.5929338e-104
5.5929301e-104
5.5929299e-104
5.5929299e-104
5.5929302e-104
5.592934e-104
5.5929752e-104
5.60706e-104
5.5942013e-104
5.5930107e-104
5.5929341e-104
5.5929303e-104
5.5929302e-104
5.5929302e-104
5.5929304e-104
5.5929342e-104
5.5929755e-104
5.6070605e-104
5.5942047e-104
5.5930144e-104
5.5929379e-104
5.5929341e-104
5.592934e-104
5.592934e-104
5.5929342e-104
5.592938e-104
5.5929793e-104
5.6070662e-104
5.594243e-104
5.5930555e-104
5.5929791e-104
5.5929754e-104
5.5929752e-104
5.5929752e-104
5.5929755e-104
5.5929793e-104
5.5930205e-104
1.8393289e-102
1.8352385e-102
1.8348597e-102
1.8348353e-102
1.8348341e-102
1.8348341e-102
1.8348341e-102
1.8348341e-102
1.8348343e-102
1.8348361e-102
1.8352385e-102
1.8311591e-102
1.8307813e-102
1.830757e-102
1.8307558e-102
1.8307558e-102
1.8307558e-102
1.8307558e-102
1.8307569e-102
1.8307693e-102
1.8348597e-102
1.8307813e-102
1.8304036e-102
1.8303793e-102
1.8303781e-102
1.8303781e-102
1.8303781e-102
1.8303782e-102
1.8303794e-102
1.8303926e-102
1.8348353e-102
1.830757e-102
1.8303793e-102
1.830355e-102
1.8303538e-102
1.8303538e-102
1.8303538e-102
1.8303539e-102
1.8303551e-102
1.8303684e-102
1.8348341e-102
1.8307558e-102
1.8303781e-102
1.8303538e-102
1.8303527e-102
1.8303526e-102
1.8303526e-102
1.8303527e-102
1.8303539e-102
1.8303672e-102
1.8348341e-102
1.8307558e-102
1.8303781e-102
1.8303538e-102
1.8303526e-102
1.8303526e-102
1.8303526e-102
1.8303526e-102
1.8303539e-102
1.8303671e-102
1.8348341e-102
1.8307558e-102
1.8303781e-102
1.8303538e-102
1.8303526e-102
1.8303526e-102
1.8303526e-102
1.8303526e-102
1.8303539e-102
1.8303671e-102
1.8348341e-102
1.8307558e-102
1.8303782e-102
1.8303539e-102
1.8303527e-102
1.8303526e-102
1.8303526e-102
1.8303527e-102
1.8303539e-102
1.8303672e-102
1.8348343e-102
1.8307569e-102
1.8303794e-102
1.8303551e-102
1.8303539e-102
1.8303539e-102
1.8303539e-102
1.8303539e-102
1.8303552e-102
1.8303684e-102
1.8348361e-102
1.8307693e-102
1.8303926e-102
1.8303684e-102
1.8303672e-102
1.8303671e-102
1.8303671e-102
1.8303672e-102
1.8303684e-102
1.8303817e-102
6.1959394e-101
6.1825923e-101
6.1813561e-101
6.1812766e-101
6.1812727e-101
6.1812726e-101
6.1812726e-101
6.1812726e-101
6.1812731e-101
6.181279e-101
6.1825923e-101
6.1692803e-101
6.1680473e-101
6.167968e-101
6.1679641e-101
6.167964e-101
6.167964e-101
6.1679642e-101
6.1679679e-101
6.1680087e-101
6.1813561e-101
6.1680473e-101
6.1668147e-101
6.1667354e-101
6.1667316e-101
6.1667314e-101
6.1667314e-101
6.1667317e-101
6.1667357e-101
6.1667795e-101
6.1812766e-101
6.167968e-101
6.1667354e-101
6.1666561e-101
6.1666523e-101
6.1666521e-101
6.1666521e-101
6.1666524e-101
6.1666564e-101
6.1667004e-101
6.1812727e-101
6.1679641e-101
6.1667316e-101
6.1666523e-101
6.1666484e-101
6.1666482e-101
6.1666482e-101
6.1666485e-101
6.1666525e-101
6.1666965e-101
6.1812726e-101
6.167964e-101
6.1667314e-101
6.1666521e-101
6.1666482e-101
6.1666481e-101
6.1666481e-101
6.1666483e-101
6.1666524e-101
6.1666964e-101
6.1812726e-101
6.167964e-101
6.1667314e-101
6.1666521e-101
6.1666482e-101
6.1666481e-101
6.1666481e-101
6.1666483e-101
6.1666524e-101
6.1666964e-101
6.1812726e-101
6.1679642e-101
6.1667317e-101
6.1666524e-101
6.1666485e-101
6.1666483e-101
6.1666483e-101
6.1666486e-101
6.1666527e-101
6.1666967e-101
6.1812731e-101
6.1679679e-101
6.1667357e-101
6.1666564e-101
6.1666525e-101
6.1666524e-101
6.1666524e-101
6.1666527e-101
6.1666567e-101
6.1667007e-101
6.181279e-101
6.1680087e-101
6.1667795e-101
6.1667004e-101
6.1666965e-101
6.1666964e-101
6.1666964e-101
6.1666967e-101
6.1667007e-101
6.1667447e-101
2.1482028e-99
2.143723e-99
2.143308e-99
2.1432813e-99
2.14328e-99
2.14328e-99
2.14328e-99
2.14328e-99
2.1432802e-99
2.1432821e-99
2.143723e-99
2.1392546e-99
2.1388407e-99
2.1388141e-99
2.1388128e-99
2.1388127e-99
2.1388127e-99
2.1388128e-99
2.138814e-99
2.1388279e-99
2.143308e-99
2.1388407e-99
2.1384269e-99
2.1384003e-99
2.138399e-99
2.1383989e-99
2.1383989e-99
2.138399e-99
2.1384004e-99
2.1384153e-99
2.1432813e-99
2.1388141e-99
2.1384003e-99
2.1383737e-99
2.1383724e-99
2.1383723e-99
2.1383723e-99
2.1383724e-99
2.1383738e-99
2.1383888e-99
2.14328e-99
2.1388128e-99
2.138399e-99
2.1383724e-99
2.1383711e-99
2.138371e-99
2.138371e-99
2.1383711e-99
2.1383725e-99
2.1383875e-99
2.14328e-99
2.1388127e-99
2.1383989e-99
2.1383723e-99
2.138371e-99
2.138371e-99
2.138371e-99
2.138371e-99
2.1383724e-99
2.1383874e-99
2.14328e-99
2.1388127e-99
2.1383989e-99
2.1383723e-99
2.138371e-99
2.138371e-99
2.138371e-99
2.138371e-99
2.1383724e-99
2.1383874e-99
2.14328e-99
2.1388128e-99
2.138399e-99
2.1383724e-99
2.1383711e-99
2.138371e-99
2.138371e-99
2.1383711e-99
2.1383725e-99
2.1383875e-99
2.1432802e-99
2.138814e-99
2.1384004e-99
2.1383738e-99
2.1383725e-99
2.1383724e-99
2.1383724e-99
2.1383725e-99
2.1383739e-99
2.1383889e-99
2.1432821e-99
2.1388279e-99
2.1384153e-99
2.1383888e-99
2.1383875e-99
2.1383874e-99
2.1383874e-99
2.1383875e-99
2.1383889e-99
2.1384039e-99
7.6640651e-98
7.6486023e-98
7.6471699e-98
7.6470777e-98
7.6470732e-98
7.647073e-98
7.647073e-98
7.6470731e-98
7.6470737e-98
7.6470804e-98
7.6486023e-98
7.633178e-98
7.6317491e-98
7.6316572e-98
7.6316527e-98
7.6316525e-98
7.6316525e-98
7.6316528e-98
7.6316572e-98
7.6317059e-98
7.6471699e-98
7.6317491e-98
7.6303206e-98
7.6302287e-98
7.6302242e-98
7.630224e-98
7.630224e-98
7.6302243e-98
7.6302291e-98
7.6302815e-98
7.6470777e-98
7.6316572e-98
7.6302287e-98
7.6301368e-98
7.6301323e-98
7.6301321e-98
7.6301321e-98
7.6301324e-98
7.6301373e-98
7.6301899e-98
7.6470732e-98
7.6316527e-98
7.6302242e-98
7.6301323e-98
7.6301278e-98
7.6301276e-98
7.6301276e-98
7.6301279e-98
7.6301328e-98
7.6301854e-98
7.647073e-98
7.6316525e-98
7.630224e-98
7.6301321e-98
7.6301276e-98
7.6301274e-98
7.6301274e-98
7.6301278e-98
7.6301326e-98
7.6301852e-98
7.647073e-98
7.6316525e-98
7.630224e-98
7.6301321e-98
7.6301276e-98
7.6301274e-98
7.6301274e-98
7.6301278e-98
7.6301326e-98
7.6301852e-98
7.6470731e-98
7.6316528e-98
7.6302243e-98
7.6301324e-98
7.6301279e-98
7.6301278e-98
7.6301278e-98
7.6301281e-98
7.6301329e-98
7.6301855e-98
7.6470737e-98
7.6316572e-98
7.6302291e-98
7.6301373e-98
7.6301328e-98
7.6301326e-98
7.6301326e-98
7.6301329e-98
7.6301378e-98
7.6301904e-98
7.6470804e-98
7.6317059e-98
7.6302815e-98
7.6301899e-98
7.6301854e-98
7.6301852e-98
7.6301852e-98
7.6301855e-98
7.6301904e-98
7.630243e-98
2.812866e-96
2.8073789e-96
2.8068705e-96
2.8068378e-96
2.8068362e-96
2.8068362e-96
2.8068362e-96
2.8068362e-96
2.8068364e-96
2.8068388e-96
2.8073789e-96
2.8019051e-96
2.801398e-96
2.8013654e-96
2.8013638e-96
2.8013637e-96
2.8013637e-96
2.8013638e-96
2.8013654e-96
2.801383e-96
2.8068705e-96
2.801398e-96
2.800891e-96
2.8008583e-96
2.8008568e-96
2.8008567e-96
2.8008567e-96
2.8008568e-96
2.8008585e-96
2.8008774e-96
2.8068378e-96
2.8013654e-96
2.8008583e-96
2.8008257e-96
2.8008241e-96
2.8008241e-96
2.8008241e-96
2.8008242e-96
2.8008259e-96
2.8008449e-96
2.8068362e-96
2.8013638e-96
2.8008568e-96
2.8008241e-96
2.8008225e-96
2.8008225e-96
2.8008225e-96
2.8008226e-96
2.8008243e-96
2.8008433e-96
2.8068362e-96
2.8013637e-96
2.8008567e-96
2.8008241e-96
2.8008225e-96
2.8008224e-96
2.8008224e-96
2.8008225e-96
2.8008243e-96
2.8008433e-96
2.8068362e-96
2.8013637e-96
2.8008567e-96
2.8008241e-96
2.8008225e-96
2.8008224e-96
2.8008224e-96
2.8008225e-96
2.8008243e-96
2.8008433e-96
2.8068362e-96
2.8013638e-96
2.8008568e-96
2.8008242e-96
2.8008226e-96
2.8008225e-96
2.8008225e-96
2.8008226e-96
2.8008244e-96
2.8008434e-96
2.8068364e-96
2.8013654e-96
2.8008585e-96
2.8008259e-96
2.8008243e-96
2.8008243e-96
2.8008243e-96
2.8008244e-96
2.8008262e-96
2.8008451e-96
2.8068388e-96
2.801383e-96
2.8008774e-96
2.8008449e-96
2.8008433e-96
2.8008433e-96
2.8008433e-96
2.8008434e-96
2.8008451e-96
2.8008641e-96
1.061768e-94
1.0597668e-94
1.0595813e-94
1.0595694e-94
1.0595688e-94
1.0595688e-94
1.0595688e-94
1.0595688e-94
1.0595689e-94
1.0595697e-94
1.0597668e-94
1.0577702e-94
1.0575852e-94
1.0575733e-94
1.0575728e-94
1.0575727e-94
1.0575727e-94
1.0575728e-94
1.0575734e-94
1.0575799e-94
1.0595813e-94
1.0575852e-94
1.0574003e-94
1.0573884e-94
1.0573878e-94
1.0573878e-94
1.0573878e-94
1.0573878e-94
1.0573885e-94
1.0573955e-94
1.0595694e-94
1.0575733e-94
1.0573884e-94
1.0573765e-94
1.0573759e-94
1.0573759e-94
1.0573759e-94
1.0573759e-94
1.0573766e-94
1.0573836e-94
1.0595688e-94
1.0575728e-94
1.0573878e-94
1.0573759e-94
1.0573753e-94
1.0573753e-94
1.0573753e-94
1.0573753e-94
1.057376e-94
1.057383e-94
1.0595688e-94
1.0575727e-94
1.0573878e-94
1.0573759e-94
1.0573753e-94
1.0573753e-94
1.0573753e-94
1.0573753e-94
1.057376e-94
1.057383e-94
1.0595688e-94
1.0575727e-94
1.0573878e-94
1.0573759e-94
1.0573753e-94
1.0573753e-94
1.0573753e-94
1.0573753e-94
1.057376e-94
1.057383e-94
1.0595688e-94
1.0575728e-94
1.0573878e-94
1.0573759e-94
1.0573753e-94
1.0573753e-94
1.0573753e-94
1.0573754e-94
1.057376e-94
1.0573831e-94
1.0595689e-94
1.0575734e-94
1.0573885e-94
1.0573766e-94
1.057376e-94
1.057376e-94
1.057376e-94
1.057376e-94
1.0573767e-94
1.0573837e-94
1.0595697e-94
1.0575799e-94
1.0573955e-94
1.0573836e-94
1.057383e-94
1.057383e-94
1.057383e-94
1.0573831e-94
1.0573837e-94
1.0573908e-94
4.1207861e-93
4.1132866e-93
4.1125916e-93
4.1125469e-93
4.1125447e-93
4.1125446e-93
4.1125446e-93
4.1125446e-93
4.112545e-93
4.1125482e-93
4.1132866e-93
4.1058043e-93
4.1051109e-93
4.1050663e-93
4.1050641e-93
4.105064e-93
4.1050641e-93
4.1050642e-93
4.1050664e-93
4.1050913e-93
4.1125916e-93
4.1051109e-93
4.1044177e-93
4.1043731e-93
4.1043709e-93
4.1043708e-93
4.1043708e-93
4.104371e-93
4.1043735e-93
4.1044002e-93
4.1125469e-93
4.1050663e-93
4.1043731e-93
4.1043285e-93
4.1043263e-93
4.1043263e-93
4.1043263e-93
4.1043264e-93
4.1043289e-93
4.1043558e-93
4.1125447e-93
4.1050641e-93
4.1043709e-93
4.1043263e-93
4.1043242e-93
4.1043241e-93
4.1043241e-93
4.1043242e-93
4.1043267e-93
4.1043536e-93
4.1125446e-93
4.105064e-93
4.1043708e-93
4.1043263e-93
4.1043241e-93
4.104324e-93
4.104324e-93
4.1043242e-93
4.1043266e-93
4.1043535e-93
4.1125446e-93
4.1050641e-93
4.1043708e-93
4.1043263e-93
4.1043241e-93
4.104324e-93
4.104324e-93
4.1043242e-93
4.1043266e-93
4.1043535e-93
4.1125446e-93
4.1050642e-93
4.104371e-93
4.1043264e-93
4.1043242e-93
4.1043242e-93
4.1043242e-93
4.1043243e-93
4.1043268e-93
4.1043537e-93
4.112545e-93
4.1050664e-93
4.1043735e-93
4.1043289e-93
4.1043267e-93
4.1043266e-93
4.1043266e-93
4.1043268e-93
4.1043293e-93
4.1043562e-93
4.1125482e-93
4.1050913e-93
4.1044002e-93
4.1043558e-93
4.1043536e-93
4.1043535e-93
4.1043535e-93
4.1043537e-93
4.1043562e-93
4.104383e-93
1.6438932e-91
1.6410065e-91
1.640739e-91
1.6407218e-91
1.6407209e-91
1.6407209e-91
1.6407209e-91
1.6407209e-91
1.640721e-91
1.6407223e-91
1.6410065e-91
1.6381263e-91
1.6378593e-91
1.6378422e-91
1.6378413e-91
1.6378413e-91
1.6378413e-91
1.6378414e-91
1.6378422e-91
1.637852e-91
1.640739e-91
1.6378593e-91
1.6375925e-91
1.6375753e-91
1.6375745e-91
1.6375744e-91
1.6375744e-91
1.6375745e-91
1.6375755e-91
1.6375859e-91
1.6407218e-91
1.6378422e-91
1.6375753e-91
1.6375581e-91
1.6375573e-91
1.6375573e-91
1.6375573e-91
1.6375573e-91
1.6375583e-91
1.6375688e-91
1.6407209e-91
1.6378413e-91
1.6375745e-91
1.6375573e-91
1.6375565e-91
1.6375564e-91
1.6375564e-91
1.6375565e-91
1.6375575e-91
1.637568e-91
1.6407209e-91
1.6378413e-91
1.6375744e-91
1.6375573e-91
1.6375564e-91
1.6375564e-91
1.6375564e-91
1.6375565e-91
1.6375574e-91
1.637568e-91
1.6407209e-91
1.6378413e-91
1.6375744e-91
1.6375573e-91
1.6375564e-91
1.6375564e-91
1.6375564e-91
1.6375565e-91
1.6375574e-91
1.637568e-91
1.6407209e-91
1.6378414e-91
1.6375745e-91
1.6375573e-91
1.6375565e-91
1.6375565e-91
1.6375565e-91
1.6375565e-91
1.6375575e-91
1.637568e-91
1.640721e-91
1.6378422e-91
1.6375755e-91
1.6375583e-91
1.6375575e-91
1.6375574e-91
1.6375574e-91
1.6375575e-91
1.6375585e-91
1.637569e-91
1.6407223e-91
1.637852e-91
1.6375859e-91
1.6375688e-91
1.637568e-91
1.637568e-91
1.637568e-91
1.637568e-91
1.637569e-91
1.6375795e-91
6.7387185e-90
6.7273093e-90
6.7262519e-90
6.7261839e-90
6.7261805e-90
6.7261804e-90
6.7261804e-90
6.7261804e-90
6.7261809e-90
6.7261859e-90
6.7273093e-90
6.7159249e-90
6.7148698e-90
6.7148019e-90
6.7147986e-90
6.7147984e-90
6.7147985e-90
6.7147987e-90
6.7148022e-90
6.7148415e-90
6.7262519e-90
6.7148698e-90
6.7138148e-90
6.713747e-90
6.7137437e-90
6.7137435e-90
6.7137435e-90
6.7137438e-90
6.7137477e-90
6.7137899e-90
6.7261839e-90
6.7148019e-90
6.713747e-90
6.7136791e-90
6.7136758e-90
6.7136757e-90
6.7136757e-90
6.7136759e-90
6.7136799e-90
6.7137223e-90
6.7261805e-90
6.7147986e-90
6.7137437e-90
6.7136758e-90
6.7136725e-90
6.7136724e-90
6.7136724e-90
6.7136726e-90
6.7136766e-90
6.7137189e-90
6.7261804e-90
6.7147984e-90
6.7137435e-90
6.7136757e-90
6.7136724e-90
6.7136722e-90
6.7136722e-90
6.7136725e-90
6.7136764e-90
6.7137188e-90
6.7261804e-90
6.7147985e-90
6.7137435e-90
6.7136757e-90
6.7136724e-90
6.7136722e-90
6.7136722e-90
6.7136725e-90
6.7136764e-90
6.7137188e-90
6.7261804e-90
6.7147987e-90
6.7137438e-90
6.7136759e-90
6.7136726e-90
6.7136725e-90
6.7136725e-90
6.7136728e-90
6.7136767e-90
6.7137191e-90
6.7261809e-90
6.7148022e-90
6.7137477e-90
6.7136799e-90
6.7136766e-90
6.7136764e-90
6.7136764e-90
6.7136767e-90
6.7136806e-90
6.713723e-90
6.7261859e-90
6.7148415e-90
6.7137899e-90
6.7137223e-90
6.7137189e-90
6.7137188e-90
6.7137188e-90
6.7137191e-90
6.713723e-90
6.7137654e-90
2.8376049e-88
2.8329763e-88
2.8325472e-88
2.8325196e-88
2.8325183e-88
2.8325182e-88