/*--------------------------------*- C++ -*----------------------------------*\
| =========                 |                                                 |
| \\      /  F ield         | OpenFOAM: The Open Source CFD Toolbox           |
|  \\    /   O peration     | Version:  dev                                   |
|   \\  /    A nd           | Web:      www.OpenFOAM.org                      |
|    \\/     M anipulation  |                                                 |
\*---------------------------------------------------------------------------*/
FoamFile
{
    version     2.0;
    format      ascii;
    class       volScalarField;
    location    "79.995";
    object      A_0;
}
// * * * * * * * * * * * * * * * * * * * * * * * * * * * * * * * * * * * * * //

dimensions      [0 0 0 0 1 0 0];

internalField   nonuniform List<scalar> 
10000
(
2.1740304e-24
2.1716321e-24
2.1703433e-24
2.1696323e-24
2.1692615e-24
2.169095e-24
2.1690619e-24
2.1691445e-24
2.1693807e-24
2.1698571e-24
2.1716321e-24
2.1692433e-24
2.167958e-24
2.1672485e-24
2.1668787e-24
2.1667135e-24
2.1666829e-24
2.1667712e-24
2.1670221e-24
2.1675406e-24
2.1703433e-24
2.167958e-24
2.1666747e-24
2.1659665e-24
2.1655979e-24
2.1654343e-24
2.1654066e-24
2.1655005e-24
2.1657616e-24
2.1662946e-24
2.1696323e-24
2.1672485e-24
2.1659665e-24
2.1652594e-24
2.1648919e-24
2.1647297e-24
2.1647044e-24
2.1648021e-24
2.1650687e-24
2.1656072e-24
2.1692615e-24
2.1668787e-24
2.1655979e-24
2.1648919e-24
2.1645253e-24
2.1643643e-24
2.1643406e-24
2.1644406e-24
2.16471e-24
2.1652508e-24
2.169095e-24
2.1667135e-24
2.1654343e-24
2.1647297e-24
2.1643643e-24
2.1642043e-24
2.1641816e-24
2.1642829e-24
2.1645537e-24
2.1650955e-24
2.1690619e-24
2.1666829e-24
2.1654066e-24
2.1647044e-24
2.1643406e-24
2.1641816e-24
2.1641598e-24
2.1642619e-24
2.1645334e-24
2.1650756e-24
2.1691445e-24
2.1667712e-24
2.1655005e-24
2.1648021e-24
2.1644406e-24
2.1642829e-24
2.1642619e-24
2.1643645e-24
2.1646364e-24
2.165179e-24
2.1693807e-24
2.1670221e-24
2.1657616e-24
2.1650687e-24
2.16471e-24
2.1645537e-24
2.1645334e-24
2.1646364e-24
2.1649088e-24
2.165452e-24
2.1698571e-24
2.1675406e-24
2.1662946e-24
2.1656072e-24
2.1652508e-24
2.1650955e-24
2.1650756e-24
2.165179e-24
2.165452e-24
2.1659966e-24
7.2511186e-24
7.2434258e-24
7.239174e-24
7.2368226e-24
7.2355954e-24
7.2350441e-24
7.2349342e-24
7.2352062e-24
7.2359864e-24
7.2376167e-24
7.2434258e-24
7.2357632e-24
7.2315223e-24
7.229176e-24
7.2279523e-24
7.2274052e-24
7.2273034e-24
7.2275943e-24
7.2284235e-24
7.2301949e-24
7.239174e-24
7.2315223e-24
7.2272884e-24
7.2249464e-24
7.2237265e-24
7.2231847e-24
7.2230926e-24
7.2234021e-24
7.2242651e-24
7.2260848e-24
7.2368226e-24
7.229176e-24
7.2249464e-24
7.222608e-24
7.2213916e-24
7.2208545e-24
7.2207702e-24
7.2210926e-24
7.221974e-24
7.223812e-24
7.2355954e-24
7.2279523e-24
7.2237265e-24
7.2213916e-24
7.2201785e-24
7.2196453e-24
7.2195663e-24
7.2198963e-24
7.220787e-24
7.2226325e-24
7.2350441e-24
7.2274052e-24
7.2231847e-24
7.2208545e-24
7.2196453e-24
7.2191154e-24
7.2190401e-24
7.2193743e-24
7.2202696e-24
7.2221183e-24
7.2349342e-24
7.2273034e-24
7.2230926e-24
7.2207702e-24
7.2195663e-24
7.2190401e-24
7.2189675e-24
7.2193043e-24
7.220202e-24
7.2220522e-24
7.2352062e-24
7.2275943e-24
7.2234021e-24
7.2210926e-24
7.2198963e-24
7.2193743e-24
7.2193043e-24
7.219643e-24
7.2205421e-24
7.2223935e-24
7.2359864e-24
7.2284235e-24
7.2242651e-24
7.221974e-24
7.220787e-24
7.2202696e-24
7.220202e-24
7.2205421e-24
7.2214427e-24
7.2232959e-24
7.2376167e-24
7.2301949e-24
7.2260848e-24
7.223812e-24
7.2226325e-24
7.2221183e-24
7.2220522e-24
7.2223935e-24
7.2232959e-24
7.2251545e-24
1.4815594e-23
1.4800394e-23
1.479187e-23
1.4787141e-23
1.478467e-23
1.4783559e-23
1.4783335e-23
1.4783878e-23
1.478544e-23
1.4788806e-23
1.4800394e-23
1.4785253e-23
1.477675e-23
1.4772031e-23
1.4769567e-23
1.4768464e-23
1.4768258e-23
1.4768839e-23
1.47705e-23
1.4774155e-23
1.479187e-23
1.477675e-23
1.4768261e-23
1.4763551e-23
1.4761094e-23
1.4760002e-23
1.4759815e-23
1.4760434e-23
1.4762164e-23
1.4765917e-23
1.4787141e-23
1.4772031e-23
1.4763551e-23
1.4758848e-23
1.4756399e-23
1.4755316e-23
1.4755145e-23
1.475579e-23
1.4757558e-23
1.4761348e-23
1.478467e-23
1.4769567e-23
1.4761094e-23
1.4756399e-23
1.4753956e-23
1.4752882e-23
1.4752721e-23
1.4753382e-23
1.4755168e-23
1.4758974e-23
1.4783559e-23
1.4768464e-23
1.4760002e-23
1.4755316e-23
1.4752882e-23
1.4751814e-23
1.4751661e-23
1.475233e-23
1.4754126e-23
1.4757938e-23
1.4783335e-23
1.4768258e-23
1.4759815e-23
1.4755145e-23
1.4752721e-23
1.4751661e-23
1.4751513e-23
1.4752188e-23
1.4753988e-23
1.4757803e-23
1.4783878e-23
1.4768839e-23
1.4760434e-23
1.475579e-23
1.4753382e-23
1.475233e-23
1.4752188e-23
1.4752866e-23
1.4754669e-23
1.4758487e-23
1.478544e-23
1.47705e-23
1.4762164e-23
1.4757558e-23
1.4755168e-23
1.4754126e-23
1.4753988e-23
1.4754669e-23
1.4756476e-23
1.4760297e-23
1.4788806e-23
1.4774155e-23
1.4765917e-23
1.4761348e-23
1.4758974e-23
1.4757938e-23
1.4757803e-23
1.4758487e-23
1.4760297e-23
1.4764129e-23
2.759232e-23
2.7564935e-23
2.7549437e-23
2.7540814e-23
2.75363e-23
2.7534268e-23
2.7533855e-23
2.7534834e-23
2.7537655e-23
2.75438e-23
2.7564935e-23
2.7537654e-23
2.7522195e-23
2.751359e-23
2.7509089e-23
2.7507072e-23
2.750669e-23
2.750774e-23
2.7510746e-23
2.7517425e-23
2.7549437e-23
2.7522195e-23
2.7506762e-23
2.7498173e-23
2.7493686e-23
2.7491688e-23
2.7491342e-23
2.7492463e-23
2.7495596e-23
2.7502457e-23
2.7540814e-23
2.751359e-23
2.7498173e-23
2.7489597e-23
2.7485122e-23
2.7483143e-23
2.7482826e-23
2.7483995e-23
2.7487198e-23
2.7494128e-23
2.75363e-23
2.7509089e-23
2.7493686e-23
2.7485122e-23
2.7480661e-23
2.7478695e-23
2.7478399e-23
2.7479596e-23
2.7482834e-23
2.7489792e-23
2.7534268e-23
2.7507072e-23
2.7491688e-23
2.7483143e-23
2.7478695e-23
2.7476743e-23
2.747646e-23
2.7477673e-23
2.7480928e-23
2.7487898e-23
2.7533855e-23
2.750669e-23
2.7491342e-23
2.7482826e-23
2.7478399e-23
2.747646e-23
2.7476187e-23
2.747741e-23
2.7480674e-23
2.748765e-23
2.7534834e-23
2.750774e-23
2.7492463e-23
2.7483995e-23
2.7479596e-23
2.7477673e-23
2.747741e-23
2.747864e-23
2.7481909e-23
2.7488889e-23
2.7537655e-23
2.7510746e-23
2.7495596e-23
2.7487198e-23
2.7482834e-23
2.7480928e-23
2.7480674e-23
2.7481909e-23
2.7485183e-23
2.749217e-23
2.75438e-23
2.7517425e-23
2.7502457e-23
2.7494128e-23
2.7489792e-23
2.7487898e-23
2.748765e-23
2.7488889e-23
2.749217e-23
2.7499179e-23
5.0402171e-23
5.0353792e-23
5.0326242e-23
5.0310865e-23
5.0302801e-23
5.0299163e-23
5.0298417e-23
5.0300142e-23
5.0305108e-23
5.031592e-23
5.0353792e-23
5.0305597e-23
5.0278115e-23
5.0262769e-23
5.0254728e-23
5.0251119e-23
5.0250427e-23
5.0252281e-23
5.0257583e-23
5.0269367e-23
5.0326242e-23
5.0278115e-23
5.0250676e-23
5.0235359e-23
5.0227343e-23
5.0223769e-23
5.0223143e-23
5.0225124e-23
5.0230657e-23
5.0242772e-23
5.0310865e-23
5.0262769e-23
5.0235359e-23
5.0220065e-23
5.0212072e-23
5.0208531e-23
5.0207958e-23
5.0210026e-23
5.0215685e-23
5.0227925e-23
5.0302801e-23
5.0254728e-23
5.0227343e-23
5.0212072e-23
5.0204102e-23
5.0200586e-23
5.020005e-23
5.020217e-23
5.0207892e-23
5.0220183e-23
5.0299163e-23
5.0251119e-23
5.0223769e-23
5.0208531e-23
5.0200586e-23
5.0197093e-23
5.0196582e-23
5.0198731e-23
5.0204484e-23
5.0216797e-23
5.0298417e-23
5.0250427e-23
5.0223143e-23
5.0207958e-23
5.020005e-23
5.0196582e-23
5.0196089e-23
5.0198255e-23
5.0204024e-23
5.0216348e-23
5.0300142e-23
5.0252281e-23
5.0225124e-23
5.0210026e-23
5.020217e-23
5.0198731e-23
5.0198255e-23
5.0200433e-23
5.0206213e-23
5.0218544e-23
5.0305108e-23
5.0257583e-23
5.0230657e-23
5.0215685e-23
5.0207892e-23
5.0204484e-23
5.0204024e-23
5.0206213e-23
5.0212001e-23
5.0224344e-23
5.031592e-23
5.0269367e-23
5.0242772e-23
5.0227925e-23
5.0220183e-23
5.0216797e-23
5.0216348e-23
5.0218544e-23
5.0224344e-23
5.0236725e-23
9.2178472e-23
9.2092941e-23
9.2043982e-23
9.2016574e-23
9.2002175e-23
9.199567e-23
9.1994319e-23
9.1997352e-23
9.2006075e-23
9.2024966e-23
9.2092941e-23
9.200773e-23
9.1958891e-23
9.1931539e-23
9.191718e-23
9.1910725e-23
9.1909475e-23
9.1912741e-23
9.1922074e-23
9.1942734e-23
9.2043982e-23
9.1958891e-23
9.1910128e-23
9.1882827e-23
9.1868513e-23
9.1862122e-23
9.1860991e-23
9.1864488e-23
9.187424e-23
9.1895501e-23
9.2016574e-23
9.1931539e-23
9.1882827e-23
9.1855568e-23
9.1841295e-23
9.1834963e-23
9.1833927e-23
9.1837583e-23
9.1847563e-23
9.1869052e-23
9.2002175e-23
9.191718e-23
9.1868513e-23
9.1841295e-23
9.1827063e-23
9.1820777e-23
9.1819808e-23
9.1823557e-23
9.1833652e-23
9.1855234e-23
9.199567e-23
9.1910725e-23
9.1862122e-23
9.1834963e-23
9.1820777e-23
9.1814533e-23
9.1813608e-23
9.181741e-23
9.1827561e-23
9.1849183e-23
9.1994319e-23
9.1909475e-23
9.1860991e-23
9.1833927e-23
9.1819808e-23
9.1813608e-23
9.1812717e-23
9.181655e-23
9.182673e-23
9.1848371e-23
9.1997352e-23
9.1912741e-23
9.1864488e-23
9.1837583e-23
9.1823557e-23
9.181741e-23
9.181655e-23
9.1820405e-23
9.1830603e-23
9.1852257e-23
9.2006075e-23
9.1922074e-23
9.187424e-23
9.1847563e-23
9.1833652e-23
9.1827561e-23
9.182673e-23
9.1830603e-23
9.1840818e-23
9.1862493e-23
9.2024966e-23
9.1942734e-23
9.1895501e-23
9.1869052e-23
9.1855234e-23
9.1849183e-23
9.1848371e-23
9.1852257e-23
9.1862493e-23
9.1884233e-23
1.6985083e-22
1.6969854e-22
1.6961097e-22
1.695618e-22
1.6953592e-22
1.6952421e-22
1.6952175e-22
1.6952712e-22
1.6954252e-22
1.6957566e-22
1.6969854e-22
1.6954682e-22
1.6945945e-22
1.6941038e-22
1.6938458e-22
1.6937296e-22
1.6937068e-22
1.6937647e-22
1.69393e-22
1.6942937e-22
1.6961097e-22
1.6945945e-22
1.6937223e-22
1.6932325e-22
1.6929752e-22
1.6928602e-22
1.6928396e-22
1.6929017e-22
1.6930746e-22
1.6934494e-22
1.695618e-22
1.6941038e-22
1.6932325e-22
1.6927434e-22
1.6924869e-22
1.6923729e-22
1.6923541e-22
1.6924191e-22
1.6925962e-22
1.6929751e-22
1.6953592e-22
1.6938458e-22
1.6929752e-22
1.6924869e-22
1.6922311e-22
1.692118e-22
1.6921004e-22
1.6921671e-22
1.6923463e-22
1.6927269e-22
1.6952421e-22
1.6937296e-22
1.6928602e-22
1.6923729e-22
1.692118e-22
1.6920056e-22
1.6919888e-22
1.6920565e-22
1.6922367e-22
1.6926181e-22
1.6952175e-22
1.6937068e-22
1.6928396e-22
1.6923541e-22
1.6921004e-22
1.6919888e-22
1.6919726e-22
1.6920409e-22
1.6922216e-22
1.6926033e-22
1.6952712e-22
1.6937647e-22
1.6929017e-22
1.6924191e-22
1.6921671e-22
1.6920565e-22
1.6920409e-22
1.6921096e-22
1.6922906e-22
1.6926725e-22
1.6954252e-22
1.69393e-22
1.6930746e-22
1.6925962e-22
1.6923463e-22
1.6922367e-22
1.6922216e-22
1.6922906e-22
1.6924719e-22
1.6928542e-22
1.6957566e-22
1.6942937e-22
1.6934494e-22
1.6929751e-22
1.6927269e-22
1.6926181e-22
1.6926033e-22
1.6926725e-22
1.6928542e-22
1.6932377e-22
3.1595352e-22
3.1567989e-22
3.1552185e-22
3.1543286e-22
3.1538594e-22
3.1536467e-22
3.1536016e-22
3.1536974e-22
3.1539719e-22
3.1545576e-22
3.1567989e-22
3.1540728e-22
3.1524961e-22
3.151608e-22
3.1511401e-22
3.150929e-22
3.1508873e-22
3.1509909e-22
3.151286e-22
3.1519317e-22
3.1552185e-22
3.1524961e-22
3.1509218e-22
3.1500354e-22
3.1495689e-22
3.14936e-22
3.1493223e-22
3.1494337e-22
3.1497429e-22
3.1504089e-22
3.1543286e-22
3.151608e-22
3.1500354e-22
3.1491503e-22
3.1486852e-22
3.1484783e-22
3.1484437e-22
3.1485605e-22
3.1488774e-22
3.149551e-22
3.1538594e-22
3.1511401e-22
3.1495689e-22
3.1486852e-22
3.1482215e-22
3.1480161e-22
3.1479838e-22
3.1481037e-22
3.1484244e-22
3.1491012e-22
3.1536467e-22
3.150929e-22
3.14936e-22
3.1484783e-22
3.1480161e-22
3.1478121e-22
3.1477813e-22
3.1479029e-22
3.1482256e-22
3.1489037e-22
3.1536016e-22
3.1508873e-22
3.1493223e-22
3.1484437e-22
3.1479838e-22
3.1477813e-22
3.1477516e-22
3.1478743e-22
3.1481979e-22
3.1488767e-22
3.1536974e-22
3.1509909e-22
3.1494337e-22
3.1485605e-22
3.1481037e-22
3.1479029e-22
3.1478743e-22
3.1479977e-22
3.1483219e-22
3.1490011e-22
3.1539719e-22
3.151286e-22
3.1497429e-22
3.1488774e-22
3.1484244e-22
3.1482256e-22
3.1481979e-22
3.1483219e-22
3.1486467e-22
3.1493265e-22
3.1545576e-22
3.1519317e-22
3.1504089e-22
3.149551e-22
3.1491012e-22
3.1489037e-22
3.1488767e-22
3.1490011e-22
3.1493265e-22
3.1500084e-22
5.9370998e-22
5.9321356e-22
5.929256e-22
5.9276301e-22
5.9267711e-22
5.9263812e-22
5.9262977e-22
5.9264703e-22
5.926964e-22
5.9280092e-22
5.9321356e-22
5.9271896e-22
5.9243167e-22
5.922694e-22
5.9218374e-22
5.9214506e-22
5.9213732e-22
5.9215605e-22
5.9220927e-22
5.9232496e-22
5.929256e-22
5.9243167e-22
5.9214482e-22
5.9198285e-22
5.9189746e-22
5.9185917e-22
5.9185218e-22
5.9187236e-22
5.919282e-22
5.9204768e-22
5.9276301e-22
5.922694e-22
5.9198285e-22
5.9182112e-22
5.9173599e-22
5.9169806e-22
5.9169167e-22
5.9171284e-22
5.9177011e-22
5.9189102e-22
5.9267711e-22
5.9218374e-22
5.9189746e-22
5.9173599e-22
5.9165111e-22
5.9161347e-22
5.9160749e-22
5.9162924e-22
5.9168723e-22
5.9180873e-22
5.9263812e-22
5.9214506e-22
5.9185917e-22
5.9169806e-22
5.9161347e-22
5.9157609e-22
5.9157039e-22
5.9159247e-22
5.9165081e-22
5.9177256e-22
5.9262977e-22
5.9213732e-22
5.9185218e-22
5.9169167e-22
5.9160749e-22
5.9157039e-22
5.915649e-22
5.9158717e-22
5.9164569e-22
5.9176756e-22
5.9264703e-22
5.9215605e-22
5.9187236e-22
5.9171284e-22
5.9162924e-22
5.9159247e-22
5.9158717e-22
5.9160958e-22
5.9166821e-22
5.9179015e-22
5.926964e-22
5.9220927e-22
5.919282e-22
5.9177011e-22
5.9168723e-22
5.9165081e-22
5.9164569e-22
5.9166821e-22
5.9172694e-22
5.91849e-22
5.9280092e-22
5.9232496e-22
5.9204768e-22
5.9189102e-22
5.9180873e-22
5.9177256e-22
5.9176756e-22
5.9179015e-22
5.91849e-22
5.9197141e-22
1.1272521e-21
1.1263425e-21
1.1258127e-21
1.1255126e-21
1.1253539e-21
1.1252817e-21
1.1252661e-21
1.1252975e-21
1.1253872e-21
1.1255755e-21
1.1263425e-21
1.1254362e-21
1.1249076e-21
1.1246082e-21
1.1244498e-21
1.1243782e-21
1.1243638e-21
1.124398e-21
1.1244949e-21
1.1247043e-21
1.1258127e-21
1.1249076e-21
1.1243797e-21
1.1240809e-21
1.123923e-21
1.1238522e-21
1.1238391e-21
1.123876e-21
1.1239779e-21
1.1241944e-21
1.1255126e-21
1.1246082e-21
1.1240809e-21
1.1237824e-21
1.1236251e-21
1.1235549e-21
1.123543e-21
1.1235817e-21
1.1236863e-21
1.1239055e-21
1.1253539e-21
1.1244498e-21
1.123923e-21
1.1236251e-21
1.1234682e-21
1.1233985e-21
1.1233874e-21
1.1234272e-21
1.1235332e-21
1.1237535e-21
1.1252817e-21
1.1243782e-21
1.1238522e-21
1.1235549e-21
1.1233985e-21
1.1233294e-21
1.1233187e-21
1.1233592e-21
1.1234658e-21
1.1236866e-21
1.1252661e-21
1.1243638e-21
1.1238391e-21
1.123543e-21
1.1233874e-21
1.1233187e-21
1.1233085e-21
1.1233493e-21
1.1234562e-21
1.1236773e-21
1.1252975e-21
1.124398e-21
1.123876e-21
1.1235817e-21
1.1234272e-21
1.1233592e-21
1.1233493e-21
1.1233904e-21
1.1234976e-21
1.1237187e-21
1.1253872e-21
1.1244949e-21
1.1239779e-21
1.1236863e-21
1.1235332e-21
1.1234658e-21
1.1234562e-21
1.1234976e-21
1.1236049e-21
1.1238262e-21
1.1255755e-21
1.1247043e-21
1.1241944e-21
1.1239055e-21
1.1237535e-21
1.1236866e-21
1.1236773e-21
1.1237187e-21
1.1238262e-21
1.1240482e-21
2.16276e-21
2.1610766e-21
2.1600918e-21
2.1595327e-21
2.1592363e-21
2.1591014e-21
2.1590719e-21
2.1591297e-21
2.1592944e-21
2.1596372e-21
2.1610766e-21
2.1593992e-21
2.1584167e-21
2.1578587e-21
2.1575631e-21
2.1574292e-21
2.157402e-21
2.1574651e-21
2.1576434e-21
2.1580263e-21
2.1600918e-21
2.1584167e-21
2.1574357e-21
2.1568787e-21
2.156584e-21
2.1564516e-21
2.156427e-21
2.1564952e-21
2.156683e-21
2.1570794e-21
2.1595327e-21
2.1578587e-21
2.1568787e-21
2.1563225e-21
2.1560288e-21
2.1558976e-21
2.1558751e-21
2.1559469e-21
2.1561398e-21
2.1565413e-21
2.1592363e-21
2.1575631e-21
2.156584e-21
2.1560288e-21
2.1557359e-21
2.1556057e-21
2.1555847e-21
2.1556586e-21
2.155854e-21
2.1562577e-21
2.1591014e-21
2.1574292e-21
2.1564516e-21
2.1558976e-21
2.1556057e-21
2.1554765e-21
2.1554565e-21
2.1555315e-21
2.1557282e-21
2.1561327e-21
2.1590719e-21
2.157402e-21
2.156427e-21
2.1558751e-21
2.1555847e-21
2.1554565e-21
2.1554372e-21
2.1555129e-21
2.1557102e-21
2.1561152e-21
2.1591297e-21
2.1574651e-21
2.1564952e-21
2.1559469e-21
2.1556586e-21
2.1555315e-21
2.1555129e-21
2.1555891e-21
2.1557868e-21
2.156192e-21
2.1592944e-21
2.1576434e-21
2.156683e-21
2.1561398e-21
2.155854e-21
2.1557282e-21
2.1557102e-21
2.1557868e-21
2.1559848e-21
2.1563905e-21
2.1596372e-21
2.1580263e-21
2.1570794e-21
2.1565413e-21
2.1562577e-21
2.1561327e-21
2.1561152e-21
2.156192e-21
2.1563905e-21
2.1567972e-21
4.1933691e-21
4.1902221e-21
4.1883735e-21
4.1873211e-21
4.1867622e-21
4.1865074e-21
4.1864513e-21
4.1865588e-21
4.1868641e-21
4.1874944e-21
4.1902221e-21
4.1870862e-21
4.1852418e-21
4.1841915e-21
4.1836341e-21
4.1833813e-21
4.1833295e-21
4.183447e-21
4.1837787e-21
4.184486e-21
4.1883735e-21
4.1852418e-21
4.1834002e-21
4.1823517e-21
4.1817961e-21
4.1815461e-21
4.1814993e-21
4.1816267e-21
4.1819764e-21
4.1827098e-21
4.1873211e-21
4.1841915e-21
4.1823517e-21
4.1813049e-21
4.180751e-21
4.1805034e-21
4.1804607e-21
4.1805949e-21
4.1809544e-21
4.1816976e-21
4.1867622e-21
4.1836341e-21
4.1817961e-21
4.180751e-21
4.1801988e-21
4.1799532e-21
4.1799133e-21
4.1800515e-21
4.1804159e-21
4.1811631e-21
4.1865074e-21
4.1833813e-21
4.1815461e-21
4.1805034e-21
4.1799532e-21
4.1797093e-21
4.1796712e-21
4.1798117e-21
4.1801785e-21
4.1809274e-21
4.1864513e-21
4.1833295e-21
4.1814993e-21
4.1804607e-21
4.1799133e-21
4.1796712e-21
4.1796346e-21
4.1797764e-21
4.1801444e-21
4.1808942e-21
4.1865588e-21
4.183447e-21
4.1816267e-21
4.1805949e-21
4.1800515e-21
4.1798117e-21
4.1797764e-21
4.1799191e-21
4.1802878e-21
4.1810381e-21
4.1868641e-21
4.1837787e-21
4.1819764e-21
4.1809544e-21
4.1804159e-21
4.1801785e-21
4.1801444e-21
4.1802878e-21
4.1806572e-21
4.1814082e-21
4.1874944e-21
4.184486e-21
4.1827098e-21
4.1816976e-21
4.1811631e-21
4.1809274e-21
4.1808942e-21
4.1810381e-21
4.1814082e-21
4.1821613e-21
8.2168396e-21
8.2108966e-21
8.2073915e-21
8.2053908e-21
8.2043264e-21
8.2038405e-21
8.2037327e-21
8.2039346e-21
8.2045066e-21
8.2056774e-21
8.2108966e-21
8.2049747e-21
8.2014774e-21
8.1994805e-21
8.198419e-21
8.197937e-21
8.1978374e-21
8.1980588e-21
8.198682e-21
8.2000024e-21
8.2073915e-21
8.2014774e-21
8.1979853e-21
8.195992e-21
8.1949339e-21
8.1944571e-21
8.1943673e-21
8.1946079e-21
8.195266e-21
8.196637e-21
8.2053908e-21
8.1994805e-21
8.195992e-21
8.1940018e-21
8.192947e-21
8.1924749e-21
8.192393e-21
8.1926467e-21
8.1933238e-21
8.1947139e-21
8.2043264e-21
8.198419e-21
8.1949339e-21
8.192947e-21
8.1918955e-21
8.1914272e-21
8.1913507e-21
8.1916121e-21
8.1922987e-21
8.1936966e-21
8.2038405e-21
8.197937e-21
8.1944571e-21
8.1924749e-21
8.1914272e-21
8.1909624e-21
8.1908895e-21
8.1911552e-21
8.1918464e-21
8.1932476e-21
8.2037327e-21
8.1978374e-21
8.1943673e-21
8.192393e-21
8.1913507e-21
8.1908895e-21
8.1908194e-21
8.1910877e-21
8.1917813e-21
8.193184e-21
8.2039346e-21
8.1980588e-21
8.1946079e-21
8.1926467e-21
8.1916121e-21
8.1911552e-21
8.1910877e-21
8.1913577e-21
8.1920527e-21
8.1934564e-21
8.2045066e-21
8.198682e-21
8.195266e-21
8.1933238e-21
8.1922987e-21
8.1918464e-21
8.1917813e-21
8.1920527e-21
8.1927489e-21
8.194154e-21
8.2056774e-21
8.2000024e-21
8.196637e-21
8.1947139e-21
8.1936966e-21
8.1932476e-21
8.193184e-21
8.1934564e-21
8.194154e-21
8.1955628e-21
1.6272276e-20
1.6260939e-20
1.6254226e-20
1.6250384e-20
1.6248336e-20
1.6247401e-20
1.6247191e-20
1.6247575e-20
1.6248658e-20
1.6250855e-20
1.6260939e-20
1.6249642e-20
1.6242944e-20
1.6239109e-20
1.6237067e-20
1.6236139e-20
1.6235946e-20
1.6236367e-20
1.623755e-20
1.6240041e-20
1.6254226e-20
1.6242944e-20
1.6236255e-20
1.6232427e-20
1.6230392e-20
1.6229474e-20
1.62293e-20
1.6229759e-20
1.6231011e-20
1.62336e-20
1.6250384e-20
1.6239109e-20
1.6232427e-20
1.6228605e-20
1.6226577e-20
1.6225668e-20
1.6225509e-20
1.6225994e-20
1.6227282e-20
1.622991e-20
1.6248336e-20
1.6237067e-20
1.6230392e-20
1.6226577e-20
1.6224554e-20
1.6223653e-20
1.6223505e-20
1.6224004e-20
1.6225312e-20
1.6227954e-20
1.6247401e-20
1.6236139e-20
1.6229474e-20
1.6225668e-20
1.6223653e-20
1.6222758e-20
1.6222617e-20
1.6223125e-20
1.6224441e-20
1.622709e-20
1.6247191e-20
1.6235946e-20
1.62293e-20
1.6225509e-20
1.6223505e-20
1.6222617e-20
1.6222482e-20
1.6222995e-20
1.6224316e-20
1.6226968e-20
1.6247575e-20
1.6236367e-20
1.6229759e-20
1.6225994e-20
1.6224004e-20
1.6223125e-20
1.6222995e-20
1.6223511e-20
1.6224835e-20
1.6227489e-20
1.6248658e-20
1.623755e-20
1.6231011e-20
1.6227282e-20
1.6225312e-20
1.6224441e-20
1.6224316e-20
1.6224835e-20
1.6226161e-20
1.6228817e-20
1.6250855e-20
1.6240041e-20
1.62336e-20
1.622991e-20
1.6227954e-20
1.622709e-20
1.6226968e-20
1.6227489e-20
1.6228817e-20
1.6231481e-20
3.2568995e-20
3.2547149e-20
3.2534161e-20
3.2526709e-20
3.2522732e-20
3.2520911e-20
3.2520501e-20
3.2521237e-20
3.2523308e-20
3.2527475e-20
3.2547149e-20
3.2525379e-20
3.251242e-20
3.2504982e-20
3.2501015e-20
3.2499209e-20
3.2498831e-20
3.2499642e-20
3.2501912e-20
3.250666e-20
3.2534161e-20
3.251242e-20
3.249948e-20
3.2492055e-20
3.2488101e-20
3.2486315e-20
3.2485975e-20
3.248686e-20
3.2489265e-20
3.2494209e-20
3.2526709e-20
3.2504982e-20
3.2492055e-20
3.2484642e-20
3.24807e-20
3.2478933e-20
3.2478623e-20
3.2479559e-20
3.2482037e-20
3.2487056e-20
3.2522732e-20
3.2501015e-20
3.2488101e-20
3.24807e-20
3.2476771e-20
3.2475018e-20
3.247473e-20
3.2475695e-20
3.247821e-20
3.2483259e-20
3.2520911e-20
3.2499209e-20
3.2486315e-20
3.2478933e-20
3.2475018e-20
3.2473279e-20
3.2473004e-20
3.2473986e-20
3.2476519e-20
3.2481581e-20
3.2520501e-20
3.2498831e-20
3.2485975e-20
3.2478623e-20
3.247473e-20
3.2473004e-20
3.247274e-20
3.2473732e-20
3.2476274e-20
3.2481342e-20
3.2521237e-20
3.2499642e-20
3.248686e-20
3.2479559e-20
3.2475695e-20
3.2473986e-20
3.2473732e-20
3.2474731e-20
3.2477278e-20
3.2482349e-20
3.2523308e-20
3.2501912e-20
3.2489265e-20
3.2482037e-20
3.247821e-20
3.2476519e-20
3.2476274e-20
3.2477278e-20
3.2479831e-20
3.2484906e-20
3.2527475e-20
3.250666e-20
3.2494209e-20
3.2487056e-20
3.2483259e-20
3.2481581e-20
3.2481342e-20
3.2482349e-20
3.2484906e-20
3.2489996e-20
6.5883965e-20
6.5841441e-20
6.581606e-20
6.580146e-20
6.5793655e-20
6.5790078e-20
6.5789268e-20
6.5790694e-20
6.5794698e-20
6.5802682e-20
6.5841441e-20
6.5799064e-20
6.5773737e-20
6.5759164e-20
6.575138e-20
6.5747833e-20
6.5747087e-20
6.5748664e-20
6.5753065e-20
6.5762211e-20
6.581606e-20
6.5773737e-20
6.5748449e-20
6.5733902e-20
6.5726143e-20
6.5722636e-20
6.5721965e-20
6.5723689e-20
6.5728361e-20
6.5737899e-20
6.580146e-20
6.5759164e-20
6.5733902e-20
6.5719378e-20
6.5711644e-20
6.5708173e-20
6.5707563e-20
6.5709388e-20
6.5714206e-20
6.5723893e-20
6.5793655e-20
6.575138e-20
6.5726143e-20
6.5711644e-20
6.5703934e-20
6.5700493e-20
6.5699924e-20
6.5701809e-20
6.57067e-20
6.5716447e-20
6.5790078e-20
6.5747833e-20
6.5722636e-20
6.5708173e-20
6.5700493e-20
6.5697077e-20
6.5696536e-20
6.5698454e-20
6.5703382e-20
6.5713154e-20
6.5789268e-20
6.5747087e-20
6.5721965e-20
6.5707563e-20
6.5699924e-20
6.5696536e-20
6.5696017e-20
6.5697955e-20
6.57029e-20
6.5712685e-20
6.5790694e-20
6.5748664e-20
6.5723689e-20
6.5709388e-20
6.5701809e-20
6.5698454e-20
6.5697955e-20
6.5699906e-20
6.5704862e-20
6.5714654e-20
6.5794698e-20
6.5753065e-20
6.5728361e-20
6.5714206e-20
6.57067e-20
6.5703382e-20
6.57029e-20
6.5704862e-20
6.5709827e-20
6.5719628e-20
6.5802682e-20
6.5762211e-20
6.5737899e-20
6.5723893e-20
6.5716447e-20
6.5713154e-20
6.5712685e-20
6.5714654e-20
6.5719628e-20
6.5729455e-20
1.3470289e-19
1.3461927e-19
1.3456918e-19
1.3454028e-19
1.3452481e-19
1.3451772e-19
1.345161e-19
1.345189e-19
1.3452672e-19
1.3454217e-19
1.3461927e-19
1.3453595e-19
1.3448595e-19
1.3445711e-19
1.3444168e-19
1.3443465e-19
1.3443316e-19
1.3443626e-19
1.3444488e-19
1.3446269e-19
1.3456918e-19
1.3448595e-19
1.3443603e-19
1.3440724e-19
1.3439187e-19
1.3438491e-19
1.3438357e-19
1.3438697e-19
1.3439614e-19
1.3441474e-19
1.3454028e-19
1.3445711e-19
1.3440724e-19
1.343785e-19
1.3436317e-19
1.3435629e-19
1.3435508e-19
1.3435868e-19
1.3436814e-19
1.3438704e-19
1.3452481e-19
1.3444168e-19
1.3439187e-19
1.3436317e-19
1.343479e-19
1.3434107e-19
1.3433994e-19
1.3434366e-19
1.3435327e-19
1.3437229e-19
1.3451772e-19
1.3443465e-19
1.3438491e-19
1.3435629e-19
1.3434107e-19
1.343343e-19
1.3433322e-19
1.3433701e-19
1.343467e-19
1.3436577e-19
1.345161e-19
1.3443316e-19
1.3438357e-19
1.3435508e-19
1.3433994e-19
1.3433322e-19
1.3433219e-19
1.3433602e-19
1.3434574e-19
1.3436484e-19
1.345189e-19
1.3443626e-19
1.3438697e-19
1.3435868e-19
1.3434366e-19
1.3433701e-19
1.3433602e-19
1.3433988e-19
1.3434962e-19
1.3436873e-19
1.3452672e-19
1.3444488e-19
1.3439614e-19
1.3436814e-19
1.3435327e-19
1.343467e-19
1.3434574e-19
1.3434962e-19
1.3435938e-19
1.343785e-19
1.3454217e-19
1.3446269e-19
1.3441474e-19
1.3438704e-19
1.3437229e-19
1.3436577e-19
1.3436484e-19
1.3436873e-19
1.343785e-19
1.3439768e-19
2.7835173e-19
2.7818565e-19
2.7808576e-19
2.7802801e-19
2.7799704e-19
2.7798282e-19
2.7797957e-19
2.779851e-19
2.7800054e-19
2.7803077e-19
2.7818565e-19
2.7802013e-19
2.7792045e-19
2.7786281e-19
2.7783192e-19
2.7781782e-19
2.7781483e-19
2.7782098e-19
2.7783806e-19
2.7787308e-19
2.7808576e-19
2.7792045e-19
2.7782091e-19
2.7776338e-19
2.7773259e-19
2.7771865e-19
2.7771597e-19
2.7772273e-19
2.7774092e-19
2.7777756e-19
2.7802801e-19
2.7786281e-19
2.7776338e-19
2.7770593e-19
2.7767525e-19
2.7766146e-19
2.7765902e-19
2.776662e-19
2.7768499e-19
2.7772224e-19
2.7799704e-19
2.7783192e-19
2.7773259e-19
2.7767525e-19
2.7764466e-19
2.7763099e-19
2.7762873e-19
2.7763615e-19
2.7765524e-19
2.7769274e-19
2.7798282e-19
2.7781782e-19
2.7771865e-19
2.7766146e-19
2.7763099e-19
2.7761743e-19
2.7761528e-19
2.7762284e-19
2.7764207e-19
2.7767968e-19
2.7797957e-19
2.7781483e-19
2.7771597e-19
2.7765902e-19
2.7762873e-19
2.7761528e-19
2.7761322e-19
2.7762086e-19
2.7764017e-19
2.7767783e-19
2.779851e-19
2.7782098e-19
2.7772273e-19
2.776662e-19
2.7763615e-19
2.7762284e-19
2.7762086e-19
2.7762855e-19
2.776479e-19
2.7768559e-19
2.7800054e-19
2.7783806e-19
2.7774092e-19
2.7768499e-19
2.7765524e-19
2.7764207e-19
2.7764017e-19
2.776479e-19
2.7766729e-19
2.7770502e-19
2.7803077e-19
2.7787308e-19
2.7777756e-19
2.7772224e-19
2.7769274e-19
2.7767968e-19
2.7767783e-19
2.7768559e-19
2.7770502e-19
2.7774284e-19
5.8133164e-19
5.8099842e-19
5.8079727e-19
5.806807e-19
5.8061808e-19
5.805893e-19
5.8058269e-19
5.8059377e-19
5.8062456e-19
5.8068431e-19
5.8099842e-19
5.8066634e-19
5.804656e-19
5.8034923e-19
5.8028679e-19
5.8025826e-19
5.8025218e-19
5.8026454e-19
5.802987e-19
5.8036834e-19
5.8079727e-19
5.804656e-19
5.8026515e-19
5.8014899e-19
5.8008676e-19
5.8005856e-19
5.8005312e-19
5.8006673e-19
5.8010318e-19
5.8017615e-19
5.806807e-19
5.8034923e-19
5.8014899e-19
5.8003303e-19
5.79971e-19
5.799431e-19
5.7993817e-19
5.7995263e-19
5.7999032e-19
5.8006456e-19
5.8061808e-19
5.8028679e-19
5.8008676e-19
5.79971e-19
5.7990917e-19
5.7988152e-19
5.7987695e-19
5.7989191e-19
5.7993022e-19
5.8000496e-19
5.805893e-19
5.8025826e-19
5.8005856e-19
5.799431e-19
5.7988152e-19
5.7985409e-19
5.7984975e-19
5.7986499e-19
5.7990361e-19
5.7997857e-19
5.8058269e-19
5.8025218e-19
5.8005312e-19
5.7993817e-19
5.7987695e-19
5.7984975e-19
5.7984559e-19
5.79861e-19
5.7989977e-19
5.7997482e-19
5.8059377e-19
5.8026454e-19
5.8006673e-19
5.7995263e-19
5.7989191e-19
5.7986499e-19
5.79861e-19
5.7987652e-19
5.7991538e-19
5.7999049e-19
5.8062456e-19
5.802987e-19
5.8010318e-19
5.7999032e-19
5.7993022e-19
5.7990361e-19
5.7989977e-19
5.7991538e-19
5.799543e-19
5.8002949e-19
5.8068431e-19
5.8036834e-19
5.8017615e-19
5.8006456e-19
5.8000496e-19
5.7997857e-19
5.7997482e-19
5.7999049e-19
5.8002949e-19
5.8010487e-19
1.2270299e-18
1.2263547e-18
1.2259455e-18
1.2257079e-18
1.22558e-18
1.2255212e-18
1.2255077e-18
1.2255301e-18
1.2255921e-18
1.2257114e-18
1.2263547e-18
1.2256817e-18
1.2252734e-18
1.2250362e-18
1.2249087e-18
1.2248504e-18
1.2248379e-18
1.224863e-18
1.2249321e-18
1.225072e-18
1.2259455e-18
1.2252734e-18
1.2248657e-18
1.2246289e-18
1.2245018e-18
1.2244442e-18
1.2244331e-18
1.2244608e-18
1.2245346e-18
1.2246814e-18
1.2257079e-18
1.2250362e-18
1.2246289e-18
1.2243925e-18
1.2242658e-18
1.2242088e-18
1.2241988e-18
1.2242282e-18
1.2243046e-18
1.2244541e-18
1.22558e-18
1.2249087e-18
1.2245018e-18
1.2242658e-18
1.2241396e-18
1.2240831e-18
1.2240738e-18
1.2241043e-18
1.224182e-18
1.2243325e-18
1.2255212e-18
1.2248504e-18
1.2244442e-18
1.2242088e-18
1.2240831e-18
1.2240271e-18
1.2240183e-18
1.2240493e-18
1.2241277e-18
1.2242786e-18
1.2255077e-18
1.2248379e-18
1.2244331e-18
1.2241988e-18
1.2240738e-18
1.2240183e-18
1.2240098e-18
1.2240412e-18
1.2241199e-18
1.224271e-18
1.2255301e-18
1.224863e-18
1.2244608e-18
1.2242282e-18
1.2241043e-18
1.2240493e-18
1.2240412e-18
1.2240729e-18
1.2241517e-18
1.224303e-18
1.2255921e-18
1.2249321e-18
1.2245346e-18
1.2243046e-18
1.224182e-18
1.2241277e-18
1.2241199e-18
1.2241517e-18
1.2242307e-18
1.2243821e-18
1.2257114e-18
1.225072e-18
1.2246814e-18
1.2244541e-18
1.2243325e-18
1.2242786e-18
1.224271e-18
1.224303e-18
1.2243821e-18
1.2245339e-18
2.6174007e-18
2.6160187e-18
2.6151783e-18
2.614689e-18
2.6144254e-18
2.614304e-18
2.614276e-18
2.6143218e-18
2.6144482e-18
2.6146889e-18
2.6160187e-18
2.6146414e-18
2.6138027e-18
2.6133142e-18
2.6130513e-18
2.612931e-18
2.6129053e-18
2.6129567e-18
2.6130979e-18
2.6133819e-18
2.6151783e-18
2.6138027e-18
2.6129652e-18
2.6124776e-18
2.6122156e-18
2.6120968e-18
2.6120738e-18
2.6121307e-18
2.6122819e-18
2.6125805e-18
2.614689e-18
2.6133142e-18
2.6124776e-18
2.6119909e-18
2.6117298e-18
2.6116122e-18
2.6115915e-18
2.6116521e-18
2.6118086e-18
2.6121128e-18
2.6144254e-18
2.6130513e-18
2.6122156e-18
2.6117298e-18
2.6114695e-18
2.6113531e-18
2.6113339e-18
2.6113967e-18
2.6115559e-18
2.6118623e-18
2.614304e-18
2.612931e-18
2.6120968e-18
2.6116122e-18
2.6113531e-18
2.6112375e-18
2.6112194e-18
2.6112834e-18
2.611444e-18
2.6117513e-18
2.614276e-18
2.6129053e-18
2.6120738e-18
2.6115915e-18
2.6113339e-18
2.6112194e-18
2.611202e-18
2.6112667e-18
2.611428e-18
2.6117357e-18
2.6143218e-18
2.6129567e-18
2.6121307e-18
2.6116521e-18
2.6113967e-18
2.6112834e-18
2.6112667e-18
2.611332e-18
2.6114936e-18
2.6118016e-18
2.6144482e-18
2.6130979e-18
2.6122819e-18
2.6118086e-18
2.6115559e-18
2.611444e-18
2.611428e-18
2.6114936e-18
2.6116555e-18
2.6119638e-18
2.6146889e-18
2.6133819e-18
2.6125805e-18
2.6121128e-18
2.6118623e-18
2.6117513e-18
2.6117357e-18
2.6118016e-18
2.6119638e-18
2.6122728e-18
5.6421696e-18