/*--------------------------------*- C++ -*----------------------------------*\
| =========                 |                                                 |
| \\      /  F ield         | OpenFOAM: The Open Source CFD Toolbox           |
|  \\    /   O peration     | Version:  dev                                   |
|   \\  /    A nd           | Web:      www.OpenFOAM.org                      |
|    \\/     M anipulation  |                                                 |
\*---------------------------------------------------------------------------*/
FoamFile
{
    version     2.0;
    format      ascii;
    class       volScalarField;
    location    "61.995";
    object      A;
}
// * * * * * * * * * * * * * * * * * * * * * * * * * * * * * * * * * * * * * //

dimensions      [0 0 0 0 1 0 0];

internalField   nonuniform List<scalar> 
10000
(
8.0713113e-29
8.0582588e-29
8.0519662e-29
8.0490148e-29
8.0477577e-29
8.0473129e-29
8.047288e-29
8.0476234e-29
8.0485563e-29
8.0506222e-29
8.0582588e-29
8.0452669e-29
8.038995e-29
8.0360519e-29
8.034799e-29
8.0343585e-29
8.0343432e-29
8.0347046e-29
8.0357115e-29
8.0379974e-29
8.0519662e-29
8.038995e-29
8.0327343e-29
8.0297968e-29
8.0285473e-29
8.0281114e-29
8.0281063e-29
8.0284912e-29
8.0295459e-29
8.0319047e-29
8.0490148e-29
8.0360519e-29
8.0297968e-29
8.0268625e-29
8.0256154e-29
8.0251829e-29
8.0251847e-29
8.0255835e-29
8.0266614e-29
8.0290456e-29
8.0477577e-29
8.034799e-29
8.0285473e-29
8.0256154e-29
8.0243701e-29
8.0239396e-29
8.0239451e-29
8.0243507e-29
8.0254384e-29
8.0278314e-29
8.0473129e-29
8.0343585e-29
8.0281114e-29
8.0251829e-29
8.0239396e-29
8.0235108e-29
8.0235182e-29
8.0239267e-29
8.0250181e-29
8.0274142e-29
8.047288e-29
8.0343432e-29
8.0281063e-29
8.0251847e-29
8.0239451e-29
8.0235182e-29
8.0235268e-29
8.0239366e-29
8.0250295e-29
8.0274268e-29
8.0476234e-29
8.0347046e-29
8.0284912e-29
8.0255835e-29
8.0243507e-29
8.0239267e-29
8.0239366e-29
8.0243472e-29
8.025441e-29
8.0278391e-29
8.0485563e-29
8.0357115e-29
8.0295459e-29
8.0266614e-29
8.0254384e-29
8.0250181e-29
8.0250295e-29
8.025441e-29
8.0265361e-29
8.0289363e-29
8.0506222e-29
8.0379974e-29
8.0319047e-29
8.0290456e-29
8.0278314e-29
8.0274142e-29
8.0274268e-29
8.0278391e-29
8.0289363e-29
8.0313434e-29
2.8017799e-28
2.7974172e-28
2.7952594e-28
2.7942451e-28
2.7938128e-28
2.7936598e-28
2.793651e-28
2.7937658e-28
2.7940857e-28
2.7948214e-28
2.7974172e-28
2.7930742e-28
2.7909234e-28
2.7899119e-28
2.789481e-28
2.7893294e-28
2.789324e-28
2.7894478e-28
2.7897934e-28
2.7906057e-28
2.7952594e-28
2.7909234e-28
2.7887763e-28
2.7877668e-28
2.7873371e-28
2.7871871e-28
2.7871852e-28
2.7873171e-28
2.7876792e-28
2.7885168e-28
2.7942451e-28
2.7899119e-28
2.7877668e-28
2.7867584e-28
2.7863295e-28
2.7861807e-28
2.7861811e-28
2.7863179e-28
2.786688e-28
2.7875344e-28
2.7938128e-28
2.789481e-28
2.7873371e-28
2.7863295e-28
2.7859012e-28
2.7857531e-28
2.7857549e-28
2.785894e-28
2.7862675e-28
2.7871169e-28
2.7936598e-28
2.7893294e-28
2.7871871e-28
2.7861807e-28
2.7857531e-28
2.7856055e-28
2.785608e-28
2.7857481e-28
2.7861229e-28
2.7869734e-28
2.793651e-28
2.789324e-28
2.7871852e-28
2.7861811e-28
2.7857549e-28
2.785608e-28
2.7856108e-28
2.7857514e-28
2.7861267e-28
2.7869776e-28
2.7937658e-28
2.7894478e-28
2.7873171e-28
2.7863179e-28
2.785894e-28
2.7857481e-28
2.7857514e-28
2.7858922e-28
2.7862678e-28
2.787119e-28
2.7940857e-28
2.7897934e-28
2.7876792e-28
2.786688e-28
2.7862675e-28
2.7861229e-28
2.7861267e-28
2.7862678e-28
2.7866439e-28
2.7874958e-28
2.7948214e-28
2.7906057e-28
2.7885168e-28
2.7875344e-28
2.7871169e-28
2.7869734e-28
2.7869776e-28
2.787119e-28
2.7874958e-28
2.7883503e-28
6.1563578e-28
6.147079e-28
6.1424345e-28
6.1402458e-28
6.1393119e-28
6.1389808e-28
6.1389613e-28
6.1392071e-28
6.139893e-28
6.1415181e-28
6.147079e-28
6.1378418e-28
6.133212e-28
6.1310292e-28
6.1300982e-28
6.1297704e-28
6.1297581e-28
6.1300237e-28
6.1307657e-28
6.1325589e-28
6.1424345e-28
6.133212e-28
6.1285903e-28
6.1264117e-28
6.1254832e-28
6.1251589e-28
6.1251543e-28
6.1254377e-28
6.1262158e-28
6.1280642e-28
6.1402458e-28
6.1310292e-28
6.1264117e-28
6.1242354e-28
6.1233088e-28
6.122987e-28
6.1229876e-28
6.1232815e-28
6.1240772e-28
6.1259448e-28
6.1393119e-28
6.1300982e-28
6.1254832e-28
6.1233088e-28
6.1223835e-28
6.1220632e-28
6.1220666e-28
6.1223656e-28
6.1231688e-28
6.125043e-28
6.1389808e-28
6.1297704e-28
6.1251589e-28
6.122987e-28
6.1220632e-28
6.1217442e-28
6.121749e-28
6.1220502e-28
6.1228562e-28
6.1247327e-28
6.1389613e-28
6.1297581e-28
6.1251543e-28
6.1229876e-28
6.1220666e-28
6.121749e-28
6.1217548e-28
6.1220569e-28
6.122864e-28
6.1247415e-28
6.1392071e-28
6.1300237e-28
6.1254377e-28
6.1232815e-28
6.1223656e-28
6.1220502e-28
6.1220569e-28
6.1223597e-28
6.1231675e-28
6.1250456e-28
6.139893e-28
6.1307657e-28
6.1262158e-28
6.1240772e-28
6.1231688e-28
6.1228562e-28
6.122864e-28
6.1231675e-28
6.1239761e-28
6.1258558e-28
6.1415181e-28
6.1325589e-28
6.1280642e-28
6.1259448e-28
6.125043e-28
6.1247327e-28
6.1247415e-28
6.1250456e-28
6.1258558e-28
6.1277413e-28
1.2589112e-27
1.2570742e-27
1.2561483e-27
1.2557108e-27
1.2555239e-27
1.2554575e-27
1.2554535e-27
1.2555021e-27
1.2556377e-27
1.2559609e-27
1.2570742e-27
1.2552453e-27
1.2543222e-27
1.253886e-27
1.2536996e-27
1.2536339e-27
1.2536313e-27
1.253684e-27
1.2538309e-27
1.2541884e-27
1.2561483e-27
1.2543222e-27
1.2534008e-27
1.2529654e-27
1.2527795e-27
1.2527145e-27
1.2527135e-27
1.2527698e-27
1.2529241e-27
1.2532928e-27
1.2557108e-27
1.253886e-27
1.2529654e-27
1.2525304e-27
1.2523449e-27
1.2522804e-27
1.2522804e-27
1.2523388e-27
1.2524967e-27
1.2528693e-27
1.2555239e-27
1.2536996e-27
1.2527795e-27
1.2523449e-27
1.2521597e-27
1.2520955e-27
1.2520961e-27
1.2521556e-27
1.2523149e-27
1.2526889e-27
1.2554575e-27
1.2536339e-27
1.2527145e-27
1.2522804e-27
1.2520955e-27
1.2520316e-27
1.2520325e-27
1.2520924e-27
1.2522523e-27
1.2526268e-27
1.2554535e-27
1.2536313e-27
1.2527135e-27
1.2522804e-27
1.2520961e-27
1.2520325e-27
1.2520335e-27
1.2520936e-27
1.2522538e-27
1.2526284e-27
1.2555021e-27
1.253684e-27
1.2527698e-27
1.2523388e-27
1.2521556e-27
1.2520924e-27
1.2520936e-27
1.2521538e-27
1.2523142e-27
1.2526889e-27
1.2556377e-27
1.2538309e-27
1.2529241e-27
1.2524967e-27
1.2523149e-27
1.2522523e-27
1.2522538e-27
1.2523142e-27
1.2524746e-27
1.2528497e-27
1.2559609e-27
1.2541884e-27
1.2532928e-27
1.2528693e-27
1.2526889e-27
1.2526268e-27
1.2526284e-27
1.2526889e-27
1.2528497e-27
1.2532259e-27
2.5534888e-27
2.5498823e-27
2.5480557e-27
2.5471905e-27
2.5468203e-27
2.5466887e-27
2.5466803e-27
2.5467755e-27
2.5470398e-27
2.5476678e-27
2.5498823e-27
2.5462916e-27
2.5444706e-27
2.5436077e-27
2.5432386e-27
2.5431083e-27
2.5431029e-27
2.5432062e-27
2.5434935e-27
2.5441907e-27
2.5480557e-27
2.5444706e-27
2.5426527e-27
2.5417914e-27
2.5414234e-27
2.5412945e-27
2.5412921e-27
2.5414027e-27
2.5417048e-27
2.5424246e-27
2.5471905e-27
2.5436077e-27
2.5417914e-27
2.5409311e-27
2.5405637e-27
2.5404359e-27
2.5404356e-27
2.5405505e-27
2.5408598e-27
2.5415875e-27
2.5468203e-27
2.5432386e-27
2.5414234e-27
2.5405637e-27
2.5401969e-27
2.5400697e-27
2.5400706e-27
2.5401875e-27
2.5404999e-27
2.5412303e-27
2.5466887e-27
2.5431083e-27
2.5412945e-27
2.5404359e-27
2.5400697e-27
2.5399429e-27
2.5399444e-27
2.5400622e-27
2.5403757e-27
2.5411071e-27
2.5466803e-27
2.5431029e-27
2.5412921e-27
2.5404356e-27
2.5400706e-27
2.5399444e-27
2.5399463e-27
2.5400645e-27
2.5403785e-27
2.5411102e-27
2.5467755e-27
2.5432062e-27
2.5414027e-27
2.5405505e-27
2.5401875e-27
2.5400622e-27
2.5400645e-27
2.540183e-27
2.5404972e-27
2.5412292e-27
2.5470398e-27
2.5434935e-27
2.5417048e-27
2.5408598e-27
2.5404999e-27
2.5403757e-27
2.5403785e-27
2.5404972e-27
2.5408118e-27
2.5415444e-27
2.5476678e-27
2.5441907e-27
2.5424246e-27
2.5415875e-27
2.5412303e-27
2.5411071e-27
2.5411102e-27
2.5412292e-27
2.5415444e-27
2.5422792e-27
5.2155147e-27
5.2083879e-27
5.2047632e-27
5.2030424e-27
5.2023049e-27
5.2020424e-27
5.2020249e-27
5.2022122e-27
5.2027298e-27
5.2039513e-27
5.2083879e-27
5.2012919e-27
5.1976782e-27
5.1959619e-27
5.1952266e-27
5.1949667e-27
5.1949552e-27
5.1951589e-27
5.1957233e-27
5.1970852e-27
5.2047632e-27
5.1976782e-27
5.1940708e-27
5.1923575e-27
5.1916242e-27
5.1913671e-27
5.191362e-27
5.1915804e-27
5.1921748e-27
5.1935827e-27
5.2030424e-27
5.1959619e-27
5.1923575e-27
5.1906461e-27
5.1899143e-27
5.1896593e-27
5.1896584e-27
5.1898855e-27
5.1904944e-27
5.1919183e-27
5.2023049e-27
5.1952266e-27
5.1916242e-27
5.1899143e-27
5.1891835e-27
5.1889298e-27
5.1889312e-27
5.1891625e-27
5.1897776e-27
5.1912071e-27
5.2020424e-27
5.1949667e-27
5.1913671e-27
5.1896593e-27
5.1889298e-27
5.188677e-27
5.1886796e-27
5.1889127e-27
5.1895302e-27
5.1909615e-27
5.2020249e-27
5.1949552e-27
5.191362e-27
5.1896584e-27
5.1889312e-27
5.1886796e-27
5.188683e-27
5.1889169e-27
5.1895353e-27
5.1909674e-27
5.2022122e-27
5.1951589e-27
5.1915804e-27
5.1898855e-27
5.1891625e-27
5.1889127e-27
5.1889169e-27
5.1891513e-27
5.1897702e-27
5.1912028e-27
5.2027298e-27
5.1957233e-27
5.1921748e-27
5.1904944e-27
5.1897776e-27
5.1895302e-27
5.1895353e-27
5.1897702e-27
5.1903897e-27
5.1918235e-27
5.2039513e-27
5.1970852e-27
5.1935827e-27
5.1919183e-27
5.1912071e-27
5.1909615e-27
5.1909674e-27
5.1912028e-27
5.1918235e-27
5.1932616e-27
1.0768011e-26
1.0753781e-26
1.0746515e-26
1.0743058e-26
1.0741574e-26
1.0741045e-26
1.0741009e-26
1.0741381e-26
1.0742405e-26
1.0744801e-26
1.0753781e-26
1.0739612e-26
1.0732368e-26
1.072892e-26
1.072744e-26
1.0726916e-26
1.0726892e-26
1.0727298e-26
1.0728417e-26
1.0731102e-26
1.0746515e-26
1.0732368e-26
1.0725137e-26
1.0721694e-26
1.0720219e-26
1.0719701e-26
1.071969e-26
1.0720125e-26
1.0721307e-26
1.0724085e-26
1.0743058e-26
1.072892e-26
1.0721694e-26
1.0718256e-26
1.0716783e-26
1.0716269e-26
1.0716267e-26
1.071672e-26
1.0717931e-26
1.0720743e-26
1.0741574e-26
1.072744e-26
1.0720219e-26
1.0716783e-26
1.0715313e-26
1.0714802e-26
1.0714804e-26
1.0715266e-26
1.0716489e-26
1.0719312e-26
1.0741045e-26
1.0726916e-26
1.0719701e-26
1.0716269e-26
1.0714802e-26
1.0714293e-26
1.0714297e-26
1.0714763e-26
1.0715991e-26
1.0718818e-26
1.0741009e-26
1.0726892e-26
1.071969e-26
1.0716267e-26
1.0714804e-26
1.0714297e-26
1.0714303e-26
1.0714771e-26
1.0716001e-26
1.0718829e-26
1.0741381e-26
1.0727298e-26
1.0720125e-26
1.071672e-26
1.0715266e-26
1.0714763e-26
1.0714771e-26
1.0715239e-26
1.071647e-26
1.0719299e-26
1.0742405e-26
1.0728417e-26
1.0721307e-26
1.0717931e-26
1.0716489e-26
1.0715991e-26
1.0716001e-26
1.071647e-26
1.0717703e-26
1.0720534e-26
1.0744801e-26
1.0731102e-26
1.0724085e-26
1.0720743e-26
1.0719312e-26
1.0718818e-26
1.0718829e-26
1.0719299e-26
1.0720534e-26
1.0723374e-26
2.2494601e-26
2.2465865e-26
2.2451137e-26
2.2444113e-26
2.2441094e-26
2.2440016e-26
2.2439939e-26
2.2440687e-26
2.2442735e-26
2.2447486e-26
2.2465865e-26
2.243725e-26
2.2422566e-26
2.241556e-26
2.2412549e-26
2.2411482e-26
2.2411431e-26
2.2412248e-26
2.2414495e-26
2.2419844e-26
2.2451137e-26
2.2422566e-26
2.2407907e-26
2.2400913e-26
2.2397911e-26
2.2396856e-26
2.2396831e-26
2.239771e-26
2.2400084e-26
2.2405629e-26
2.2444113e-26
2.241556e-26
2.2400913e-26
2.2393926e-26
2.239093e-26
2.2389884e-26
2.2389877e-26
2.2390793e-26
2.2393229e-26
2.2398841e-26
2.2441094e-26
2.2412549e-26
2.2397911e-26
2.239093e-26
2.2387938e-26
2.2386897e-26
2.23869e-26
2.2387834e-26
2.2390296e-26
2.2395932e-26
2.2440016e-26
2.2411482e-26
2.2396856e-26
2.2389884e-26
2.2386897e-26
2.238586e-26
2.2385868e-26
2.238681e-26
2.2389282e-26
2.2394926e-26
2.2439939e-26
2.2411431e-26
2.2396831e-26
2.2389877e-26
2.23869e-26
2.2385868e-26
2.2385879e-26
2.2386825e-26
2.23893e-26
2.2394947e-26
2.2440687e-26
2.2412248e-26
2.239771e-26
2.2390793e-26
2.2387834e-26
2.238681e-26
2.2386825e-26
2.2387772e-26
2.2390249e-26
2.2395899e-26
2.2442735e-26
2.2414495e-26
2.2400084e-26
2.2393229e-26
2.2390296e-26
2.2389282e-26
2.23893e-26
2.2390249e-26
2.239273e-26
2.2398383e-26
2.2447486e-26
2.2419844e-26
2.2405629e-26
2.2398841e-26
2.2395932e-26
2.2394926e-26
2.2394947e-26
2.2395899e-26
2.2398383e-26
2.2404054e-26
4.756108e-26
4.7502372e-26
4.7472173e-26
4.7457736e-26
4.7451522e-26
4.7449301e-26
4.7449137e-26
4.7450658e-26
4.7454803e-26
4.7464331e-26
4.7502372e-26
4.744391e-26
4.7413798e-26
4.7399397e-26
4.7393201e-26
4.7391002e-26
4.7390891e-26
4.7392558e-26
4.739712e-26
4.7407905e-26
4.7472173e-26
4.7413798e-26
4.7383736e-26
4.7369361e-26
4.7363182e-26
4.7361008e-26
4.7360953e-26
4.736275e-26
4.7367578e-26
4.7378774e-26
4.7457736e-26
4.7399397e-26
4.7369361e-26
4.7355001e-26
4.7348834e-26
4.7346678e-26
4.7346661e-26
4.7348535e-26
4.7353492e-26
4.736483e-26
4.7451522e-26
4.7393201e-26
4.7363182e-26
4.7348834e-26
4.7342676e-26
4.7340532e-26
4.7340535e-26
4.7342446e-26
4.7347458e-26
4.7358846e-26
4.7449301e-26
4.7391002e-26
4.7361008e-26
4.7346678e-26
4.7340532e-26
4.7338396e-26
4.733841e-26
4.7340337e-26
4.7345369e-26
4.7356774e-26
4.7449137e-26
4.7390891e-26
4.7360953e-26
4.7346661e-26
4.7340535e-26
4.733841e-26
4.733843e-26
4.7340364e-26
4.7345405e-26
4.7356816e-26
4.7450658e-26
4.7392558e-26
4.736275e-26
4.7348535e-26
4.7342446e-26
4.7340337e-26
4.7340364e-26
4.7342303e-26
4.7347348e-26
4.7358763e-26
4.7454803e-26
4.739712e-26
4.7367578e-26
4.7353492e-26
4.7347458e-26
4.7345369e-26
4.7345405e-26
4.7347348e-26
4.7352398e-26
4.7363822e-26
4.7464331e-26
4.7407905e-26
4.7378774e-26
4.736483e-26
4.7358846e-26
4.7356774e-26
4.7356816e-26
4.7358763e-26
4.7363822e-26
4.7375279e-26
1.0179035e-25
1.01669e-25
1.0160635e-25
1.0157633e-25
1.0156339e-25
1.0155876e-25
1.0155841e-25
1.0156154e-25
1.0157003e-25
1.0158937e-25
1.01669e-25
1.0154815e-25
1.0148568e-25
1.0145573e-25
1.0144283e-25
1.0143825e-25
1.0143801e-25
1.0144144e-25
1.0145082e-25
1.0147283e-25
1.0160635e-25
1.0148568e-25
1.0142331e-25
1.0139341e-25
1.0138055e-25
1.0137601e-25
1.0137589e-25
1.0137961e-25
1.0138955e-25
1.0141243e-25
1.0157633e-25
1.0145573e-25
1.0139341e-25
1.0136355e-25
1.0135071e-25
1.0134622e-25
1.0134618e-25
1.0135006e-25
1.0136027e-25
1.0138345e-25
1.0156339e-25
1.0144283e-25
1.0138055e-25
1.0135071e-25
1.0133789e-25
1.0133342e-25
1.0133342e-25
1.0133738e-25
1.0134771e-25
1.0137099e-25
1.0155876e-25
1.0143825e-25
1.0137601e-25
1.0134622e-25
1.0133342e-25
1.0132897e-25
1.0132899e-25
1.0133298e-25
1.0134336e-25
1.0136668e-25
1.0155841e-25
1.0143801e-25
1.0137589e-25
1.0134618e-25
1.0133342e-25
1.0132899e-25
1.0132903e-25
1.0133304e-25
1.0134343e-25
1.0136676e-25
1.0156154e-25
1.0144144e-25
1.0137961e-25
1.0135006e-25
1.0133738e-25
1.0133298e-25
1.0133304e-25
1.0133705e-25
1.0134745e-25
1.013708e-25
1.0157003e-25
1.0145082e-25
1.0138955e-25
1.0136027e-25
1.0134771e-25
1.0134336e-25
1.0134343e-25
1.0134745e-25
1.0135786e-25
1.0138122e-25
1.0158937e-25
1.0147283e-25
1.0141243e-25
1.0138345e-25
1.0137099e-25
1.0136668e-25
1.0136676e-25
1.013708e-25
1.0138122e-25
1.0140465e-25
2.2053315e-25
2.2027933e-25
2.2014782e-25
2.2008467e-25
2.2005741e-25
2.2004764e-25
2.2004688e-25
2.200534e-25
2.20071e-25
2.2011072e-25
2.2027933e-25
2.2002655e-25
2.1989541e-25
2.1983242e-25
2.1980523e-25
2.1979557e-25
2.1979505e-25
2.1980223e-25
2.1982172e-25
2.1986718e-25
2.2014782e-25
2.1989541e-25
2.1976448e-25
2.197016e-25
2.1967449e-25
2.1966493e-25
2.1966467e-25
2.1967244e-25
2.1969315e-25
2.1974048e-25
2.2008467e-25
2.1983242e-25
2.197016e-25
2.1963878e-25
2.1961172e-25
2.1960225e-25
2.1960215e-25
2.1961028e-25
2.1963157e-25
2.1967955e-25
2.2005741e-25
2.1980523e-25
2.1967449e-25
2.1961172e-25
2.1958471e-25
2.1957529e-25
2.1957529e-25
2.1958358e-25
2.1960512e-25
2.1965332e-25
2.2004764e-25
2.1979557e-25
2.1966493e-25
2.1960225e-25
2.1957529e-25
2.1956591e-25
2.1956595e-25
2.1957431e-25
2.1959595e-25
2.1964423e-25
2.2004688e-25
2.1979505e-25
2.1966467e-25
2.1960215e-25
2.1957529e-25
2.1956595e-25
2.1956603e-25
2.1957442e-25
2.1959609e-25
2.196444e-25
2.200534e-25
2.1980223e-25
2.1967244e-25
2.1961028e-25
2.1958358e-25
2.1957431e-25
2.1957442e-25
2.1958284e-25
2.1960453e-25
2.1965286e-25
2.20071e-25
2.1982172e-25
2.1969315e-25
2.1963157e-25
2.1960512e-25
2.1959595e-25
2.1959609e-25
2.1960453e-25
2.1962624e-25
2.1967461e-25
2.2011072e-25
2.1986718e-25
2.1974048e-25
2.1967955e-25
2.1965332e-25
2.1964423e-25
2.196444e-25
2.1965286e-25
2.1967461e-25
2.1972311e-25
4.8370106e-25
4.8316387e-25
4.8288455e-25
4.8275014e-25
4.8269204e-25
4.826712e-25
4.8266953e-25
4.8268328e-25
4.827202e-25
4.8280277e-25
4.8316387e-25
4.8262887e-25
4.8235033e-25
4.8221623e-25
4.821583e-25
4.8213767e-25
4.8213653e-25
4.8215171e-25
4.8219275e-25
4.822878e-25
4.8288455e-25
4.8235033e-25
4.8207223e-25
4.8193837e-25
4.8188059e-25
4.818602e-25
4.8185961e-25
4.8187608e-25
4.8191976e-25
4.8201886e-25
4.8275014e-25
4.8221623e-25
4.8193837e-25
4.8180465e-25
4.8174699e-25
4.8172678e-25
4.8172656e-25
4.8174378e-25
4.8178873e-25
4.8188924e-25
4.8269204e-25
4.821583e-25
4.8188059e-25
4.8174699e-25
4.8168942e-25
4.8166931e-25
4.816693e-25
4.8168689e-25
4.8173237e-25
4.8183338e-25
4.826712e-25
4.8213767e-25
4.818602e-25
4.8172678e-25
4.8166931e-25
4.816493e-25
4.8164938e-25
4.8166713e-25
4.8171282e-25
4.8181399e-25
4.8266953e-25
4.8213653e-25
4.8185961e-25
4.8172656e-25
4.816693e-25
4.8164938e-25
4.8164953e-25
4.8166735e-25
4.8171311e-25
4.8181435e-25
4.8268328e-25
4.8215171e-25
4.8187608e-25
4.8174378e-25
4.8168689e-25
4.8166713e-25
4.8166735e-25
4.8168521e-25
4.8173101e-25
4.8183229e-25
4.827202e-25
4.8219275e-25
4.8191976e-25
4.8178873e-25
4.8173237e-25
4.8171282e-25
4.8171311e-25
4.8173101e-25
4.8177687e-25
4.8187822e-25
4.8280277e-25
4.822878e-25
4.8201886e-25
4.8188924e-25
4.8183338e-25
4.8181399e-25
4.8181435e-25
4.8183229e-25
4.8187822e-25
4.8197985e-25
1.0740762e-24
1.0729258e-24
1.0723255e-24
1.072036e-24
1.0719107e-24
1.0718657e-24
1.071862e-24
1.0718914e-24
1.0719698e-24
1.0721435e-24
1.0729258e-24
1.07178e-24
1.0711813e-24
1.0708925e-24
1.0707676e-24
1.0707231e-24
1.0707205e-24
1.070753e-24
1.0708405e-24
1.0710416e-24
1.0723255e-24
1.0711813e-24
1.0705837e-24
1.0702953e-24
1.0701707e-24
1.0701267e-24
1.0701254e-24
1.0701607e-24
1.070254e-24
1.0704641e-24
1.072036e-24
1.0708925e-24
1.0702953e-24
1.0700073e-24
1.069883e-24
1.0698393e-24
1.0698388e-24
1.0698758e-24
1.0699719e-24
1.0701851e-24
1.0719107e-24
1.0707676e-24
1.0701707e-24
1.069883e-24
1.0697588e-24
1.0697154e-24
1.0697154e-24
1.0697531e-24
1.0698504e-24
1.0700646e-24
1.0718657e-24
1.0707231e-24
1.0701267e-24
1.0698393e-24
1.0697154e-24
1.0696722e-24
1.0696724e-24
1.0697105e-24
1.0698082e-24
1.0700228e-24
1.071862e-24
1.0707205e-24
1.0701254e-24
1.0698388e-24
1.0697154e-24
1.0696724e-24
1.0696727e-24
1.069711e-24
1.0698088e-24
1.0700236e-24
1.0718914e-24
1.070753e-24
1.0701607e-24
1.0698758e-24
1.0697531e-24
1.0697105e-24
1.069711e-24
1.0697493e-24
1.0698473e-24
1.0700621e-24
1.0719698e-24
1.0708405e-24
1.070254e-24
1.0699719e-24
1.0698504e-24
1.0698082e-24
1.0698088e-24
1.0698473e-24
1.0699453e-24
1.0701603e-24
1.0721435e-24
1.0710416e-24
1.0704641e-24
1.0701851e-24
1.0700646e-24
1.0700228e-24
1.0700236e-24
1.0700621e-24
1.0701603e-24
1.0703759e-24
2.4146988e-24
2.4122056e-24
2.4109002e-24
2.4102693e-24
2.4099959e-24
2.4098976e-24
2.4098894e-24
2.4099528e-24
2.4101214e-24
2.4104912e-24
2.4122056e-24
2.4097223e-24
2.4084204e-24
2.407791e-24
2.4075184e-24
2.4074211e-24
2.4074155e-24
2.4074859e-24
2.4076746e-24
2.4081056e-24
2.4109002e-24
2.4084204e-24
2.4071206e-24
2.4064923e-24
2.4062204e-24
2.4061243e-24
2.4061213e-24
2.406198e-24
2.4063995e-24
2.4068504e-24
2.4102693e-24
2.407791e-24
2.4064923e-24
2.4058646e-24
2.4055933e-24
2.405498e-24
2.4054968e-24
2.4055772e-24
2.405785e-24
2.4062428e-24
2.4099959e-24
2.4075184e-24
2.4062204e-24
2.4055933e-24
2.4053223e-24
2.4052276e-24
2.4052274e-24
2.4053096e-24
2.40552e-24
2.4059801e-24
2.4098976e-24
2.4074211e-24
2.4061243e-24
2.405498e-24
2.4052276e-24
2.4051333e-24
2.4051336e-24
2.4052165e-24
2.4054279e-24
2.4058889e-24
2.4098894e-24
2.4074155e-24
2.4061213e-24
2.4054968e-24
2.4052274e-24
2.4051336e-24
2.4051343e-24
2.4052175e-24
2.4054293e-24
2.4058906e-24
2.4099528e-24
2.4074859e-24
2.406198e-24
2.4055772e-24
2.4053096e-24
2.4052165e-24
2.4052175e-24
2.405301e-24
2.4055129e-24
2.4059744e-24
2.4101214e-24
2.4076746e-24
2.4063995e-24
2.405785e-24
2.40552e-24
2.4054279e-24
2.4054293e-24
2.4055129e-24
2.4057251e-24
2.4061869e-24
2.4104912e-24
2.4081056e-24
2.4068504e-24
2.4062428e-24
2.4059801e-24
2.4058889e-24
2.4058906e-24
2.4059744e-24
2.4061869e-24
2.40665e-24
5.4963101e-24
5.4908423e-24
5.4879698e-24
5.4865788e-24
5.4859751e-24
5.4857579e-24
5.4857395e-24
5.4858781e-24
5.4862449e-24
5.4870421e-24
5.4908423e-24
5.4853962e-24
5.4825314e-24
5.4811435e-24
5.4805415e-24
5.4803265e-24
5.4803138e-24
5.4804683e-24
5.4808804e-24
5.4818153e-24
5.4879698e-24
5.4825314e-24
5.479671e-24
5.4782854e-24
5.4776851e-24
5.4774727e-24
5.477466e-24
5.4776346e-24
5.4780756e-24
5.4790553e-24
5.4865788e-24
5.4811435e-24
5.4782854e-24
5.4769013e-24
5.4763022e-24
5.4760918e-24
5.4760891e-24
5.476266e-24
5.476721e-24
5.4777162e-24
5.4859751e-24
5.4805415e-24
5.4776851e-24
5.4763022e-24
5.475704e-24
5.4754948e-24
5.4754944e-24
5.4756752e-24
5.4761361e-24
5.4771367e-24
5.4857579e-24
5.4803265e-24
5.4774727e-24
5.4760918e-24
5.4754948e-24
5.4752865e-24
5.4752872e-24
5.4754697e-24
5.4759328e-24
5.4769353e-24
5.4857395e-24
5.4803138e-24
5.477466e-24
5.4760891e-24
5.4754944e-24
5.4752872e-24
5.4752886e-24
5.4754719e-24
5.4759359e-24
5.476939e-24
5.4858781e-24
5.4804683e-24
5.4776346e-24
5.476266e-24
5.4756752e-24
5.4754697e-24
5.4754719e-24
5.4756556e-24
5.4761201e-24
5.4771236e-24
5.4862449e-24
5.4808804e-24
5.4780756e-24
5.476721e-24
5.4761361e-24
5.4759328e-24
5.4759359e-24
5.4761201e-24
5.476585e-24
5.4775892e-24
5.4870421e-24
5.4818153e-24
5.4790553e-24
5.4777162e-24
5.4771367e-24
5.4769353e-24
5.476939e-24
5.4771236e-24
5.4775892e-24
5.4785961e-24
1.2666775e-23
1.265464e-23
1.2648245e-23
1.2645141e-23
1.2643792e-23
1.2643306e-23
1.2643265e-23
1.2643572e-23
1.264438e-23
1.2646119e-23
1.265464e-23
1.2642554e-23
1.2636175e-23
1.2633078e-23
1.2631733e-23
1.2631253e-23
1.2631224e-23
1.2631567e-23
1.2632478e-23
1.2634531e-23
1.2648245e-23
1.2636175e-23
1.2629805e-23
1.2626714e-23
1.2625373e-23
1.2624898e-23
1.2624883e-23
1.2625258e-23
1.2626235e-23
1.262839e-23
1.2645141e-23
1.2633078e-23
1.2626714e-23
1.2623626e-23
1.2622287e-23
1.2621817e-23
1.2621811e-23
1.2622205e-23
1.2623214e-23
1.2625404e-23
1.2643792e-23
1.2631733e-23
1.2625373e-23
1.2622287e-23
1.2620951e-23
1.2620483e-23
1.2620482e-23
1.2620885e-23
1.2621908e-23
1.262411e-23
1.2643306e-23
1.2631253e-23
1.2624898e-23
1.2621817e-23
1.2620483e-23
1.2620018e-23
1.2620019e-23
1.2620426e-23
1.2621454e-23
1.2623661e-23
1.2643265e-23
1.2631224e-23
1.2624883e-23
1.2621811e-23
1.2620482e-23
1.2620019e-23
1.2620023e-23
1.2620431e-23
1.262146e-23
1.2623669e-23
1.2643572e-23
1.2631567e-23
1.2625258e-23
1.2622205e-23
1.2620885e-23
1.2620426e-23
1.2620431e-23
1.2620841e-23
1.2621871e-23
1.2624081e-23
1.264438e-23
1.2632478e-23
1.2626235e-23
1.2623214e-23
1.2621908e-23
1.2621454e-23
1.262146e-23
1.2621871e-23
1.2622902e-23
1.2625113e-23
1.2646119e-23
1.2634531e-23
1.262839e-23
1.2625404e-23
1.262411e-23
1.2623661e-23
1.2623669e-23
1.2624081e-23
1.2625113e-23
1.262733e-23
2.9556216e-23
2.9528966e-23
2.9514556e-23
2.950755e-23
2.9504501e-23
2.9503402e-23
2.9503306e-23
2.9503995e-23
2.9505796e-23
2.9509637e-23
2.9528966e-23
2.9501823e-23
2.948745e-23
2.9480459e-23
2.9477419e-23
2.9476332e-23
2.9476266e-23
2.9477037e-23
2.9479077e-23
2.9483642e-23
2.9514556e-23
2.948745e-23
2.9473099e-23
2.946612e-23
2.9463088e-23
2.9462014e-23
2.946198e-23
2.9462825e-23
2.9465016e-23
2.9469817e-23
2.950755e-23
2.9480459e-23
2.946612e-23
2.9459147e-23
2.9456122e-23
2.9455058e-23
2.9455045e-23
2.9455933e-23
2.9458198e-23
2.946308e-23
2.9504501e-23
2.9477419e-23
2.9463088e-23
2.9456122e-23
2.9453102e-23
2.9452044e-23
2.9452042e-23
2.9452952e-23
2.9455247e-23
2.9460157e-23
2.9503402e-23
2.9476332e-23
2.9462014e-23
2.9455058e-23
2.9452044e-23
2.9450991e-23
2.9450995e-23
2.9451914e-23
2.9454221e-23
2.9459141e-23
2.9503306e-23
2.9476266e-23
2.946198e-23
2.9455045e-23
2.9452042e-23
2.9450995e-23
2.9451003e-23
2.9451925e-23
2.9454237e-23
2.945916e-23
2.9503995e-23
2.9477037e-23
2.9462825e-23
2.9455933e-23
2.9452952e-23
2.9451914e-23
2.9451925e-23
2.945285e-23
2.9455164e-23
2.9460089e-23
2.9505796e-23
2.9479077e-23
2.9465016e-23
2.9458198e-23
2.9455247e-23
2.9454221e-23
2.9454237e-23
2.9455164e-23
2.945748e-23
2.9462409e-23
2.9509637e-23
2.9483642e-23
2.9469817e-23
2.946308e-23
2.9460157e-23
2.9459141e-23
2.945916e-23
2.9460089e-23
2.9462409e-23
2.946735e-23
6.9825809e-23
6.9763889e-23
6.9731038e-23
6.9715035e-23
6.9708063e-23
6.9705547e-23
6.9705325e-23
6.9706887e-23
6.9710953e-23
6.9719539e-23
6.9763889e-23
6.9702207e-23
6.9669441e-23
6.9653471e-23
6.9646518e-23
6.964403e-23
6.9643877e-23
6.9645633e-23
6.9650255e-23
6.9660531e-23
6.9731038e-23
6.9669441e-23
6.9636723e-23
6.962078e-23
6.9613846e-23
6.961139e-23
6.961131e-23
6.9613237e-23
6.9618213e-23
6.9629039e-23
6.9715035e-23
6.9653471e-23
6.962078e-23
6.9604853e-23
6.9597934e-23
6.9595501e-23
6.9595471e-23
6.9597499e-23
6.9602646e-23
6.9613661e-23
6.9708063e-23
6.9646518e-23
6.9613846e-23
6.9597934e-23
6.9591027e-23
6.9588608e-23
6.9588605e-23
6.9590682e-23
6.95959e-23
6.9606982e-23
6.9705547e-23
6.964403e-23
6.961139e-23
6.9595501e-23
6.9588608e-23
6.9586199e-23
6.958621e-23
6.9588308e-23
6.9593554e-23
6.9604658e-23
6.9705325e-23
6.9643877e-23
6.961131e-23
6.9595471e-23
6.9588605e-23
6.958621e-23
6.9586229e-23
6.9588336e-23
6.9593593e-23
6.9604705e-23
6.9706887e-23
6.9645633e-23
6.9613237e-23
6.9597499e-23
6.9590682e-23
6.9588308e-23
6.9588336e-23
6.9590449e-23
6.959571e-23
6.9606827e-23
6.9710953e-23
6.9650255e-23
6.9618213e-23
6.9602646e-23
6.95959e-23
6.9593554e-23
6.9593593e-23
6.959571e-23
6.9600977e-23
6.9612102e-23
6.9719539e-23
6.9660531e-23
6.9629039e-23
6.9613661e-23
6.9606982e-23
6.9604658e-23
6.9604705e-23
6.9606827e-23
6.9612102e-23
6.9623254e-23
1.6701619e-22
1.6687382e-22
1.6679804e-22
1.6676106e-22
1.6674493e-22
1.667391e-22
1.6673858e-22
1.6674217e-22
1.6675146e-22
1.6677089e-22
1.6687382e-22
1.6673199e-22
1.6665641e-22
1.666195e-22
1.6660341e-22
1.6659765e-22
1.665973e-22
1.6660134e-22
1.6661194e-22
1.6663536e-22
1.6679804e-22
1.6665641e-22
1.6658094e-22
1.6654409e-22
1.6652805e-22
1.6652236e-22
1.6652218e-22
1.6652663e-22
1.6653807e-22
1.6656278e-22
1.6676106e-22
1.666195e-22
1.6654409e-22
1.6650728e-22
1.6649127e-22
1.6648564e-22
1.6648557e-22
1.6649026e-22
1.665021e-22
1.6652727e-22
1.6674493e-22
1.6660341e-22
1.6652805e-22
1.6649127e-22
1.6647529e-22
1.6646969e-22
1.6646969e-22
1.6647449e-22
1.664865e-22
1.6651182e-22
1.667391e-22
1.6659765e-22
1.6652236e-22
1.6648564e-22
1.6646969e-22
1.6646412e-22
1.6646415e-22
1.66469e-22
1.6648108e-22
1.6650645e-22
1.6673858e-22
1.665973e-22
1.6652218e-22
1.6648557e-22
1.6646969e-22
1.6646415e-22
1.664642e-22
1.6646907e-22
1.6648117e-22
1.6650657e-22
1.6674217e-22
1.6660134e-22
1.6652663e-22
1.6649026e-22
1.6647449e-22
1.66469e-22
1.6646907e-22
1.6647396e-22
1.6648607e-22
1.6651147e-22
1.6675146e-22
1.6661194e-22
1.6653807e-22
1.665021e-22
1.664865e-22
1.6648108e-22
1.6648117e-22
1.6648607e-22
1.6649819e-22
1.6652362e-22
1.6677089e-22
1.6663536e-22
1.6656278e-22
1.6652727e-22
1.6651182e-22
1.6650645e-22
1.6650657e-22
1.6651147e-22
1.6652362e-22
1.665491e-22
4.044474e-22
4.0411618e-22
4.0393936e-22
4.0385289e-22
4.0381512e-22
4.0380148e-22
4.0380025e-22
4.038086e-22
4.0383009e-22
4.0387459e-22
4.0411618e-22
4.0378622e-22
4.0360984e-22
4.0352354e-22
4.0348589e-22
4.034724e-22
4.0347156e-22
4.0348099e-22
4.0350562e-22
4.0355966e-22
4.0393936e-22
4.0360984e-22
4.0343372e-22
4.0334756e-22
4.0331001e-22
4.0329669e-22
4.0329627e-22
4.0330667e-22
4.0333329e-22
4.0339042e-22
4.0385289e-22
4.0352354e-22
4.0334756e-22
4.032615e-22
4.0322403e-22
4.0321084e-22
4.0321069e-22
4.0322166e-22
4.0324924e-22
4.0330744e-22
4.0381512e-22
4.0348589e-22
4.0331001e-22
4.0322403e-22
4.0318662e-22
4.0317351e-22
4.0317351e-22
4.0318476e-22
4.0321274e-22
4.0327132e-22
4.0380148e-22
4.034724e-22
4.0329669e-22
4.0321084e-22
4.0317351e-22
4.0316046e-22
4.0316054e-22
4.0317191e-22
4.0320004e-22
4.0325875e-22
4.0380025e-22
4.0347156e-22
4.0329627e-22
4.0321069e-22
4.0317351e-22
4.0316054e-22
4.0316067e-22
4.0317209e-22
4.0320028e-22
4.0325903e-22
4.038086e-22
4.0348099e-22
4.0330667e-22
4.0322166e-22
4.0318476e-22
4.0317191e-22
4.0317209e-22
4.0318353e-22
4.0321175e-22
4.0327053e-22
4.0383009e-22
4.0350562e-22
4.0333329e-22
4.0324924e-22
4.0321274e-22
4.0320004e-22
4.0320028e-22
4.0321175e-22
4.0324001e-22
4.0329882e-22
4.0387459e-22
4.0355966e-22
4.0339042e-22
4.0330744e-22
4.0327132e-22
4.0325875e-22
4.0325903e-22
4.0327053e-22
4.0329882e-22
4.0335778e-22
9.9153002e-22
9.9075047e-22
9.9033302e-22
9.9012849e-22
9.9003907e-22
9.9000674e-22
9.9000382e-22
9.9002347e-22
9.900738e-22
9.9017694e-22
9.9075047e-22
9.8997384e-22
9.8955741e-22
9.893533e-22
9.8926413e-22
9.8923216e-22
9.8923018e-22
9.8925246e-22
9.8931036e-22
9.8943657e-22
9.9033302e-22
9.8955741e-22
9.891416e-22
9.8893781e-22
9.8884889e-22
9.8881735e-22
9.8881636e-22
9.8884097e-22
9.8890368e-22
9.8903738e-22
9.9012849e-22
9.893533e-22
9.8893781e-22
9.8873425e-22
9.8864552e-22
9.8861428e-22
9.8861396e-22
9.8863995e-22
9.8870498e-22
9.8884126e-22
9.9003907e-22
9.8926413e-22
9.8884889e-22
9.8864552e-22
9.8855694e-22
9.885259e-22
9.8852594e-22
9.8855259e-22
9.8861859e-22
9.8875578e-22
9.9000674e-22
9.8923216e-22
9.8881735e-22
9.8861428e-22
9.885259e-22
9.8849501e-22
9.8849523e-22
9.8852216e-22
9.8858854e-22
9.8872604e-22
9.9000382e-22
9.8923018e-22
9.8881636e-22
9.8861396e-22
9.8852594e-22
9.8849523e-22
9.8849558e-22
9.8852263e-22
9.8858915e-22
9.8872676e-22
9.9002347e-22
9.8925246e-22
9.8884097e-22
9.8863995e-22
9.8855259e-22
9.8852216e-22
9.8852263e-22
9.8854976e-22
9.8861635e-22
9.8875401e-22
9.900738e-22
9.8931036e-22
9.8890368e-22
9.8870498e-22
9.8861859e-22
9.8858854e-22
9.8858915e-22
9.8861635e-22
9.88683e-22
9.8882075e-22
9.9017694e-22
9.8943657e-22
9.8903738e-22
9.8884126e-22
9.8875578e-22
9.8872604e-22
9.8872676e-22