/*--------------------------------*- C++ -*----------------------------------*\
| =========                 |                                                 |
| \\      /  F ield         | OpenFOAM: The Open Source CFD Toolbox           |
|  \\    /   O peration     | Version:  dev                                   |
|   \\  /    A nd           | Web:      www.OpenFOAM.org                      |
|    \\/     M anipulation  |                                                 |
\*---------------------------------------------------------------------------*/
FoamFile
{
    version     2.0;
    format      ascii;
    class       volScalarField;
    location    "61.995";
    object      A_0;
}
// * * * * * * * * * * * * * * * * * * * * * * * * * * * * * * * * * * * * * //

dimensions      [0 0 0 0 1 0 0];

internalField   nonuniform List<scalar> 
10000
(
7.8007318e-29
7.7881026e-29
7.782017e-29
7.7791648e-29
7.7779511e-29
7.7775221e-29
7.7774983e-29
7.7778223e-29
7.7787239e-29
7.7807213e-29
7.7881026e-29
7.775532e-29
7.7694665e-29
7.7666224e-29
7.7654126e-29
7.7649877e-29
7.7649732e-29
7.7653225e-29
7.7662956e-29
7.7685058e-29
7.782017e-29
7.7694665e-29
7.7634119e-29
7.760573e-29
7.7593666e-29
7.7589462e-29
7.7589416e-29
7.7593135e-29
7.7603329e-29
7.7626136e-29
7.7791648e-29
7.7666224e-29
7.760573e-29
7.7577374e-29
7.7565333e-29
7.7561161e-29
7.7561181e-29
7.7565035e-29
7.7575453e-29
7.7598505e-29
7.7779511e-29
7.7654126e-29
7.7593666e-29
7.7565333e-29
7.7553309e-29
7.7549157e-29
7.7549213e-29
7.7553132e-29
7.7563644e-29
7.7586783e-29
7.7775221e-29
7.7649877e-29
7.7589462e-29
7.7561161e-29
7.7549157e-29
7.7545021e-29
7.7545095e-29
7.7549042e-29
7.755959e-29
7.7582758e-29
7.7774983e-29
7.7649732e-29
7.7589416e-29
7.7561181e-29
7.7549213e-29
7.7545095e-29
7.7545181e-29
7.754914e-29
7.7559703e-29
7.7582882e-29
7.7778223e-29
7.7653225e-29
7.7593135e-29
7.7565035e-29
7.7553132e-29
7.7549042e-29
7.754914e-29
7.7553107e-29
7.7563679e-29
7.7586866e-29
7.7787239e-29
7.7662956e-29
7.7603329e-29
7.7575453e-29
7.7563644e-29
7.755959e-29
7.7559703e-29
7.7563679e-29
7.7574262e-29
7.759747e-29
7.7807213e-29
7.7685058e-29
7.7626136e-29
7.7598505e-29
7.7586783e-29
7.7582758e-29
7.7582882e-29
7.7586866e-29
7.759747e-29
7.7620745e-29
2.7082457e-28
2.7040238e-28
2.7019367e-28
2.7009564e-28
2.700539e-28
2.7003913e-28
2.700383e-28
2.7004939e-28
2.7008031e-28
2.7015145e-28
2.7040238e-28
2.6998211e-28
2.6977407e-28
2.6967631e-28
2.696347e-28
2.6962008e-28
2.6961957e-28
2.6963153e-28
2.6966494e-28
2.6974349e-28
2.7019367e-28
2.6977407e-28
2.6956641e-28
2.6946883e-28
2.6942733e-28
2.6941287e-28
2.6941269e-28
2.6942544e-28
2.6946045e-28
2.6954144e-28
2.7009564e-28
2.6967631e-28
2.6946883e-28
2.6937136e-28
2.6932995e-28
2.6931559e-28
2.6931565e-28
2.6932887e-28
2.6936464e-28
2.6944649e-28
2.700539e-28
2.696347e-28
2.6942733e-28
2.6932995e-28
2.6928859e-28
2.692743e-28
2.6927449e-28
2.6928793e-28
2.6932403e-28
2.6940618e-28
2.7003913e-28
2.6962008e-28
2.6941287e-28
2.6931559e-28
2.692743e-28
2.6926007e-28
2.6926031e-28
2.6927385e-28
2.6931008e-28
2.6939233e-28
2.700383e-28
2.6961957e-28
2.6941269e-28
2.6931565e-28
2.6927449e-28
2.6926031e-28
2.692606e-28
2.6927418e-28
2.6931046e-28
2.6939274e-28
2.7004939e-28
2.6963153e-28
2.6942544e-28
2.6932887e-28
2.6928793e-28
2.6927385e-28
2.6927418e-28
2.6928779e-28
2.693241e-28
2.6940641e-28
2.7008031e-28
2.6966494e-28
2.6946045e-28
2.6936464e-28
2.6932403e-28
2.6931008e-28
2.6931046e-28
2.693241e-28
2.6936045e-28
2.6944283e-28
2.7015145e-28
2.6974349e-28
2.6954144e-28
2.6944649e-28
2.6940618e-28
2.6939233e-28
2.6939274e-28
2.6940641e-28
2.6944283e-28
2.6952546e-28
5.9523703e-28
5.9433888e-28
5.9388953e-28
5.9367794e-28
5.9358772e-28
5.9355578e-28
5.9355392e-28
5.9357768e-28
5.9364399e-28
5.9380117e-28
5.9433888e-28
5.9344474e-28
5.9299682e-28
5.927858e-28
5.9269588e-28
5.9266425e-28
5.9266308e-28
5.9268876e-28
5.9276049e-28
5.9293394e-28
5.9388953e-28
5.9299682e-28
5.9254969e-28
5.9233907e-28
5.9224939e-28
5.9221809e-28
5.9221767e-28
5.9224506e-28
5.923203e-28
5.9249909e-28
5.9367794e-28
5.927858e-28
5.9233907e-28
5.9212868e-28
5.9203917e-28
5.9200812e-28
5.920082e-28
5.9203661e-28
5.9211354e-28
5.9229419e-28
5.9358772e-28
5.9269588e-28
5.9224939e-28
5.9203917e-28
5.919498e-28
5.9191889e-28
5.9191924e-28
5.9194815e-28
5.920258e-28
5.9220709e-28
5.9355578e-28
5.9266425e-28
5.9221809e-28
5.9200812e-28
5.9191889e-28
5.9188811e-28
5.9188859e-28
5.9191771e-28
5.9199563e-28
5.9217715e-28
5.9355392e-28
5.9266308e-28
5.9221767e-28
5.920082e-28
5.9191924e-28
5.9188859e-28
5.9188917e-28
5.9191838e-28
5.9199641e-28
5.9217801e-28
5.9357768e-28
5.9268876e-28
5.9224506e-28
5.9203661e-28
5.9194815e-28
5.9191771e-28
5.9191838e-28
5.9194764e-28
5.9202574e-28
5.922074e-28
5.9364399e-28
5.9276049e-28
5.923203e-28
5.9211354e-28
5.920258e-28
5.9199563e-28
5.9199641e-28
5.9202574e-28
5.9210392e-28
5.9228574e-28
5.9380117e-28
5.9293394e-28
5.9249909e-28
5.9229419e-28
5.9220709e-28
5.9217715e-28
5.9217801e-28
5.922074e-28
5.9228574e-28
5.9246812e-28
1.217593e-27
1.2158142e-27
1.2149182e-27
1.2144951e-27
1.2143145e-27
1.2142505e-27
1.2142466e-27
1.2142936e-27
1.2144247e-27
1.2147374e-27
1.2158142e-27
1.2140433e-27
1.2131501e-27
1.2127281e-27
1.2125481e-27
1.2124847e-27
1.2124822e-27
1.2125331e-27
1.2126753e-27
1.2130212e-27
1.2149182e-27
1.2131501e-27
1.2122583e-27
1.2118372e-27
1.2116576e-27
1.2115949e-27
1.2115939e-27
1.2116484e-27
1.2117976e-27
1.2121544e-27
1.2144951e-27
1.2127281e-27
1.2118372e-27
1.2114165e-27
1.2112373e-27
1.2111751e-27
1.2111751e-27
1.2112316e-27
1.2113843e-27
1.2117449e-27
1.2143145e-27
1.2125481e-27
1.2116576e-27
1.2112373e-27
1.2110584e-27
1.2109964e-27
1.210997e-27
1.2110545e-27
1.2112087e-27
1.2115705e-27
1.2142505e-27
1.2124847e-27
1.2115949e-27
1.2111751e-27
1.2109964e-27
1.2109347e-27
1.2109356e-27
1.2109935e-27
1.2111482e-27
1.2115105e-27
1.2142466e-27
1.2124822e-27
1.2115939e-27
1.2111751e-27
1.210997e-27
1.2109356e-27
1.2109367e-27
1.2109948e-27
1.2111497e-27
1.2115122e-27
1.2142936e-27
1.2125331e-27
1.2116484e-27
1.2112316e-27
1.2110545e-27
1.2109935e-27
1.2109948e-27
1.211053e-27
1.2112081e-27
1.2115707e-27
1.2144247e-27
1.2126753e-27
1.2117976e-27
1.2113843e-27
1.2112087e-27
1.2111482e-27
1.2111497e-27
1.2112081e-27
1.2113633e-27
1.2117262e-27
1.2147374e-27
1.2130212e-27
1.2121544e-27
1.2117449e-27
1.2115705e-27
1.2115105e-27
1.2115122e-27
1.2115707e-27
1.2117262e-27
1.2120902e-27
2.4705648e-27
2.4670714e-27
2.465303e-27
2.4644661e-27
2.4641082e-27
2.4639812e-27
2.4639731e-27
2.4640652e-27
2.4643209e-27
2.4649287e-27
2.4670714e-27
2.4635934e-27
2.4618304e-27
2.4609957e-27
2.4606389e-27
2.4605131e-27
2.4605079e-27
2.4606078e-27
2.4608858e-27
2.4615606e-27
2.465303e-27
2.4618304e-27
2.4600705e-27
2.4592373e-27
2.4588815e-27
2.4587571e-27
2.4587549e-27
2.4588618e-27
2.4591541e-27
2.4598509e-27
2.4644661e-27
2.4609957e-27
2.4592373e-27
2.458405e-27
2.4580499e-27
2.4579264e-27
2.4579263e-27
2.4580374e-27
2.4583367e-27
2.459041e-27
2.4641082e-27
2.4606389e-27
2.4588815e-27
2.4580499e-27
2.4576953e-27
2.4575725e-27
2.4575735e-27
2.4576866e-27
2.4579888e-27
2.4586958e-27
2.4639812e-27
2.4605131e-27
2.4587571e-27
2.4579264e-27
2.4575725e-27
2.4574501e-27
2.4574516e-27
2.4575656e-27
2.4578689e-27
2.4585768e-27
2.4639731e-27
2.4605079e-27
2.4587549e-27
2.4579263e-27
2.4575735e-27
2.4574516e-27
2.4574536e-27
2.4575679e-27
2.4578716e-27
2.4585799e-27
2.4640652e-27
2.4606078e-27
2.4588618e-27
2.4580374e-27
2.4576866e-27
2.4575656e-27
2.4575679e-27
2.4576825e-27
2.4579865e-27
2.458695e-27
2.4643209e-27
2.4608858e-27
2.4591541e-27
2.4583367e-27
2.4579888e-27
2.4578689e-27
2.4578716e-27
2.4579865e-27
2.4582908e-27
2.4589999e-27
2.4649287e-27
2.4615606e-27
2.4598509e-27
2.459041e-27
2.4586958e-27
2.4585768e-27
2.4585799e-27
2.458695e-27
2.4589999e-27
2.4597112e-27
5.0480264e-27
5.0411205e-27
5.0376101e-27
5.0359448e-27
5.0352316e-27
5.034978e-27
5.0349613e-27
5.0351425e-27
5.0356435e-27
5.0368261e-27
5.0411205e-27
5.0342446e-27
5.0307448e-27
5.0290837e-27
5.0283728e-27
5.0281217e-27
5.0281108e-27
5.0283079e-27
5.0288541e-27
5.0301728e-27
5.0376101e-27
5.0307448e-27
5.027251e-27
5.025593e-27
5.024884e-27
5.0246356e-27
5.0246308e-27
5.0248421e-27
5.0254175e-27
5.0267807e-27
5.0359448e-27
5.0290837e-27
5.025593e-27
5.0239367e-27
5.0232291e-27
5.0229828e-27
5.0229821e-27
5.0232019e-27
5.0237912e-27
5.0251699e-27
5.0352316e-27
5.0283728e-27
5.024884e-27
5.0232291e-27
5.0225225e-27
5.0222775e-27
5.022279e-27
5.0225028e-27
5.0230981e-27
5.0244822e-27
5.034978e-27
5.0281217e-27
5.0246356e-27
5.0229828e-27
5.0222775e-27
5.0220333e-27
5.022036e-27
5.0222615e-27
5.0228591e-27
5.0242451e-27
5.0349613e-27
5.0281108e-27
5.0246308e-27
5.0229821e-27
5.022279e-27
5.022036e-27
5.0220394e-27
5.0222657e-27
5.0228642e-27
5.0242508e-27
5.0351425e-27
5.0283079e-27
5.0248421e-27
5.0232019e-27
5.0225028e-27
5.0222615e-27
5.0222657e-27
5.0224925e-27
5.0230915e-27
5.0244786e-27
5.0356435e-27
5.0288541e-27
5.0254175e-27
5.0237912e-27
5.0230981e-27
5.0228591e-27
5.0228642e-27
5.0230915e-27
5.0236911e-27
5.0250794e-27
5.0368261e-27
5.0301728e-27
5.0267807e-27
5.0251699e-27
5.0244822e-27
5.0242451e-27
5.0242508e-27
5.0244786e-27
5.0250794e-27
5.0264718e-27
1.0426199e-26
1.0412405e-26
1.0405366e-26
1.0402018e-26
1.0400583e-26
1.0400072e-26
1.0400037e-26
1.0400397e-26
1.0401388e-26
1.0403709e-26
1.0412405e-26
1.039867e-26
1.0391652e-26
1.0388313e-26
1.0386882e-26
1.0386376e-26
1.0386353e-26
1.0386745e-26
1.038783e-26
1.0390429e-26
1.0405366e-26
1.0391652e-26
1.0384645e-26
1.0381313e-26
1.0379886e-26
1.0379385e-26
1.0379375e-26
1.0379796e-26
1.038094e-26
1.0383631e-26
1.0402018e-26
1.0388313e-26
1.0381313e-26
1.0377984e-26
1.0376559e-26
1.0376063e-26
1.0376061e-26
1.03765e-26
1.0377672e-26
1.0380395e-26
1.0400583e-26
1.0386882e-26
1.0379886e-26
1.0376559e-26
1.0375137e-26
1.0374643e-26
1.0374646e-26
1.0375093e-26
1.0376278e-26
1.0379012e-26
1.0400072e-26
1.0386376e-26
1.0379385e-26
1.0376063e-26
1.0374643e-26
1.0374151e-26
1.0374156e-26
1.0374607e-26
1.0375796e-26
1.0378534e-26
1.0400037e-26
1.0386353e-26
1.0379375e-26
1.0376061e-26
1.0374646e-26
1.0374156e-26
1.0374162e-26
1.0374615e-26
1.0375806e-26
1.0378545e-26
1.0400397e-26
1.0386745e-26
1.0379796e-26
1.03765e-26
1.0375093e-26
1.0374607e-26
1.0374615e-26
1.0375068e-26
1.037626e-26
1.0379001e-26
1.0401388e-26
1.038783e-26
1.038094e-26
1.0377672e-26
1.0376278e-26
1.0375796e-26
1.0375806e-26
1.037626e-26
1.0377454e-26
1.0380196e-26
1.0403709e-26
1.0390429e-26
1.0383631e-26
1.0380395e-26
1.0379012e-26
1.0378534e-26
1.0378545e-26
1.0379001e-26
1.0380196e-26
1.0382947e-26
2.1789025e-26
2.1761158e-26
2.1746884e-26
2.1740081e-26
2.1737159e-26
2.1736118e-26
2.1736044e-26
2.1736768e-26
2.1738751e-26
2.1743354e-26
2.1761158e-26
2.1733409e-26
2.1719177e-26
2.1712391e-26
2.1709478e-26
2.1708447e-26
2.1708398e-26
2.1709189e-26
2.1711365e-26
2.1716548e-26
2.1746884e-26
2.1719177e-26
2.1704969e-26
2.1698195e-26
2.169529e-26
2.169427e-26
2.1694247e-26
2.1695099e-26
2.1697398e-26
2.1702771e-26
2.1740081e-26
2.1712391e-26
2.1698195e-26
2.1691429e-26
2.1688529e-26
2.1687518e-26
2.1687512e-26
2.1688399e-26
2.1690759e-26
2.1696197e-26
2.1737159e-26
2.1709478e-26
2.169529e-26
2.1688529e-26
2.1685634e-26
2.1684628e-26
2.1684632e-26
2.1685536e-26
2.1687921e-26
2.1693382e-26
2.1736118e-26
2.1708447e-26
2.169427e-26
2.1687518e-26
2.1684628e-26
2.1683626e-26
2.1683634e-26
2.1684546e-26
2.168694e-26
2.1692409e-26
2.1736044e-26
2.1708398e-26
2.1694247e-26
2.1687512e-26
2.1684632e-26
2.1683634e-26
2.1683646e-26
2.1684561e-26
2.1686958e-26
2.1692431e-26
2.1736768e-26
2.1709189e-26
2.1695099e-26
2.1688399e-26
2.1685536e-26
2.1684546e-26
2.1684561e-26
2.1685478e-26
2.1687878e-26
2.1693352e-26
2.1738751e-26
2.1711365e-26
2.1697398e-26
2.1690759e-26
2.1687921e-26
2.168694e-26
2.1686958e-26
2.1687878e-26
2.169028e-26
2.1695759e-26
2.1743354e-26
2.1716548e-26
2.1702771e-26
2.1696197e-26
2.1693382e-26
2.1692409e-26
2.1692431e-26
2.1693352e-26
2.1695759e-26
2.1701253e-26
4.6087463e-26
4.6030508e-26
4.6001227e-26
4.5987239e-26
4.5981223e-26
4.5979076e-26
4.5978919e-26
4.5980392e-26
4.5984408e-26
4.5993644e-26
4.6030508e-26
4.5973792e-26
4.5944596e-26
4.5930643e-26
4.5924645e-26
4.5922519e-26
4.5922413e-26
4.5924027e-26
4.5928447e-26
4.5938902e-26
4.6001227e-26
4.5944596e-26
4.5915448e-26
4.5901519e-26
4.5895538e-26
4.5893436e-26
4.5893384e-26
4.5895125e-26
4.5899803e-26
4.5910656e-26
4.5987239e-26
4.5930643e-26
4.5901519e-26
4.5887606e-26
4.5881636e-26
4.5879552e-26
4.5879537e-26
4.5881352e-26
4.5886156e-26
4.5897146e-26
4.5981223e-26
4.5924645e-26
4.5895538e-26
4.5881636e-26
4.5875676e-26
4.5873602e-26
4.5873607e-26
4.5875458e-26
4.5880314e-26
4.5891353e-26
4.5979076e-26
4.5922519e-26
4.5893436e-26
4.5879552e-26
4.5873602e-26
4.5871536e-26
4.5871551e-26
4.5873418e-26
4.5878294e-26
4.5889349e-26
4.5978919e-26
4.5922413e-26
4.5893384e-26
4.5879537e-26
4.5873607e-26
4.5871551e-26
4.5871572e-26
4.5873446e-26
4.587833e-26
4.5889391e-26
4.5980392e-26
4.5924027e-26
4.5895125e-26
4.5881352e-26
4.5875458e-26
4.5873418e-26
4.5873446e-26
4.5875324e-26
4.5880212e-26
4.5891277e-26
4.5984408e-26
4.5928447e-26
4.5899803e-26
4.5886156e-26
4.5880314e-26
4.5878294e-26
4.587833e-26
4.5880212e-26
4.5885106e-26
4.589618e-26
4.5993644e-26
4.5938902e-26
4.5910656e-26
4.5897146e-26
4.5891353e-26
4.5889349e-26
4.5889391e-26
4.5891277e-26
4.589618e-26
4.5907286e-26
9.8676064e-26
9.8558286e-26
9.8497513e-26
9.8468419e-26
9.8455887e-26
9.8451408e-26
9.845107e-26
9.8454104e-26
9.8462332e-26
9.8481085e-26
9.8558286e-26
9.8440998e-26
9.8380399e-26
9.8351375e-26
9.833888e-26
9.8334446e-26
9.8334217e-26
9.833755e-26
9.8346636e-26
9.8367979e-26
9.8497513e-26
9.8380399e-26
9.83199e-26
9.8290926e-26
9.8278466e-26
9.8274082e-26
9.8273968e-26
9.8277569e-26
9.8287203e-26
9.8309391e-26
9.8468419e-26
9.8351375e-26
9.8290926e-26
9.8261984e-26
9.8249549e-26
9.8245202e-26
9.8245165e-26
9.8248924e-26
9.8258823e-26
9.8281304e-26
9.8455887e-26
9.833888e-26
9.8278466e-26
9.8249549e-26
9.8237132e-26
9.8232808e-26
9.8232814e-26
9.8236648e-26
9.8246659e-26
9.8269242e-26
9.8451408e-26
9.8334446e-26
9.8274082e-26
9.8245202e-26
9.8232808e-26
9.8228502e-26
9.8228528e-26
9.8232396e-26
9.8242449e-26
9.8265068e-26
9.845107e-26
9.8334217e-26
9.8273968e-26
9.8245165e-26
9.8232814e-26
9.8228528e-26
9.8228569e-26
9.8232451e-26
9.8242521e-26
9.8265152e-26
9.8454104e-26
9.833755e-26
9.8277569e-26
9.8248924e-26
9.8236648e-26
9.8232396e-26
9.8232451e-26
9.8236341e-26
9.824642e-26
9.8269059e-26
9.8462332e-26
9.8346636e-26
9.8287203e-26
9.8258823e-26
9.8246659e-26
9.8242449e-26
9.8242521e-26
9.824642e-26
9.825651e-26
9.8279167e-26
9.8481085e-26
9.8367979e-26
9.8309391e-26
9.8281304e-26
9.8269242e-26
9.8265068e-26
9.8265152e-26
9.8269059e-26
9.8279167e-26
9.8301888e-26
2.1387285e-25
2.1362641e-25
2.134988e-25
2.1343756e-25
2.1341115e-25
2.134017e-25
2.1340097e-25
2.1340729e-25
2.1342436e-25
2.1346289e-25
2.1362641e-25
2.1338099e-25
2.1325373e-25
2.1319265e-25
2.1316631e-25
2.1315696e-25
2.1315646e-25
2.1316342e-25
2.1318233e-25
2.1322643e-25
2.134988e-25
2.1325373e-25
2.1312668e-25
2.130657e-25
2.1303944e-25
2.1303019e-25
2.1302994e-25
2.1303748e-25
2.1305756e-25
2.1310348e-25
2.1343756e-25
2.1319265e-25
2.130657e-25
2.1300478e-25
2.1297858e-25
2.1296941e-25
2.1296932e-25
2.129772e-25
2.1299785e-25
2.1304439e-25
2.1341115e-25
2.1316631e-25
2.1303944e-25
2.1297858e-25
2.1295241e-25
2.1294329e-25
2.1294329e-25
2.1295133e-25
2.1297222e-25
2.1301899e-25
2.134017e-25
2.1315696e-25
2.1303019e-25
2.1296941e-25
2.1294329e-25
2.1293421e-25
2.1293426e-25
2.1294236e-25
2.1296335e-25
2.1301019e-25
2.1340097e-25
2.1315646e-25
2.1302994e-25
2.1296932e-25
2.1294329e-25
2.1293426e-25
2.1293433e-25
2.1294247e-25
2.1296349e-25
2.1301036e-25
2.1340729e-25
2.1316342e-25
2.1303748e-25
2.129772e-25
2.1295133e-25
2.1294236e-25
2.1294247e-25
2.1295063e-25
2.1297167e-25
2.1301855e-25
2.1342436e-25
2.1318233e-25
2.1305756e-25
2.1299785e-25
2.1297222e-25
2.1296335e-25
2.1296349e-25
2.1297167e-25
2.1299273e-25
2.1303965e-25
2.1346289e-25
2.1322643e-25
2.1310348e-25
2.1304439e-25
2.1301899e-25
2.1301019e-25
2.1301036e-25
2.1301855e-25
2.1303965e-25
2.130867e-25
4.6928633e-25
4.6876455e-25
4.6849338e-25
4.68363e-25
4.6830668e-25
4.682865e-25
4.682849e-25
4.6829824e-25
4.6833405e-25
4.6841418e-25
4.6876455e-25
4.6824489e-25
4.6797448e-25
4.678444e-25
4.6778825e-25
4.6776828e-25
4.6776718e-25
4.6778191e-25
4.6782173e-25
4.6791397e-25
4.6849338e-25
4.6797448e-25
4.6770451e-25
4.6757465e-25
4.6751865e-25
4.6749892e-25
4.6749835e-25
4.6751433e-25
4.675567e-25
4.6765289e-25
4.68363e-25
4.678444e-25
4.6757465e-25
4.6744493e-25
4.6738905e-25
4.6736948e-25
4.6736928e-25
4.6738599e-25
4.674296e-25
4.6752715e-25
4.6830668e-25
4.6778825e-25
4.6751865e-25
4.6738905e-25
4.6733325e-25
4.6731379e-25
4.6731378e-25
4.6733085e-25
4.6737497e-25
4.6747301e-25
4.682865e-25
4.6776828e-25
4.6749892e-25
4.6736948e-25
4.6731379e-25
4.6729441e-25
4.672945e-25
4.6731171e-25
4.6735604e-25
4.6745424e-25
4.682849e-25
4.6776718e-25
4.6749835e-25
4.6736928e-25
4.6731378e-25
4.672945e-25
4.6729466e-25
4.6731194e-25
4.6735634e-25
4.674546e-25
4.6829824e-25
4.6778191e-25
4.6751433e-25
4.6738599e-25
4.6733085e-25
4.6731171e-25
4.6731194e-25
4.6732926e-25
4.673737e-25
4.6747199e-25
4.6833405e-25
4.6782173e-25
4.675567e-25
4.674296e-25
4.6737497e-25
4.6735604e-25
4.6735634e-25
4.673737e-25
4.6741819e-25
4.6751656e-25
4.6841418e-25
4.6791397e-25
4.6765289e-25
4.6752715e-25
4.6747301e-25
4.6745424e-25
4.674546e-25
4.6747199e-25
4.6751656e-25
4.676152e-25
1.0425035e-24
1.0413856e-24
1.0408026e-24
1.0405217e-24
1.0404002e-24
1.0403566e-24
1.0403531e-24
1.0403815e-24
1.0404576e-24
1.0406263e-24
1.0413856e-24
1.0402722e-24
1.0396908e-24
1.0394105e-24
1.0392894e-24
1.0392462e-24
1.0392438e-24
1.0392753e-24
1.0393602e-24
1.0395555e-24
1.0408026e-24
1.0396908e-24
1.0391103e-24
1.0388305e-24
1.0387097e-24
1.0386671e-24
1.0386658e-24
1.0387001e-24
1.0387906e-24
1.0389946e-24
1.0405217e-24
1.0394105e-24
1.0388305e-24
1.038551e-24
1.0384304e-24
1.0383882e-24
1.0383877e-24
1.0384236e-24
1.0385168e-24
1.0387238e-24
1.0404002e-24
1.0392894e-24
1.0387097e-24
1.0384304e-24
1.0383101e-24
1.038268e-24
1.038268e-24
1.0383047e-24
1.038399e-24
1.0386071e-24
1.0403566e-24
1.0392462e-24
1.0386671e-24
1.0383882e-24
1.038268e-24
1.0382262e-24
1.0382264e-24
1.0382634e-24
1.0383582e-24
1.0385666e-24
1.0403531e-24
1.0392438e-24
1.0386658e-24
1.0383877e-24
1.038268e-24
1.0382264e-24
1.0382267e-24
1.0382638e-24
1.0383588e-24
1.0385673e-24
1.0403815e-24
1.0392753e-24
1.0387001e-24
1.0384236e-24
1.0383047e-24
1.0382634e-24
1.0382638e-24
1.0383011e-24
1.0383961e-24
1.0386047e-24
1.0404576e-24
1.0393602e-24
1.0387906e-24
1.0385168e-24
1.038399e-24
1.0383582e-24
1.0383588e-24
1.0383961e-24
1.0384913e-24
1.0387e-24
1.0406263e-24
1.0395555e-24
1.0389946e-24
1.0387238e-24
1.0386071e-24
1.0385666e-24
1.0385673e-24
1.0386047e-24
1.0387e-24
1.0389094e-24
2.3447117e-24
2.3422879e-24
2.3410195e-24
2.3404071e-24
2.3401418e-24
2.3400466e-24
2.3400387e-24
2.3401003e-24
2.3402639e-24
2.3406231e-24
2.3422879e-24
2.3398738e-24
2.3386089e-24
2.3379978e-24
2.3377333e-24
2.3376391e-24
2.3376337e-24
2.337702e-24
2.3378853e-24
2.3383039e-24
2.3410195e-24
2.3386089e-24
2.337346e-24
2.3367359e-24
2.3364722e-24
2.3363791e-24
2.3363762e-24
2.3364507e-24
2.3366464e-24
2.3370844e-24
2.3404071e-24
2.3379978e-24
2.3367359e-24
2.3361265e-24
2.3358633e-24
2.335771e-24
2.33577e-24
2.335848e-24
2.3360497e-24
2.3364944e-24
2.3401418e-24
2.3377333e-24
2.3364722e-24
2.3358633e-24
2.3356005e-24
2.3355087e-24
2.3355086e-24
2.3355884e-24
2.3357927e-24
2.3362397e-24
2.3400466e-24
2.3376391e-24
2.3363791e-24
2.335771e-24
2.3355087e-24
2.3354173e-24
2.3354177e-24
2.3354982e-24
2.3357035e-24
2.3361513e-24
2.3400387e-24
2.3376337e-24
2.3363762e-24
2.33577e-24
2.3355086e-24
2.3354177e-24
2.3354184e-24
2.3354992e-24
2.3357048e-24
2.3361529e-24
2.3401003e-24
2.337702e-24
2.3364507e-24
2.335848e-24
2.3355884e-24
2.3354982e-24
2.3354992e-24
2.3355802e-24
2.335786e-24
2.3362343e-24
2.3402639e-24
2.3378853e-24
2.3366464e-24
2.3360497e-24
2.3357927e-24
2.3357035e-24
2.3357048e-24
2.335786e-24
2.335992e-24
2.3364407e-24
2.3406231e-24
2.3383039e-24
2.3370844e-24
2.3364944e-24
2.3362397e-24
2.3361513e-24
2.3361529e-24
2.3362343e-24
2.3364407e-24
2.3368905e-24
5.3392989e-24
5.3339811e-24
5.331189e-24
5.3298379e-24
5.3292521e-24
5.3290415e-24
5.3290237e-24
5.3291584e-24
5.3295146e-24
5.3302893e-24
5.3339811e-24
5.3286845e-24
5.3258998e-24
5.3245517e-24
5.3239675e-24
5.3237592e-24
5.323747e-24
5.323897e-24
5.3242973e-24
5.3252058e-24
5.331189e-24
5.3258998e-24
5.3231194e-24
5.3217736e-24
5.321191e-24
5.3209852e-24
5.3209788e-24
5.3211425e-24
5.3215709e-24
5.322523e-24
5.3298379e-24
5.3245517e-24
5.3217736e-24
5.3204292e-24
5.3198478e-24
5.3196438e-24
5.3196414e-24
5.3198132e-24
5.3202552e-24
5.3212223e-24
5.3292521e-24
5.3239675e-24
5.321191e-24
5.3198478e-24
5.3192674e-24
5.3190645e-24
5.3190643e-24
5.3192399e-24
5.3196876e-24
5.32066e-24
5.3290415e-24
5.3237592e-24
5.3209852e-24
5.3196438e-24
5.3190645e-24
5.3188626e-24
5.3188634e-24
5.3190406e-24
5.3194905e-24
5.3204647e-24
5.3290237e-24
5.323747e-24
5.3209788e-24
5.3196414e-24
5.3190643e-24
5.3188634e-24
5.3188649e-24
5.3190429e-24
5.3194936e-24
5.3204685e-24
5.3291584e-24
5.323897e-24
5.3211425e-24
5.3198132e-24
5.3192399e-24
5.3190406e-24
5.3190429e-24
5.3192213e-24
5.3196725e-24
5.3206477e-24
5.3295146e-24
5.3242973e-24
5.3215709e-24
5.3202552e-24
5.3196876e-24
5.3194905e-24
5.3194936e-24
5.3196725e-24
5.3201241e-24
5.3211e-24
5.3302893e-24
5.3252058e-24
5.322523e-24
5.3212223e-24
5.32066e-24
5.3204647e-24
5.3204685e-24
5.3206477e-24
5.3211e-24
5.3220785e-24
1.2310283e-23
1.2298477e-23
1.2292257e-23
1.2289242e-23
1.2287932e-23
1.2287461e-23
1.2287421e-23
1.2287719e-23
1.2288504e-23
1.2290195e-23
1.2298477e-23
1.2286717e-23
1.2280514e-23
1.2277505e-23
1.2276199e-23
1.2275733e-23
1.2275705e-23
1.2276038e-23
1.2276924e-23
1.227892e-23
1.2292257e-23
1.2280514e-23
1.227432e-23
1.2271316e-23
1.2270014e-23
1.2269553e-23
1.2269539e-23
1.2269903e-23
1.2270853e-23
1.2272948e-23
1.2289242e-23
1.2277505e-23
1.2271316e-23
1.2268315e-23
1.2267015e-23
1.2266559e-23
1.2266554e-23
1.2266937e-23
1.2267917e-23
1.2270047e-23
1.2287932e-23
1.2276199e-23
1.2270014e-23
1.2267015e-23
1.2265718e-23
1.2265265e-23
1.2265264e-23
1.2265656e-23
1.2266649e-23
1.2268791e-23
1.2287461e-23
1.2275733e-23
1.2269553e-23
1.2266559e-23
1.2265265e-23
1.2264813e-23
1.2264815e-23
1.226521e-23
1.2266209e-23
1.2268354e-23
1.2287421e-23
1.2275705e-23
1.2269539e-23
1.2266554e-23
1.2265264e-23
1.2264815e-23
1.2264818e-23
1.2265215e-23
1.2266216e-23
1.2268363e-23
1.2287719e-23
1.2276038e-23
1.2269903e-23
1.2266937e-23
1.2265656e-23
1.226521e-23
1.2265215e-23
1.2265613e-23
1.2266615e-23
1.2268763e-23
1.2288504e-23
1.2276924e-23
1.2270853e-23
1.2267917e-23
1.2266649e-23
1.2266209e-23
1.2266216e-23
1.2266615e-23
1.2267617e-23
1.2269766e-23
1.2290195e-23
1.227892e-23
1.2272948e-23
1.2270047e-23
1.2268791e-23
1.2268354e-23
1.2268363e-23
1.2268763e-23
1.2269766e-23
1.2271922e-23
2.8737059e-23
2.8710534e-23
2.8696514e-23
2.8689703e-23
2.8686742e-23
2.8685676e-23
2.8685583e-23
2.8686252e-23
2.8688004e-23
2.8691739e-23
2.8710534e-23
2.8684112e-23
2.8670129e-23
2.8663333e-23
2.866038e-23
2.8659325e-23
2.8659262e-23
2.8660011e-23
2.8661994e-23
2.8666435e-23
2.8696514e-23
2.8670129e-23
2.8656167e-23
2.8649382e-23
2.8646438e-23
2.8645396e-23
2.8645363e-23
2.8646184e-23
2.8648315e-23
2.8652984e-23
2.8689703e-23
2.8663333e-23
2.8649382e-23
2.8642604e-23
2.8639666e-23
2.8638634e-23
2.8638621e-23
2.8639485e-23
2.8641687e-23
2.8646435e-23
2.8686742e-23
2.866038e-23
2.8646438e-23
2.8639666e-23
2.8636732e-23
2.8635706e-23
2.8635705e-23
2.8636589e-23
2.8638821e-23
2.8643597e-23
2.8685676e-23
2.8659325e-23
2.8645396e-23
2.8638634e-23
2.8635706e-23
2.8634685e-23
2.8634689e-23
2.8635582e-23
2.8637825e-23
2.864261e-23
2.8685583e-23
2.8659262e-23
2.8645363e-23
2.8638621e-23
2.8635705e-23
2.8634689e-23
2.8634697e-23
2.8635594e-23
2.8637841e-23
2.864263e-23
2.8686252e-23
2.8660011e-23
2.8646184e-23
2.8639485e-23
2.8636589e-23
2.8635582e-23
2.8635594e-23
2.8636492e-23
2.8638742e-23
2.8643533e-23
2.8688004e-23
2.8661994e-23
2.8648315e-23
2.8641687e-23
2.8638821e-23
2.8637825e-23
2.8637841e-23
2.8638742e-23
2.8640994e-23
2.8645788e-23
2.8691739e-23
2.8666435e-23
2.8652984e-23
2.8646435e-23
2.8643597e-23
2.864261e-23
2.864263e-23
2.8643533e-23
2.8645788e-23
2.8650594e-23
6.7920895e-23
6.7860594e-23
6.782862e-23
6.7813056e-23
6.7806281e-23
6.7803839e-23
6.7803625e-23
6.7805143e-23
6.7809098e-23
6.7817452e-23
6.7860594e-23
6.7800526e-23
6.7768633e-23
6.7753102e-23
6.7746346e-23
6.7743931e-23
6.7743784e-23
6.7745491e-23
6.7749987e-23
6.7759987e-23
6.782862e-23
6.7768633e-23
6.7736789e-23
6.7721283e-23
6.7714546e-23
6.7712161e-23
6.7712086e-23
6.7713959e-23
6.77188e-23
6.7729334e-23
6.7813056e-23
6.7753102e-23
6.7721283e-23
6.7705793e-23
6.769907e-23
6.7696708e-23
6.769668e-23
6.7698653e-23
6.7703659e-23
6.7714378e-23
6.7806281e-23
6.7746346e-23
6.7714546e-23
6.769907e-23
6.7692358e-23
6.769001e-23
6.7690009e-23
6.7692028e-23
6.7697104e-23
6.7707888e-23
6.7803839e-23
6.7743931e-23
6.7712161e-23
6.7696708e-23
6.769001e-23
6.7687672e-23
6.7687684e-23
6.7689724e-23
6.7694827e-23
6.7705632e-23
6.7803625e-23
6.7743784e-23
6.7712086e-23
6.769668e-23
6.7690009e-23
6.7687684e-23
6.7687704e-23
6.7689753e-23
6.7694866e-23
6.7705679e-23
6.7805143e-23
6.7745491e-23
6.7713959e-23
6.7698653e-23
6.7692028e-23
6.7689724e-23
6.7689753e-23
6.7691807e-23
6.7696925e-23
6.7707743e-23
6.7809098e-23
6.7749987e-23
6.77188e-23
6.7703659e-23
6.7697104e-23
6.7694827e-23
6.7694866e-23
6.7696925e-23
6.7702048e-23
6.7712873e-23
6.7817452e-23
6.7759987e-23
6.7729334e-23
6.7714378e-23
6.7707888e-23
6.7705632e-23
6.7705679e-23
6.7707743e-23
6.7712873e-23
6.7723725e-23
1.6253331e-22
1.623946e-22
1.6232082e-22
1.6228483e-22
1.6226915e-22
1.6226349e-22
1.6226299e-22
1.6226648e-22
1.6227552e-22
1.6229443e-22
1.623946e-22
1.6225642e-22
1.6218282e-22
1.6214691e-22
1.6213127e-22
1.6212568e-22
1.6212533e-22
1.6212927e-22
1.6213959e-22
1.6216239e-22
1.6232082e-22
1.6218282e-22
1.6210933e-22
1.6207348e-22
1.6205788e-22
1.6205236e-22
1.6205219e-22
1.6205652e-22
1.6206765e-22
1.6209171e-22
1.6228483e-22
1.6214691e-22
1.6207348e-22
1.6203766e-22
1.620221e-22
1.6201663e-22
1.6201657e-22
1.6202113e-22
1.6203266e-22
1.6205715e-22
1.6226915e-22
1.6213127e-22
1.6205788e-22
1.620221e-22
1.6200657e-22
1.6200113e-22
1.6200113e-22
1.620058e-22
1.6201749e-22
1.6204214e-22
1.6226349e-22
1.6212568e-22
1.6205236e-22
1.6201663e-22
1.6200113e-22
1.6199572e-22
1.6199575e-22
1.6200047e-22
1.6201222e-22
1.6203692e-22
1.6226299e-22
1.6212533e-22
1.6205219e-22
1.6201657e-22
1.6200113e-22
1.6199575e-22
1.619958e-22
1.6200054e-22
1.6201232e-22
1.6203704e-22
1.6226648e-22
1.6212927e-22
1.6205652e-22
1.6202113e-22
1.620058e-22
1.6200047e-22
1.6200054e-22
1.6200529e-22
1.6201708e-22
1.6204181e-22
1.6227552e-22
1.6213959e-22
1.6206765e-22
1.6203266e-22
1.6201749e-22
1.6201222e-22
1.6201232e-22
1.6201708e-22
1.6202888e-22
1.6205363e-22
1.6229443e-22
1.6216239e-22
1.6209171e-22
1.6205715e-22
1.6204214e-22
1.6203692e-22
1.6203704e-22
1.6204181e-22
1.6205363e-22
1.6207844e-22
3.9377187e-22
3.9344903e-22
3.9327677e-22
3.9319259e-22
3.9315586e-22
3.9314261e-22
3.9314142e-22
3.9314954e-22
3.9317047e-22
3.932138e-22
3.9344903e-22
3.931274e-22
3.9295557e-22
3.9287157e-22
3.9283494e-22
3.9282183e-22
3.9282103e-22
3.9283021e-22
3.9285419e-22
3.9290682e-22
3.9327677e-22
3.9295557e-22
3.9278399e-22
3.9270012e-22
3.926636e-22
3.9265066e-22
3.9265026e-22
3.9266038e-22
3.926863e-22
3.9274195e-22
3.9319259e-22
3.9287157e-22
3.9270012e-22
3.9261635e-22
3.925799e-22
3.9256709e-22
3.9256695e-22
3.9257763e-22
3.9260448e-22
3.9266117e-22
3.9315586e-22
3.9283494e-22
3.926636e-22
3.925799e-22
3.9254352e-22
3.9253078e-22
3.925308e-22
3.9254174e-22
3.9256898e-22
3.9262604e-22
3.9314261e-22
3.9282183e-22
3.9265066e-22
3.9256709e-22
3.9253078e-22
3.9251811e-22
3.9251819e-22
3.9252925e-22
3.9255665e-22
3.9261382e-22
3.9314142e-22
3.9282103e-22
3.9265026e-22
3.9256695e-22
3.925308e-22
3.9251819e-22
3.9251833e-22
3.9252944e-22
3.9255689e-22
3.9261411e-22
3.9314954e-22
3.9283021e-22
3.9266038e-22
3.9257763e-22
3.9254174e-22
3.9252925e-22
3.9252944e-22
3.9254057e-22
3.9256805e-22
3.926253e-22
3.9317047e-22
3.9285419e-22
3.926863e-22
3.9260448e-22
3.9256898e-22
3.9255665e-22
3.9255689e-22
3.9256805e-22
3.9259556e-22
3.9265284e-22
3.932138e-22
3.9290682e-22
3.9274195e-22
3.9266117e-22
3.9262604e-22
3.9261382e-22
3.9261411e-22
3.926253e-22
3.9265284e-22
3.9271026e-22
9.6580574e-22
9.6504552e-22
9.6463865e-22
9.6443946e-22
9.6435246e-22
9.6432103e-22
9.6431821e-22
9.6433734e-22
9.6438635e-22
9.6448685e-22
9.6504552e-22
9.6428815e-22
9.6388228e-22
9.636835e-22
9.6359674e-22
9.6356566e-22
9.6356375e-22
9.6358545e-22
9.6364185e-22
9.6376483e-22
9.6463865e-22
9.6388228e-22
9.6347701e-22
9.6327855e-22
9.6319203e-22
9.6316136e-22
9.6316042e-22
9.6318439e-22
9.6324547e-22
9.6337576e-22
9.6443946e-22
9.636835e-22
9.6327855e-22
9.6308029e-22
9.6299396e-22
9.6296359e-22
9.6296331e-22
9.6298861e-22
9.6305195e-22
9.6318476e-22
9.6435246e-22
9.6359674e-22
9.6319203e-22
9.6299396e-22
9.6290777e-22
9.628776e-22
9.6287766e-22
9.6290361e-22
9.629679e-22
9.6310158e-22
9.6432103e-22
9.6356566e-22
9.6316136e-22
9.6296359e-22
9.628776e-22
9.6284757e-22
9.6284781e-22
9.6287403e-22
9.6293869e-22
9.6307267e-22
9.6431821e-22
9.6356375e-22
9.6316042e-22
9.6296331e-22
9.6287766e-22
9.6284781e-22
9.6284817e-22
9.6287451e-22
9.629393e-22
9.6307339e-22
9.6433734e-22
9.6358545e-22
9.6318439e-22
9.6298861e-22
9.6290361e-22
9.6287403e-22
9.6287451e-22
9.6290093e-22
9.6296578e-22
9.6309992e-22
9.6438635e-22
9.6364185e-22
9.6324547e-22
9.6305195e-22
9.629679e-22
9.6293869e-22
9.629393e-22
9.6296578e-22
9.630307e-22
9.6316494e-22
9.6448685e-22
9.6376483e-22
9.6337576e-22
9.6318476e-22
9.6310158e-22
9.6307267e-22