/*--------------------------------*- C++ -*----------------------------------*\
| =========                 |                                                 |
| \\      /  F ield         | OpenFOAM: The Open Source CFD Toolbox           |
|  \\    /   O peration     | Version:  dev                                   |
|   \\  /    A nd           | Web:      www.OpenFOAM.org                      |
|    \\/     M anipulation  |                                                 |
\*---------------------------------------------------------------------------*/
FoamFile
{
    version     2.0;
    format      ascii;
    class       volScalarField;
    location    "16";
    object      A;
}
// * * * * * * * * * * * * * * * * * * * * * * * * * * * * * * * * * * * * * //

dimensions      [0 0 0 0 1 0 0];

internalField   nonuniform List<scalar> 
10000
(
2.678463e-59
2.6779869e-59
2.67779e-59
2.6777184e-59
2.6776961e-59
2.6776902e-59
2.6776891e-59
2.6776899e-59
2.6776934e-59
2.6777051e-59
2.6779869e-59
2.6775111e-59
2.6773142e-59
2.6772427e-59
2.6772204e-59
2.6772145e-59
2.6772136e-59
2.6772147e-59
2.6772196e-59
2.677236e-59
2.67779e-59
2.6773142e-59
2.6771174e-59
2.6770459e-59
2.6770236e-59
2.6770178e-59
2.6770169e-59
2.6770183e-59
2.6770239e-59
2.6770417e-59
2.6777184e-59
2.6772427e-59
2.6770459e-59
2.6769744e-59
2.6769521e-59
2.6769463e-59
2.6769454e-59
2.676947e-59
2.6769529e-59
2.6769711e-59
2.6776961e-59
2.6772204e-59
2.6770236e-59
2.6769521e-59
2.6769299e-59
2.676924e-59
2.6769232e-59
2.6769249e-59
2.6769308e-59
2.6769491e-59
2.6776902e-59
2.6772145e-59
2.6770178e-59
2.6769463e-59
2.676924e-59
2.6769182e-59
2.6769174e-59
2.676919e-59
2.676925e-59
2.6769434e-59
2.6776891e-59
2.6772136e-59
2.6770169e-59
2.6769454e-59
2.6769232e-59
2.6769174e-59
2.6769166e-59
2.6769182e-59
2.6769242e-59
2.6769426e-59
2.6776899e-59
2.6772147e-59
2.6770183e-59
2.676947e-59
2.6769249e-59
2.676919e-59
2.6769182e-59
2.6769199e-59
2.6769259e-59
2.6769442e-59
2.6776934e-59
2.6772196e-59
2.6770239e-59
2.6769529e-59
2.6769308e-59
2.676925e-59
2.6769242e-59
2.6769259e-59
2.6769319e-59
2.6769502e-59
2.6777051e-59
2.677236e-59
2.6770417e-59
2.6769711e-59
2.6769491e-59
2.6769434e-59
2.6769426e-59
2.6769442e-59
2.6769502e-59
2.6769686e-59
1.465452e-58
1.4651987e-58
1.4650929e-58
1.4650544e-58
1.4650425e-58
1.4650393e-58
1.4650387e-58
1.4650391e-58
1.465041e-58
1.4650475e-58
1.4651987e-58
1.4649455e-58
1.4648398e-58
1.4648013e-58
1.4647894e-58
1.4647862e-58
1.4647857e-58
1.4647863e-58
1.4647889e-58
1.464798e-58
1.4650929e-58
1.4648398e-58
1.4647341e-58
1.4646956e-58
1.4646837e-58
1.4646805e-58
1.46468e-58
1.4646808e-58
1.4646838e-58
1.4646937e-58
1.4650544e-58
1.4648013e-58
1.4646956e-58
1.4646572e-58
1.4646452e-58
1.4646421e-58
1.4646416e-58
1.4646425e-58
1.4646457e-58
1.4646557e-58
1.4650425e-58
1.4647894e-58
1.4646837e-58
1.4646452e-58
1.4646333e-58
1.4646301e-58
1.4646297e-58
1.4646306e-58
1.4646338e-58
1.4646439e-58
1.4650393e-58
1.4647862e-58
1.4646805e-58
1.4646421e-58
1.4646301e-58
1.464627e-58
1.4646265e-58
1.4646274e-58
1.4646307e-58
1.4646408e-58
1.4650387e-58
1.4647857e-58
1.46468e-58
1.4646416e-58
1.4646297e-58
1.4646265e-58
1.4646261e-58
1.464627e-58
1.4646302e-58
1.4646403e-58
1.4650391e-58
1.4647863e-58
1.4646808e-58
1.4646425e-58
1.4646306e-58
1.4646274e-58
1.464627e-58
1.4646279e-58
1.4646311e-58
1.4646412e-58
1.465041e-58
1.4647889e-58
1.4646838e-58
1.4646457e-58
1.4646338e-58
1.4646307e-58
1.4646302e-58
1.4646311e-58
1.4646344e-58
1.4646445e-58
1.4650475e-58
1.464798e-58
1.4646937e-58
1.4646557e-58
1.4646439e-58
1.4646408e-58
1.4646403e-58
1.4646412e-58
1.4646445e-58
1.4646546e-58
6.4167916e-58
6.4157133e-58
6.4152614e-58
6.4150969e-58
6.4150456e-58
6.415032e-58
6.4150295e-58
6.4150313e-58
6.4150391e-58
6.4150669e-58
6.4157133e-58
6.4146356e-58
6.4141839e-58
6.4140194e-58
6.4139682e-58
6.4139547e-58
6.4139524e-58
6.4139552e-58
6.4139662e-58
6.4140049e-58
6.4152614e-58
6.4141839e-58
6.4137323e-58
6.4135678e-58
6.4135166e-58
6.4135031e-58
6.4135011e-58
6.4135045e-58
6.4135174e-58
6.4135593e-58
6.4150969e-58
6.4140194e-58
6.4135678e-58
6.4134034e-58
6.4133522e-58
6.4133388e-58
6.4133368e-58
6.4133406e-58
6.4133541e-58
6.4133969e-58
6.4150456e-58
6.4139682e-58
6.4135166e-58
6.4133522e-58
6.413301e-58
6.4132876e-58
6.4132857e-58
6.4132895e-58
6.4133033e-58
6.4133464e-58
6.415032e-58
6.4139547e-58
6.4135031e-58
6.4133388e-58
6.4132876e-58
6.4132742e-58
6.4132723e-58
6.4132762e-58
6.41329e-58
6.4133331e-58
6.4150295e-58
6.4139524e-58
6.4135011e-58
6.4133368e-58
6.4132857e-58
6.4132723e-58
6.4132704e-58
6.4132743e-58
6.4132881e-58
6.4133313e-58
6.4150313e-58
6.4139552e-58
6.4135045e-58
6.4133406e-58
6.4132895e-58
6.4132762e-58
6.4132743e-58
6.4132782e-58
6.413292e-58
6.4133352e-58
6.4150391e-58
6.4139662e-58
6.4135174e-58
6.4133541e-58
6.4133033e-58
6.41329e-58
6.4132881e-58
6.413292e-58
6.4133058e-58
6.413349e-58
6.4150669e-58
6.4140049e-58
6.4135593e-58
6.4133969e-58
6.4133464e-58
6.4133331e-58
6.4133313e-58
6.4133352e-58
6.413349e-58
6.4133922e-58
2.8375869e-57
2.8371236e-57
2.8369289e-57
2.8368579e-57
2.8368358e-57
2.8368299e-57
2.8368288e-57
2.8368296e-57
2.8368329e-57
2.8368446e-57
2.8371236e-57
2.8366605e-57
2.8364659e-57
2.836395e-57
2.8363728e-57
2.836367e-57
2.836366e-57
2.8363672e-57
2.836372e-57
2.8363884e-57
2.8369289e-57
2.8364659e-57
2.8362713e-57
2.8362004e-57
2.8361783e-57
2.8361724e-57
2.8361716e-57
2.8361731e-57
2.8361786e-57
2.8361964e-57
2.8368579e-57
2.836395e-57
2.8362004e-57
2.8361294e-57
2.8361073e-57
2.8361015e-57
2.8361007e-57
2.8361023e-57
2.8361082e-57
2.8361264e-57
2.8368358e-57
2.8363728e-57
2.8361783e-57
2.8361073e-57
2.8360852e-57
2.8360794e-57
2.8360786e-57
2.8360803e-57
2.8360862e-57
2.8361046e-57
2.8368299e-57
2.836367e-57
2.8361724e-57
2.8361015e-57
2.8360794e-57
2.8360737e-57
2.8360729e-57
2.8360745e-57
2.8360805e-57
2.8360989e-57
2.8368288e-57
2.836366e-57
2.8361716e-57
2.8361007e-57
2.8360786e-57
2.8360729e-57
2.836072e-57
2.8360737e-57
2.8360797e-57
2.8360981e-57
2.8368296e-57
2.8363672e-57
2.8361731e-57
2.8361023e-57
2.8360803e-57
2.8360745e-57
2.8360737e-57
2.8360754e-57
2.8360814e-57
2.8360998e-57
2.8368329e-57
2.836372e-57
2.8361786e-57
2.8361082e-57
2.8360862e-57
2.8360805e-57
2.8360797e-57
2.8360814e-57
2.8360874e-57
2.8361057e-57
2.8368446e-57
2.8363884e-57
2.8361964e-57
2.8361264e-57
2.8361046e-57
2.8360989e-57
2.8360981e-57
2.8360998e-57
2.8361057e-57
2.8361241e-57
1.2814309e-56
1.2812277e-56
1.2811421e-56
1.2811109e-56
1.2811011e-56
1.2810985e-56
1.2810981e-56
1.2810984e-56
1.2810999e-56
1.2811048e-56
1.2812277e-56
1.2810247e-56
1.2809391e-56
1.2809078e-56
1.2808981e-56
1.2808955e-56
1.2808951e-56
1.2808956e-56
1.2808977e-56
1.2809048e-56
1.2811421e-56
1.2809391e-56
1.2808535e-56
1.2808223e-56
1.2808125e-56
1.28081e-56
1.2808096e-56
1.2808102e-56
1.2808127e-56
1.2808204e-56
1.2811109e-56
1.2809078e-56
1.2808223e-56
1.280791e-56
1.2807813e-56
1.2807787e-56
1.2807784e-56
1.2807791e-56
1.2807817e-56
1.2807896e-56
1.2811011e-56
1.2808981e-56
1.2808125e-56
1.2807813e-56
1.2807716e-56
1.280769e-56
1.2807687e-56
1.2807694e-56
1.280772e-56
1.28078e-56
1.2810985e-56
1.2808955e-56
1.28081e-56
1.2807787e-56
1.280769e-56
1.2807665e-56
1.2807661e-56
1.2807669e-56
1.2807695e-56
1.2807775e-56
1.2810981e-56
1.2808951e-56
1.2808096e-56
1.2807784e-56
1.2807687e-56
1.2807661e-56
1.2807658e-56
1.2807665e-56
1.2807691e-56
1.2807771e-56
1.2810984e-56
1.2808956e-56
1.2808102e-56
1.2807791e-56
1.2807694e-56
1.2807669e-56
1.2807665e-56
1.2807673e-56
1.2807699e-56
1.2807779e-56
1.2810999e-56
1.2808977e-56
1.2808127e-56
1.2807817e-56
1.280772e-56
1.2807695e-56
1.2807691e-56
1.2807699e-56
1.2807725e-56
1.2807805e-56
1.2811048e-56
1.2809048e-56
1.2808204e-56
1.2807896e-56
1.28078e-56
1.2807775e-56
1.2807771e-56
1.2807779e-56
1.2807805e-56
1.2807885e-56
5.913214e-56
5.9123039e-56
5.9119192e-56
5.9117787e-56
5.9117349e-56
5.9117233e-56
5.9117211e-56
5.9117227e-56
5.9117292e-56
5.9117509e-56
5.9123039e-56
5.9113942e-56
5.9110097e-56
5.9108692e-56
5.9108254e-56
5.9108138e-56
5.9108119e-56
5.9108143e-56
5.9108237e-56
5.9108552e-56
5.9119192e-56
5.9110097e-56
5.9106252e-56
5.9104848e-56
5.910441e-56
5.9104295e-56
5.9104278e-56
5.9104308e-56
5.9104418e-56
5.9104761e-56
5.9117787e-56
5.9108692e-56
5.9104848e-56
5.9103444e-56
5.9103006e-56
5.9102891e-56
5.9102875e-56
5.9102908e-56
5.9103024e-56
5.9103376e-56
5.9117349e-56
5.9108254e-56
5.910441e-56
5.9103006e-56
5.9102569e-56
5.9102454e-56
5.9102438e-56
5.9102472e-56
5.910259e-56
5.9102944e-56
5.9117233e-56
5.9108138e-56
5.9104295e-56
5.9102891e-56
5.9102454e-56
5.9102339e-56
5.9102323e-56
5.9102357e-56
5.9102476e-56
5.910283e-56
5.9117211e-56
5.9108119e-56
5.9104278e-56
5.9102875e-56
5.9102438e-56
5.9102323e-56
5.9102308e-56
5.9102342e-56
5.910246e-56
5.9102815e-56
5.9117227e-56
5.9108143e-56
5.9104308e-56
5.9102908e-56
5.9102472e-56
5.9102357e-56
5.9102342e-56
5.9102376e-56
5.9102494e-56
5.9102849e-56
5.9117292e-56
5.9108237e-56
5.9104418e-56
5.9103024e-56
5.910259e-56
5.9102476e-56
5.910246e-56
5.9102494e-56
5.9102613e-56
5.9102967e-56
5.9117509e-56
5.9108552e-56
5.9104761e-56
5.9103376e-56
5.9102944e-56
5.910283e-56
5.9102815e-56
5.9102849e-56
5.9102967e-56
5.9103322e-56
2.7884437e-55
2.7880272e-55
2.7878508e-55
2.7877863e-55
2.7877661e-55
2.7877608e-55
2.7877598e-55
2.7877605e-55
2.7877635e-55
2.7877732e-55
2.7880272e-55
2.787611e-55
2.7874346e-55
2.7873701e-55
2.78735e-55
2.7873447e-55
2.7873438e-55
2.7873449e-55
2.7873492e-55
2.7873634e-55
2.7878508e-55
2.7874346e-55
2.7872582e-55
2.7871938e-55
2.7871736e-55
2.7871683e-55
2.7871676e-55
2.7871689e-55
2.787174e-55
2.7871896e-55
2.7877863e-55
2.7873701e-55
2.7871938e-55
2.7871293e-55
2.7871092e-55
2.7871039e-55
2.7871031e-55
2.7871047e-55
2.78711e-55
2.787126e-55
2.7877661e-55
2.78735e-55
2.7871736e-55
2.7871092e-55
2.787089e-55
2.7870838e-55
2.787083e-55
2.7870846e-55
2.78709e-55
2.7871061e-55
2.7877608e-55
2.7873447e-55
2.7871683e-55
2.7871039e-55
2.7870838e-55
2.7870785e-55
2.7870778e-55
2.7870794e-55
2.7870848e-55
2.7871009e-55
2.7877598e-55
2.7873438e-55
2.7871676e-55
2.7871031e-55
2.787083e-55
2.7870778e-55
2.7870771e-55
2.7870786e-55
2.7870841e-55
2.7871002e-55
2.7877605e-55
2.7873449e-55
2.7871689e-55
2.7871047e-55
2.7870846e-55
2.7870794e-55
2.7870786e-55
2.7870802e-55
2.7870857e-55
2.7871018e-55
2.7877635e-55
2.7873492e-55
2.787174e-55
2.78711e-55
2.78709e-55
2.7870848e-55
2.7870841e-55
2.7870857e-55
2.7870911e-55
2.7871072e-55
2.7877732e-55
2.7873634e-55
2.7871896e-55
2.787126e-55
2.7871061e-55
2.7871009e-55
2.7871002e-55
2.7871018e-55
2.7871072e-55
2.7871234e-55
1.3437589e-54
1.3435642e-54
1.3434815e-54
1.3434513e-54
1.3434418e-54
1.3434393e-54
1.3434388e-54
1.3434392e-54
1.3434406e-54
1.343445e-54
1.3435642e-54
1.3433697e-54
1.343287e-54
1.3432568e-54
1.3432473e-54
1.3432448e-54
1.3432444e-54
1.3432449e-54
1.343247e-54
1.3432535e-54
1.3434815e-54
1.343287e-54
1.3432044e-54
1.3431741e-54
1.3431647e-54
1.3431622e-54
1.3431618e-54
1.3431625e-54
1.3431649e-54
1.3431721e-54
1.3434513e-54
1.3432568e-54
1.3431741e-54
1.3431439e-54
1.3431344e-54
1.343132e-54
1.3431316e-54
1.3431323e-54
1.3431348e-54
1.3431423e-54
1.3434418e-54
1.3432473e-54
1.3431647e-54
1.3431344e-54
1.343125e-54
1.3431225e-54
1.3431222e-54
1.3431229e-54
1.3431255e-54
1.3431329e-54
1.3434393e-54
1.3432448e-54
1.3431622e-54
1.343132e-54
1.3431225e-54
1.34312e-54
1.3431197e-54
1.3431205e-54
1.343123e-54
1.3431305e-54
1.3434388e-54
1.3432444e-54
1.3431618e-54
1.3431316e-54
1.3431222e-54
1.3431197e-54
1.3431194e-54
1.3431201e-54
1.3431227e-54
1.3431302e-54
1.3434392e-54
1.3432449e-54
1.3431625e-54
1.3431323e-54
1.3431229e-54
1.3431205e-54
1.3431201e-54
1.3431209e-54
1.3431234e-54
1.3431309e-54
1.3434406e-54
1.343247e-54
1.3431649e-54
1.3431348e-54
1.3431255e-54
1.343123e-54
1.3431227e-54
1.3431234e-54
1.343126e-54
1.3431335e-54
1.343445e-54
1.3432535e-54
1.3431721e-54
1.3431423e-54
1.3431329e-54
1.3431305e-54
1.3431302e-54
1.3431309e-54
1.3431335e-54
1.343141e-54
6.6177122e-54
6.6167829e-54
6.6163872e-54
6.6162422e-54
6.6161969e-54
6.6161848e-54
6.6161827e-54
6.6161843e-54
6.6161909e-54
6.6162116e-54
6.6167829e-54
6.6158541e-54
6.6154585e-54
6.6153135e-54
6.6152683e-54
6.6152563e-54
6.6152543e-54
6.6152569e-54
6.6152666e-54
6.6152978e-54
6.6163872e-54
6.6154585e-54
6.6150629e-54
6.614918e-54
6.6148728e-54
6.6148609e-54
6.6148591e-54
6.6148623e-54
6.6148737e-54
6.614908e-54
6.6162422e-54
6.6153135e-54
6.614918e-54
6.6147731e-54
6.6147279e-54
6.614716e-54
6.6147144e-54
6.6147178e-54
6.6147299e-54
6.6147651e-54
6.6161969e-54
6.6152683e-54
6.6148728e-54
6.6147279e-54
6.6146826e-54
6.6146708e-54
6.6146692e-54
6.6146728e-54
6.614685e-54
6.6147205e-54
6.6161848e-54
6.6152563e-54
6.6148609e-54
6.614716e-54
6.6146708e-54
6.6146589e-54
6.6146573e-54
6.6146609e-54
6.6146733e-54
6.6147088e-54
6.6161827e-54
6.6152543e-54
6.6148591e-54
6.6147144e-54
6.6146692e-54
6.6146573e-54
6.6146557e-54
6.6146594e-54
6.6146717e-54
6.6147072e-54
6.6161843e-54
6.6152569e-54
6.6148623e-54
6.6147178e-54
6.6146728e-54
6.6146609e-54
6.6146594e-54
6.614663e-54
6.6146753e-54
6.6147108e-54
6.6161909e-54
6.6152666e-54
6.6148737e-54
6.6147299e-54
6.614685e-54
6.6146733e-54
6.6146717e-54
6.6146753e-54
6.6146877e-54
6.6147232e-54
6.6162116e-54
6.6152978e-54
6.614908e-54
6.6147651e-54
6.6147205e-54
6.6147088e-54
6.6147072e-54
6.6147108e-54
6.6147232e-54
6.6147587e-54
3.3305989e-53
3.3301457e-53
3.3299523e-53
3.3298813e-53
3.3298591e-53
3.3298533e-53
3.3298522e-53
3.329853e-53
3.3298562e-53
3.3298661e-53
3.3301457e-53
3.3296928e-53
3.3294994e-53
3.3294285e-53
3.3294063e-53
3.3294004e-53
3.3293995e-53
3.3294008e-53
3.3294055e-53
3.3294206e-53
3.3299523e-53
3.3294994e-53
3.329306e-53
3.3292351e-53
3.329213e-53
3.3292071e-53
3.3292063e-53
3.3292079e-53
3.3292135e-53
3.3292301e-53
3.3298813e-53
3.3294285e-53
3.3292351e-53
3.3291642e-53
3.3291421e-53
3.3291362e-53
3.3291355e-53
3.3291372e-53
3.3291431e-53
3.3291602e-53
3.3298591e-53
3.3294063e-53
3.329213e-53
3.3291421e-53
3.3291199e-53
3.3291141e-53
3.3291133e-53
3.3291151e-53
3.3291211e-53
3.3291383e-53
3.3298533e-53
3.3294004e-53
3.3292071e-53
3.3291362e-53
3.3291141e-53
3.3291083e-53
3.3291075e-53
3.3291093e-53
3.3291154e-53
3.3291326e-53
3.3298522e-53
3.3293995e-53
3.3292063e-53
3.3291355e-53
3.3291133e-53
3.3291075e-53
3.3291068e-53
3.3291086e-53
3.3291146e-53
3.3291319e-53
3.329853e-53
3.3294008e-53
3.3292079e-53
3.3291372e-53
3.3291151e-53
3.3291093e-53
3.3291086e-53
3.3291104e-53
3.3291164e-53
3.3291337e-53
3.3298562e-53
3.3294055e-53
3.3292135e-53
3.3291431e-53
3.3291211e-53
3.3291154e-53
3.3291146e-53
3.3291164e-53
3.3291225e-53
3.3291397e-53
3.3298661e-53
3.3294206e-53
3.3292301e-53
3.3291602e-53
3.3291383e-53
3.3291326e-53
3.3291319e-53
3.3291337e-53
3.3291397e-53
3.329157e-53
1.7130118e-52
1.7127861e-52
1.7126895e-52
1.7126541e-52
1.712643e-52
1.71264e-52
1.7126395e-52
1.7126399e-52
1.7126415e-52
1.7126463e-52
1.7127861e-52
1.7125605e-52
1.7124639e-52
1.7124285e-52
1.7124174e-52
1.7124145e-52
1.712414e-52
1.7124146e-52
1.712417e-52
1.7124245e-52
1.7126895e-52
1.7124639e-52
1.7123674e-52
1.712332e-52
1.7123209e-52
1.712318e-52
1.7123175e-52
1.7123183e-52
1.7123212e-52
1.7123294e-52
1.7126541e-52
1.7124285e-52
1.712332e-52
1.7122965e-52
1.7122854e-52
1.7122825e-52
1.7122821e-52
1.712283e-52
1.712286e-52
1.7122945e-52
1.712643e-52
1.7124174e-52
1.7123209e-52
1.7122854e-52
1.7122744e-52
1.7122715e-52
1.7122711e-52
1.712272e-52
1.712275e-52
1.7122835e-52
1.71264e-52
1.7124145e-52
1.712318e-52
1.7122825e-52
1.7122715e-52
1.7122686e-52
1.7122682e-52
1.7122691e-52
1.7122721e-52
1.7122807e-52
1.7126395e-52
1.712414e-52
1.7123175e-52
1.7122821e-52
1.7122711e-52
1.7122682e-52
1.7122678e-52
1.7122687e-52
1.7122718e-52
1.7122803e-52
1.7126399e-52
1.7124146e-52
1.7123183e-52
1.712283e-52
1.712272e-52
1.7122691e-52
1.7122687e-52
1.7122696e-52
1.7122727e-52
1.7122812e-52
1.7126415e-52
1.712417e-52
1.7123212e-52
1.712286e-52
1.712275e-52
1.7122721e-52
1.7122718e-52
1.7122727e-52
1.7122757e-52
1.7122843e-52
1.7126463e-52
1.7124245e-52
1.7123294e-52
1.7122945e-52
1.7122835e-52
1.7122807e-52
1.7122803e-52
1.7122812e-52
1.7122843e-52
1.7122928e-52
9.0035176e-52
9.0023692e-52
9.0018766e-52
9.0016957e-52
9.001639e-52
9.001624e-52
9.0016213e-52
9.0016234e-52
9.0016316e-52
9.0016557e-52
9.0023692e-52
9.0012214e-52
9.000729e-52
9.000548e-52
9.0004915e-52
9.0004765e-52
9.0004741e-52
9.0004774e-52
9.0004896e-52
9.0005274e-52
9.0018766e-52
9.000729e-52
9.0002367e-52
9.0000558e-52
8.9999992e-52
8.9999843e-52
8.9999822e-52
8.9999863e-52
9.0000008e-52
9.0000426e-52
9.0016957e-52
9.000548e-52
9.0000558e-52
8.9998749e-52
8.9998184e-52
8.9998035e-52
8.9998015e-52
8.999806e-52
8.9998213e-52
8.9998643e-52
9.001639e-52
9.0004915e-52
8.9999992e-52
8.9998184e-52
8.9997618e-52
8.999747e-52
8.9997451e-52
8.9997497e-52
8.9997653e-52
8.9998085e-52
9.001624e-52
9.0004765e-52
8.9999843e-52
8.9998035e-52
8.999747e-52
8.9997322e-52
8.9997303e-52
8.9997349e-52
8.9997506e-52
8.9997939e-52
9.0016213e-52
9.0004741e-52
8.9999822e-52
8.9998015e-52
8.9997451e-52
8.9997303e-52
8.9997283e-52
8.999733e-52
8.9997487e-52
8.9997921e-52
9.0016234e-52
9.0004774e-52
8.9999863e-52
8.999806e-52
8.9997497e-52
8.9997349e-52
8.999733e-52
8.9997377e-52
8.9997534e-52
8.9997968e-52
9.0016316e-52
9.0004896e-52
9.0000008e-52
8.9998213e-52
8.9997653e-52
8.9997506e-52
8.9997487e-52
8.9997534e-52
8.999769e-52
8.9998124e-52
9.0016557e-52
9.0005274e-52
9.0000426e-52
8.9998643e-52
8.9998085e-52
8.9997939e-52
8.9997921e-52
8.9997968e-52
8.9998124e-52
8.9998558e-52
4.8357358e-51
4.8351391e-51
4.8348825e-51
4.8347882e-51
4.8347587e-51
4.8347508e-51
4.8347494e-51
4.8347505e-51
4.8347548e-51
4.8347671e-51
4.8351391e-51
4.8345426e-51
4.8342862e-51
4.8341919e-51
4.8341624e-51
4.8341546e-51
4.8341534e-51
4.8341551e-51
4.8341615e-51
4.834181e-51
4.8348825e-51
4.8342862e-51
4.8340298e-51
4.8339355e-51
4.833906e-51
4.8338983e-51
4.8338972e-51
4.8338994e-51
4.8339069e-51
4.8339286e-51
4.8347882e-51
4.8341919e-51
4.8339355e-51
4.8338412e-51
4.8338118e-51
4.833804e-51
4.833803e-51
4.8338054e-51
4.8338134e-51
4.8338357e-51
4.8347587e-51
4.8341624e-51
4.833906e-51
4.8338118e-51
4.8337823e-51
4.8337746e-51
4.8337735e-51
4.833776e-51
4.8337842e-51
4.8338066e-51
4.8347508e-51
4.8341546e-51
4.8338983e-51
4.833804e-51
4.8337746e-51
4.8337668e-51
4.8337658e-51
4.8337683e-51
4.8337765e-51
4.833799e-51
4.8347494e-51
4.8341534e-51
4.8338972e-51
4.833803e-51
4.8337735e-51
4.8337658e-51
4.8337648e-51
4.8337673e-51
4.8337755e-51
4.833798e-51
4.8347505e-51
4.8341551e-51
4.8338994e-51
4.8338054e-51
4.833776e-51
4.8337683e-51
4.8337673e-51
4.8337698e-51
4.833778e-51
4.8338005e-51
4.8347548e-51
4.8341615e-51
4.8339069e-51
4.8338134e-51
4.8337842e-51
4.8337765e-51
4.8337755e-51
4.833778e-51
4.8337862e-51
4.8338087e-51
4.8347671e-51
4.834181e-51
4.8339286e-51
4.8338357e-51
4.8338066e-51
4.833799e-51
4.833798e-51
4.8338005e-51
4.8338087e-51
4.8338312e-51
2.653935e-50
2.6536184e-50
2.6534819e-50
2.6534317e-50
2.653416e-50
2.6534118e-50
2.6534111e-50
2.6534117e-50
2.6534139e-50
2.6534204e-50
2.6536184e-50
2.6533019e-50
2.6531655e-50
2.6531153e-50
2.6530996e-50
2.6530954e-50
2.6530948e-50
2.6530957e-50
2.6530991e-50
2.6531095e-50
2.6534819e-50
2.6531655e-50
2.6530292e-50
2.652979e-50
2.6529633e-50
2.6529591e-50
2.6529585e-50
2.6529597e-50
2.6529638e-50
2.6529753e-50
2.6534317e-50
2.6531153e-50
2.652979e-50
2.6529288e-50
2.6529131e-50
2.652909e-50
2.6529084e-50
2.6529097e-50
2.652914e-50
2.6529258e-50
2.653416e-50
2.6530996e-50
2.6529633e-50
2.6529131e-50
2.6528974e-50
2.6528933e-50
2.6528927e-50
2.6528941e-50
2.6528984e-50
2.6529103e-50
2.6534118e-50
2.6530954e-50
2.6529591e-50
2.652909e-50
2.6528933e-50
2.6528892e-50
2.6528886e-50
2.65289e-50
2.6528944e-50
2.6529063e-50
2.6534111e-50
2.6530948e-50
2.6529585e-50
2.6529084e-50
2.6528927e-50
2.6528886e-50
2.6528881e-50
2.6528894e-50
2.6528938e-50
2.6529058e-50
2.6534117e-50
2.6530957e-50
2.6529597e-50
2.6529097e-50
2.6528941e-50
2.65289e-50
2.6528894e-50
2.6528908e-50
2.6528952e-50
2.6529071e-50
2.6534139e-50
2.6530991e-50
2.6529638e-50
2.652914e-50
2.6528984e-50
2.6528944e-50
2.6528938e-50
2.6528952e-50
2.6528996e-50
2.6529115e-50
2.6534204e-50
2.6531095e-50
2.6529753e-50
2.6529258e-50
2.6529103e-50
2.6529063e-50
2.6529058e-50
2.6529071e-50
2.6529115e-50
2.6529234e-50
1.4882239e-49
1.4880523e-49
1.4879782e-49
1.4879509e-49
1.4879424e-49
1.4879401e-49
1.4879397e-49
1.48794e-49
1.4879413e-49
1.4879447e-49
1.4880523e-49
1.4878808e-49
1.4878067e-49
1.4877795e-49
1.4877709e-49
1.4877687e-49
1.4877683e-49
1.4877688e-49
1.4877707e-49
1.4877763e-49
1.4879782e-49
1.4878067e-49
1.4877327e-49
1.4877054e-49
1.4876969e-49
1.4876946e-49
1.4876943e-49
1.487695e-49
1.4876972e-49
1.4877034e-49
1.4879509e-49
1.4877795e-49
1.4877054e-49
1.4876781e-49
1.4876696e-49
1.4876674e-49
1.4876671e-49
1.4876678e-49
1.4876701e-49
1.4876765e-49
1.4879424e-49
1.4877709e-49
1.4876969e-49
1.4876696e-49
1.4876611e-49
1.4876588e-49
1.4876585e-49
1.4876593e-49
1.4876617e-49
1.4876681e-49
1.4879401e-49
1.4877687e-49
1.4876946e-49
1.4876674e-49
1.4876588e-49
1.4876566e-49
1.4876563e-49
1.487657e-49
1.4876595e-49
1.4876659e-49
1.4879397e-49
1.4877683e-49
1.4876943e-49
1.4876671e-49
1.4876585e-49
1.4876563e-49
1.487656e-49
1.4876568e-49
1.4876592e-49
1.4876656e-49
1.48794e-49
1.4877688e-49
1.487695e-49
1.4876678e-49
1.4876593e-49
1.487657e-49
1.4876568e-49
1.4876575e-49
1.4876599e-49
1.4876664e-49
1.4879413e-49
1.4877707e-49
1.4876972e-49
1.4876701e-49
1.4876617e-49
1.4876595e-49
1.4876592e-49
1.4876599e-49
1.4876623e-49
1.4876688e-49
1.4879447e-49
1.4877763e-49
1.4877034e-49
1.4876765e-49
1.4876681e-49
1.4876659e-49
1.4876656e-49
1.4876664e-49
1.4876688e-49
1.4876753e-49
8.5263505e-49
8.5254011e-49
8.5249904e-49
8.5248389e-49
8.5247915e-49
8.5247789e-49
8.5247766e-49
8.5247785e-49
8.5247853e-49
8.5248039e-49
8.5254011e-49
8.5244522e-49
8.5240416e-49
8.5238902e-49
8.5238428e-49
8.5238303e-49
8.5238283e-49
8.5238312e-49
8.5238416e-49
8.5238724e-49
8.5249904e-49
8.5240416e-49
8.5236311e-49
8.5234797e-49
8.5234323e-49
8.5234198e-49
8.5234181e-49
8.5234218e-49
8.5234342e-49
8.5234686e-49
8.5248389e-49
8.5238902e-49
8.5234797e-49
8.5233283e-49
8.5232809e-49
8.5232685e-49
8.5232669e-49
8.5232709e-49
8.5232841e-49
8.5233195e-49
8.5247915e-49
8.5238428e-49
8.5234323e-49
8.5232809e-49
8.5232336e-49
8.5232211e-49
8.5232196e-49
8.5232237e-49
8.5232371e-49
8.5232728e-49
8.5247789e-49
8.5238303e-49
8.5234198e-49
8.5232685e-49
8.5232211e-49
8.5232087e-49
8.5232072e-49
8.5232113e-49
8.5232248e-49
8.5232606e-49
8.5247766e-49
8.5238283e-49
8.5234181e-49
8.5232669e-49
8.5232196e-49
8.5232072e-49
8.5232057e-49
8.5232098e-49
8.5232233e-49
8.5232591e-49
8.5247785e-49
8.5238312e-49
8.5234218e-49
8.5232709e-49
8.5232237e-49
8.5232113e-49
8.5232098e-49
8.523214e-49
8.5232275e-49
8.5232633e-49
8.5247853e-49
8.5238416e-49
8.5234342e-49
8.5232841e-49
8.5232371e-49
8.5232248e-49
8.5232233e-49
8.5232275e-49
8.523241e-49
8.5232768e-49
8.5248039e-49
8.5238724e-49
8.5234686e-49
8.5233195e-49
8.5232728e-49
8.5232606e-49
8.5232591e-49
8.5232633e-49
8.5232768e-49
8.5233126e-49
4.9903986e-48
4.9898623e-48
4.9896298e-48
4.989544e-48
4.9895172e-48
4.98951e-48
4.9895088e-48
4.9895098e-48
4.9895137e-48
4.989524e-48
4.9898623e-48
4.9893263e-48
4.9890939e-48
4.9890081e-48
4.9889812e-48
4.9889741e-48
4.988973e-48
4.9889747e-48
4.9889807e-48
4.988998e-48
4.9896298e-48
4.9890939e-48
4.9888615e-48
4.9887758e-48
4.9887489e-48
4.9887418e-48
4.9887409e-48
4.988743e-48
4.9887501e-48
4.9887695e-48
4.989544e-48
4.9890081e-48
4.9887758e-48
4.98869e-48
4.9886631e-48
4.9886561e-48
4.9886552e-48
4.9886575e-48
4.988665e-48
4.9886851e-48
4.9895172e-48
4.9889812e-48
4.9887489e-48
4.9886631e-48
4.9886363e-48
4.9886293e-48
4.9886284e-48
4.9886308e-48
4.9886384e-48
4.9886586e-48
4.98951e-48
4.9889741e-48
4.9887418e-48
4.9886561e-48
4.9886293e-48
4.9886222e-48
4.9886214e-48
4.9886238e-48
4.9886315e-48
4.9886517e-48
4.9895088e-48
4.988973e-48
4.9887409e-48
4.9886552e-48
4.9886284e-48
4.9886214e-48
4.9886205e-48
4.9886229e-48
4.9886306e-48
4.9886509e-48
4.9895098e-48
4.9889747e-48
4.988743e-48
4.9886575e-48
4.9886308e-48
4.9886238e-48
4.9886229e-48
4.9886253e-48
4.988633e-48
4.9886533e-48
4.9895137e-48
4.9889807e-48
4.9887501e-48
4.988665e-48
4.9886384e-48
4.9886315e-48
4.9886306e-48
4.988633e-48
4.9886407e-48
4.988661e-48
4.989524e-48
4.988998e-48
4.9887695e-48
4.9886851e-48
4.9886586e-48
4.9886517e-48
4.9886509e-48
4.9886533e-48
4.988661e-48
4.9886813e-48
2.9835817e-47
2.9832725e-47
2.9831382e-47
2.9830886e-47
2.983073e-47
2.9830689e-47
2.9830681e-47
2.9830688e-47
2.983071e-47
2.9830769e-47
2.9832725e-47
2.9829634e-47
2.9828291e-47
2.9827795e-47
2.982764e-47
2.9827599e-47
2.9827592e-47
2.9827602e-47
2.9827637e-47
2.9827737e-47
2.9831382e-47
2.9828291e-47
2.9826949e-47
2.9826453e-47
2.9826297e-47
2.9826256e-47
2.9826251e-47
2.9826263e-47
2.9826305e-47
2.9826417e-47
2.9830886e-47
2.9827795e-47
2.9826453e-47
2.9825957e-47
2.9825801e-47
2.9825761e-47
2.9825756e-47
2.9825769e-47
2.9825813e-47
2.9825929e-47
2.983073e-47
2.982764e-47
2.9826297e-47
2.9825801e-47
2.9825646e-47
2.9825605e-47
2.98256e-47
2.9825614e-47
2.9825659e-47
2.9825776e-47
2.9830689e-47
2.9827599e-47
2.9826256e-47
2.9825761e-47
2.9825605e-47
2.9825565e-47
2.982556e-47
2.9825574e-47
2.9825619e-47
2.9825736e-47
2.9830681e-47
2.9827592e-47
2.9826251e-47
2.9825756e-47
2.98256e-47
2.982556e-47
2.9825555e-47
2.9825569e-47
2.9825614e-47
2.9825731e-47
2.9830688e-47
2.9827602e-47
2.9826263e-47
2.9825769e-47
2.9825614e-47
2.9825574e-47
2.9825569e-47
2.9825583e-47
2.9825628e-47
2.9825745e-47
2.983071e-47
2.9827637e-47
2.9826305e-47
2.9825813e-47
2.9825659e-47
2.9825619e-47
2.9825614e-47
2.9825628e-47
2.9825673e-47
2.982579e-47
2.9830769e-47
2.9827737e-47
2.9826417e-47
2.9825929e-47
2.9825776e-47
2.9825736e-47
2.9825731e-47
2.9825745e-47
2.982579e-47
2.9825907e-47
1.8218719e-46
1.8216899e-46
1.8216107e-46
1.8215814e-46
1.8215722e-46
1.8215698e-46
1.8215693e-46
1.8215697e-46
1.821571e-46
1.8215745e-46
1.8216899e-46
1.821508e-46
1.8214288e-46
1.8213995e-46
1.8213903e-46
1.8213879e-46
1.8213875e-46
1.8213881e-46
1.8213902e-46
1.8213961e-46
1.8216107e-46
1.8214288e-46
1.8213496e-46
1.8213203e-46
1.8213112e-46
1.8213087e-46
1.8213084e-46
1.8213092e-46
1.8213116e-46
1.8213183e-46
1.8215814e-46
1.8213995e-46
1.8213203e-46
1.8212911e-46
1.8212819e-46
1.8212795e-46
1.8212792e-46
1.82128e-46
1.8212826e-46
1.8212895e-46
1.8215722e-46
1.8213903e-46
1.8213112e-46
1.8212819e-46
1.8212727e-46
1.8212703e-46
1.82127e-46
1.8212709e-46
1.8212735e-46
1.8212804e-46
1.8215698e-46
1.8213879e-46
1.8213087e-46
1.8212795e-46
1.8212703e-46
1.8212679e-46
1.8212676e-46
1.8212685e-46
1.8212712e-46
1.8212781e-46
1.8215693e-46
1.8213875e-46
1.8213084e-46
1.8212792e-46
1.82127e-46
1.8212676e-46
1.8212673e-46
1.8212682e-46
1.8212709e-46
1.8212778e-46
1.8215697e-46
1.8213881e-46
1.8213092e-46
1.82128e-46
1.8212709e-46
1.8212685e-46
1.8212682e-46
1.821269e-46
1.8212717e-46
1.8212786e-46
1.821571e-46
1.8213902e-46
1.8213116e-46
1.8212826e-46
1.8212735e-46
1.8212712e-46
1.8212709e-46
1.8212717e-46
1.8212744e-46
1.8212813e-46
1.8215745e-46
1.8213961e-46
1.8213183e-46
1.8212895e-46
1.8212804e-46
1.8212781e-46
1.8212778e-46
1.8212786e-46
1.8212813e-46
1.8212883e-46
1.1360938e-45
1.1359845e-45
1.1359369e-45
1.1359192e-45
1.1359137e-45
1.1359122e-45
1.135912e-45
1.1359122e-45
1.135913e-45
1.135915e-45
1.1359845e-45
1.1358753e-45
1.1358276e-45
1.13581e-45
1.1358044e-45
1.135803e-45
1.1358028e-45
1.1358031e-45
1.1358044e-45
1.1358079e-45
1.1359369e-45
1.1358276e-45
1.13578e-45
1.1357623e-45
1.1357568e-45
1.1357554e-45
1.1357552e-45
1.1357556e-45
1.1357571e-45
1.1357611e-45
1.1359192e-45
1.13581e-45
1.1357623e-45
1.1357447e-45
1.1357392e-45
1.1357377e-45
1.1357376e-45
1.1357381e-45
1.1357397e-45
1.1357438e-45
1.1359137e-45
1.1358044e-45
1.1357568e-45
1.1357392e-45
1.1357337e-45
1.1357322e-45
1.135732e-45
1.1357326e-45
1.1357342e-45
1.1357383e-45
1.1359122e-45
1.135803e-45
1.1357554e-45
1.1357377e-45
1.1357322e-45
1.1357308e-45
1.1357306e-45
1.1357311e-45
1.1357327e-45
1.1357369e-45
1.135912e-45
1.1358028e-45
1.1357552e-45
1.1357376e-45
1.135732e-45
1.1357306e-45
1.1357304e-45
1.1357309e-45
1.1357326e-45
1.1357368e-45
1.1359122e-45
1.1358031e-45
1.1357556e-45
1.1357381e-45
1.1357326e-45
1.1357311e-45
1.1357309e-45
1.1357315e-45
1.1357331e-45
1.1357373e-45
1.135913e-45
1.1358044e-45
1.1357571e-45
1.1357397e-45
1.1357342e-45
1.1357327e-45
1.1357326e-45
1.1357331e-45
1.1357347e-45
1.1357389e-45
1.135915e-45
1.1358079e-45
1.1357611e-45
1.1357438e-45
1.1357383e-45
1.1357369e-45
1.1357368e-45
1.1357373e-45
1.1357389e-45
1.1357431e-45
7.2336717e-45
7.2330018e-45
7.2327091e-45
7.2326008e-45
7.2325668e-45
7.2325577e-45
7.2325562e-45
7.2325576e-45
7.2325626e-45
7.2325749e-45
7.2330018e-45
7.2323322e-45
7.2320396e-45
7.2319313e-45
7.2318973e-45
7.2318883e-45
7.231887e-45
7.2318892e-45
7.231897e-45
7.2319188e-45
7.2327091e-45
7.2320396e-45
7.2317471e-45
7.2316388e-45
7.2316048e-45
7.2315959e-45
7.2315947e-45
7.2315975e-45
7.2316069e-45
7.2316315e-45
7.2326008e-45
7.2319313e-45
7.2316388e-45
7.2315305e-45
7.2314965e-45
7.2314876e-45
7.2314865e-45
7.2314896e-45
7.2314996e-45
7.231525e-45
7.2325668e-45
7.2318973e-45
7.2316048e-45
7.2314965e-45
7.2314626e-45
7.2314537e-45
7.2314526e-45
7.2314558e-45
7.2314659e-45
7.2314916e-45
7.2325577e-45
7.2318883e-45
7.2315959e-45
7.2314876e-45
7.2314537e-45
7.2314448e-45
7.2314438e-45
7.231447e-45
7.2314571e-45
7.2314829e-45
7.2325562e-45
7.231887e-45
7.2315947e-45
7.2314865e-45
7.2314526e-45
7.2314438e-45
7.2314427e-45
7.231446e-45
7.2314561e-45
7.2314819e-45
7.2325576e-45
7.2318892e-45
7.2315975e-45
7.2314896e-45
7.2314558e-45
7.231447e-45
7.231446e-45
7.2314492e-45
7.2314594e-45
7.2314851e-45
7.2325626e-45
7.231897e-45
7.2316069e-45
7.2314996e-45
7.2314659e-45
7.2314571e-45
7.2314561e-45
7.2314594e-45
7.2314695e-45
7.2314953e-45
7.2325749e-45
7.2319188e-45
7.2316315e-45
7.231525e-45
7.2314916e-45
7.2314829e-45
7.2314819e-45
7.2314851e-45
7.2314953e-45
7.231521e-45
4.7019225e-44