/*--------------------------------*- C++ -*----------------------------------*\
| =========                 |                                                 |
| \\      /  F ield         | OpenFOAM: The Open Source CFD Toolbox           |
|  \\    /   O peration     | Version:  dev                                   |
|   \\  /    A nd           | Web:      www.OpenFOAM.org                      |
|    \\/     M anipulation  |                                                 |
\*---------------------------------------------------------------------------*/
FoamFile
{
    version     2.0;
    format      ascii;
    class       volScalarField;
    location    "16";
    object      A_0;
}
// * * * * * * * * * * * * * * * * * * * * * * * * * * * * * * * * * * * * * //

dimensions      [0 0 0 0 1 0 0];

internalField   nonuniform List<scalar> 
10000
(
2.6290049e-59
2.6285374e-59
2.628344e-59
2.6282738e-59
2.6282519e-59
2.6282461e-59
2.628245e-59
2.6282458e-59
2.6282492e-59
2.6282607e-59
2.6285374e-59
2.6280701e-59
2.6278768e-59
2.6278066e-59
2.6277847e-59
2.627779e-59
2.627778e-59
2.6277792e-59
2.6277839e-59
2.6278e-59
2.628344e-59
2.6278768e-59
2.6276835e-59
2.6276133e-59
2.6275915e-59
2.6275858e-59
2.6275849e-59
2.6275863e-59
2.6275918e-59
2.6276093e-59
2.6282738e-59
2.6278066e-59
2.6276133e-59
2.6275432e-59
2.6275213e-59
2.6275156e-59
2.6275148e-59
2.6275163e-59
2.6275221e-59
2.62754e-59
2.6282519e-59
2.6277847e-59
2.6275915e-59
2.6275213e-59
2.6274995e-59
2.6274938e-59
2.6274929e-59
2.6274946e-59
2.6275004e-59
2.6275184e-59
2.6282461e-59
2.627779e-59
2.6275858e-59
2.6275156e-59
2.6274938e-59
2.627488e-59
2.6274872e-59
2.6274889e-59
2.6274947e-59
2.6275127e-59
2.628245e-59
2.627778e-59
2.6275849e-59
2.6275148e-59
2.6274929e-59
2.6274872e-59
2.6274864e-59
2.6274881e-59
2.6274939e-59
2.6275119e-59
2.6282458e-59
2.6277792e-59
2.6275863e-59
2.6275163e-59
2.6274946e-59
2.6274889e-59
2.6274881e-59
2.6274897e-59
2.6274956e-59
2.6275136e-59
2.6282492e-59
2.6277839e-59
2.6275918e-59
2.6275221e-59
2.6275004e-59
2.6274947e-59
2.6274939e-59
2.6274956e-59
2.6275014e-59
2.6275195e-59
2.6282607e-59
2.6278e-59
2.6276093e-59
2.62754e-59
2.6275184e-59
2.6275127e-59
2.6275119e-59
2.6275136e-59
2.6275195e-59
2.6275375e-59
1.4386234e-58
1.4383746e-58
1.4382707e-58
1.438233e-58
1.4382212e-58
1.4382181e-58
1.4382175e-58
1.4382179e-58
1.4382197e-58
1.4382262e-58
1.4383746e-58
1.438126e-58
1.4380221e-58
1.4379844e-58
1.4379726e-58
1.4379695e-58
1.437969e-58
1.4379696e-58
1.4379722e-58
1.4379811e-58
1.4382707e-58
1.4380221e-58
1.4379183e-58
1.4378806e-58
1.4378688e-58
1.4378657e-58
1.4378653e-58
1.437866e-58
1.437869e-58
1.4378786e-58
1.438233e-58
1.4379844e-58
1.4378806e-58
1.4378428e-58
1.4378311e-58
1.437828e-58
1.4378276e-58
1.4378284e-58
1.4378315e-58
1.4378414e-58
1.4382212e-58
1.4379726e-58
1.4378688e-58
1.4378311e-58
1.4378193e-58
1.4378163e-58
1.4378158e-58
1.4378167e-58
1.4378198e-58
1.4378298e-58
1.4382181e-58
1.4379695e-58
1.4378657e-58
1.437828e-58
1.4378163e-58
1.4378132e-58
1.4378127e-58
1.4378136e-58
1.4378168e-58
1.4378267e-58
1.4382175e-58
1.437969e-58
1.4378653e-58
1.4378276e-58
1.4378158e-58
1.4378127e-58
1.4378123e-58
1.4378132e-58
1.4378164e-58
1.4378263e-58
1.4382179e-58
1.4379696e-58
1.437866e-58
1.4378284e-58
1.4378167e-58
1.4378136e-58
1.4378132e-58
1.4378141e-58
1.4378172e-58
1.4378272e-58
1.4382197e-58
1.4379722e-58
1.437869e-58
1.4378315e-58
1.4378198e-58
1.4378168e-58
1.4378164e-58
1.4378172e-58
1.4378204e-58
1.4378303e-58
1.4382262e-58
1.4379811e-58
1.4378786e-58
1.4378414e-58
1.4378298e-58
1.4378267e-58
1.4378263e-58
1.4378272e-58
1.4378303e-58
1.4378403e-58
6.3006701e-58
6.2996108e-58
6.2991669e-58
6.2990054e-58
6.298955e-58
6.2989417e-58
6.2989392e-58
6.298941e-58
6.2989487e-58
6.2989759e-58
6.2996108e-58
6.2985521e-58
6.2981084e-58
6.2979469e-58
6.2978966e-58
6.2978833e-58
6.2978811e-58
6.2978838e-58
6.2978946e-58
6.2979326e-58
6.2991669e-58
6.2981084e-58
6.2976647e-58
6.2975033e-58
6.297453e-58
6.2974398e-58
6.2974378e-58
6.2974411e-58
6.2974537e-58
6.2974949e-58
6.2990054e-58
6.2979469e-58
6.2975033e-58
6.2973418e-58
6.2972915e-58
6.2972783e-58
6.2972764e-58
6.2972801e-58
6.2972934e-58
6.2973355e-58
6.298955e-58
6.2978966e-58
6.297453e-58
6.2972915e-58
6.2972413e-58
6.2972281e-58
6.2972262e-58
6.29723e-58
6.2972435e-58
6.2972858e-58
6.2989417e-58
6.2978833e-58
6.2974398e-58
6.2972783e-58
6.2972281e-58
6.2972149e-58
6.2972131e-58
6.2972169e-58
6.2972304e-58
6.2972728e-58
6.2989392e-58
6.2978811e-58
6.2974378e-58
6.2972764e-58
6.2972262e-58
6.2972131e-58
6.2972112e-58
6.297215e-58
6.2972286e-58
6.297271e-58
6.298941e-58
6.2978838e-58
6.2974411e-58
6.2972801e-58
6.29723e-58
6.2972169e-58
6.297215e-58
6.2972188e-58
6.2972324e-58
6.2972748e-58
6.2989487e-58
6.2978946e-58
6.2974537e-58
6.2972934e-58
6.2972435e-58
6.2972304e-58
6.2972286e-58
6.2972324e-58
6.297246e-58
6.2972884e-58
6.2989759e-58
6.2979326e-58
6.2974949e-58
6.2973355e-58
6.2972858e-58
6.2972728e-58
6.297271e-58
6.2972748e-58
6.2972884e-58
6.2973308e-58
2.786861e-57
2.7864058e-57
2.7862145e-57
2.7861448e-57
2.786123e-57
2.7861173e-57
2.7861162e-57
2.786117e-57
2.7861203e-57
2.7861317e-57
2.7864058e-57
2.7859508e-57
2.7857596e-57
2.7856899e-57
2.7856681e-57
2.7856624e-57
2.7856615e-57
2.7856626e-57
2.7856673e-57
2.7856834e-57
2.7862145e-57
2.7857596e-57
2.7855684e-57
2.7854987e-57
2.785477e-57
2.7854713e-57
2.7854704e-57
2.7854719e-57
2.7854773e-57
2.7854948e-57
2.7861448e-57
2.7856899e-57
2.7854987e-57
2.785429e-57
2.7854073e-57
2.7854016e-57
2.7854008e-57
2.7854024e-57
2.7854081e-57
2.785426e-57
2.786123e-57
2.7856681e-57
2.785477e-57
2.7854073e-57
2.7853856e-57
2.7853799e-57
2.7853791e-57
2.7853808e-57
2.7853866e-57
2.7854046e-57
2.7861173e-57
2.7856624e-57
2.7854713e-57
2.7854016e-57
2.7853799e-57
2.7853742e-57
2.7853734e-57
2.7853751e-57
2.7853809e-57
2.785399e-57
2.7861162e-57
2.7856615e-57
2.7854704e-57
2.7854008e-57
2.7853791e-57
2.7853734e-57
2.7853727e-57
2.7853743e-57
2.7853802e-57
2.7853982e-57
2.786117e-57
2.7856626e-57
2.7854719e-57
2.7854024e-57
2.7853808e-57
2.7853751e-57
2.7853743e-57
2.785376e-57
2.7853818e-57
2.7853999e-57
2.7861203e-57
2.7856673e-57
2.7854773e-57
2.7854081e-57
2.7853866e-57
2.7853809e-57
2.7853802e-57
2.7853818e-57
2.7853877e-57
2.7854057e-57
2.7861317e-57
2.7856834e-57
2.7854948e-57
2.785426e-57
2.7854046e-57
2.785399e-57
2.7853982e-57
2.7853999e-57
2.7854057e-57
2.7854238e-57
1.258809e-56
1.2586093e-56
1.2585252e-56
1.2584945e-56
1.2584849e-56
1.2584824e-56
1.2584819e-56
1.2584823e-56
1.2584837e-56
1.2584886e-56
1.2586093e-56
1.2584098e-56
1.2583256e-56
1.2582949e-56
1.2582854e-56
1.2582829e-56
1.2582824e-56
1.258283e-56
1.258285e-56
1.258292e-56
1.2585252e-56
1.2583256e-56
1.2582415e-56
1.2582108e-56
1.2582013e-56
1.2581988e-56
1.2581984e-56
1.258199e-56
1.2582014e-56
1.258209e-56
1.2584945e-56
1.2582949e-56
1.2582108e-56
1.2581802e-56
1.2581706e-56
1.2581681e-56
1.2581677e-56
1.2581684e-56
1.258171e-56
1.2581788e-56
1.2584849e-56
1.2582854e-56
1.2582013e-56
1.2581706e-56
1.258161e-56
1.2581585e-56
1.2581582e-56
1.2581589e-56
1.2581615e-56
1.2581693e-56
1.2584824e-56
1.2582829e-56
1.2581988e-56
1.2581681e-56
1.2581585e-56
1.258156e-56
1.2581557e-56
1.2581564e-56
1.258159e-56
1.2581668e-56
1.2584819e-56
1.2582824e-56
1.2581984e-56
1.2581677e-56
1.2581582e-56
1.2581557e-56
1.2581553e-56
1.2581561e-56
1.2581587e-56
1.2581665e-56
1.2584823e-56
1.258283e-56
1.258199e-56
1.2581684e-56
1.2581589e-56
1.2581564e-56
1.2581561e-56
1.2581568e-56
1.2581594e-56
1.2581672e-56
1.2584837e-56
1.258285e-56
1.2582014e-56
1.258171e-56
1.2581615e-56
1.258159e-56
1.2581587e-56
1.2581594e-56
1.258162e-56
1.2581698e-56
1.2584886e-56
1.258292e-56
1.258209e-56
1.2581788e-56
1.2581693e-56
1.2581668e-56
1.2581665e-56
1.2581672e-56
1.2581698e-56
1.2581777e-56
5.8101542e-56
5.8092595e-56
5.8088814e-56
5.8087433e-56
5.8087003e-56
5.8086888e-56
5.8086867e-56
5.8086883e-56
5.8086947e-56
5.808716e-56
5.8092595e-56
5.8083652e-56
5.8079872e-56
5.8078492e-56
5.8078062e-56
5.8077948e-56
5.8077929e-56
5.8077953e-56
5.8078045e-56
5.8078354e-56
5.8088814e-56
5.8079872e-56
5.8076094e-56
5.8074714e-56
5.8074284e-56
5.807417e-56
5.8074154e-56
5.8074183e-56
5.8074291e-56
5.8074629e-56
5.8087433e-56
5.8078492e-56
5.8074714e-56
5.8073334e-56
5.8072904e-56
5.8072791e-56
5.8072775e-56
5.8072807e-56
5.8072921e-56
5.8073267e-56
5.8087003e-56
5.8078062e-56
5.8074284e-56
5.8072904e-56
5.8072474e-56
5.8072361e-56
5.8072345e-56
5.8072379e-56
5.8072494e-56
5.8072842e-56
5.8086888e-56
5.8077948e-56
5.807417e-56
5.8072791e-56
5.8072361e-56
5.8072248e-56
5.8072233e-56
5.8072266e-56
5.8072382e-56
5.8072731e-56
5.8086867e-56
5.8077929e-56
5.8074154e-56
5.8072775e-56
5.8072345e-56
5.8072233e-56
5.8072217e-56
5.8072251e-56
5.8072367e-56
5.8072716e-56
5.8086883e-56
5.8077953e-56
5.8074183e-56
5.8072807e-56
5.8072379e-56
5.8072266e-56
5.8072251e-56
5.8072284e-56
5.8072401e-56
5.8072749e-56
5.8086947e-56
5.8078045e-56
5.8074291e-56
5.8072921e-56
5.8072494e-56
5.8072382e-56
5.8072367e-56
5.8072401e-56
5.8072517e-56
5.8072866e-56
5.808716e-56
5.8078354e-56
5.8074629e-56
5.8073267e-56
5.8072842e-56
5.8072731e-56
5.8072716e-56
5.8072749e-56
5.8072866e-56
5.8073214e-56
2.7404774e-55
2.7400679e-55
2.7398944e-55
2.739831e-55
2.7398112e-55
2.7398059e-55
2.739805e-55
2.7398057e-55
2.7398086e-55
2.7398181e-55
2.7400679e-55
2.7396586e-55
2.7394852e-55
2.7394218e-55
2.739402e-55
2.7393967e-55
2.7393959e-55
2.739397e-55
2.7394012e-55
2.7394152e-55
2.7398944e-55
2.7394852e-55
2.7393118e-55
2.7392484e-55
2.7392286e-55
2.7392234e-55
2.7392226e-55
2.739224e-55
2.739229e-55
2.7392443e-55
2.739831e-55
2.7394218e-55
2.7392484e-55
2.739185e-55
2.7391652e-55
2.73916e-55
2.7391593e-55
2.7391608e-55
2.739166e-55
2.7391817e-55
2.7398112e-55
2.739402e-55
2.7392286e-55
2.7391652e-55
2.7391455e-55
2.7391403e-55
2.7391396e-55
2.7391411e-55
2.7391464e-55
2.7391622e-55
2.7398059e-55
2.7393967e-55
2.7392234e-55
2.73916e-55
2.7391403e-55
2.7391351e-55
2.7391344e-55
2.7391359e-55
2.7391413e-55
2.7391571e-55
2.739805e-55
2.7393959e-55
2.7392226e-55
2.7391593e-55
2.7391396e-55
2.7391344e-55
2.7391337e-55
2.7391352e-55
2.7391406e-55
2.7391564e-55
2.7398057e-55
2.739397e-55
2.739224e-55
2.7391608e-55
2.7391411e-55
2.7391359e-55
2.7391352e-55
2.7391368e-55
2.7391422e-55
2.739158e-55
2.7398086e-55
2.7394012e-55
2.739229e-55
2.739166e-55
2.7391464e-55
2.7391413e-55
2.7391406e-55
2.7391422e-55
2.7391475e-55
2.7391633e-55
2.7398181e-55
2.7394152e-55
2.7392443e-55
2.7391817e-55
2.7391622e-55
2.7391571e-55
2.7391564e-55
2.739158e-55
2.7391633e-55
2.7391792e-55
1.3209513e-54
1.3207599e-54
1.3206786e-54
1.3206488e-54
1.3206395e-54
1.3206371e-54
1.3206366e-54
1.3206369e-54
1.3206383e-54
1.3206427e-54
1.3207599e-54
1.3205685e-54
1.3204873e-54
1.3204575e-54
1.3204482e-54
1.3204458e-54
1.3204454e-54
1.3204459e-54
1.3204479e-54
1.3204544e-54
1.3206786e-54
1.3204873e-54
1.320406e-54
1.3203762e-54
1.320367e-54
1.3203645e-54
1.3203642e-54
1.3203648e-54
1.3203671e-54
1.3203743e-54
1.3206488e-54
1.3204575e-54
1.3203762e-54
1.3203465e-54
1.3203372e-54
1.3203348e-54
1.3203345e-54
1.3203352e-54
1.3203376e-54
1.3203449e-54
1.3206395e-54
1.3204482e-54
1.320367e-54
1.3203372e-54
1.320328e-54
1.3203255e-54
1.3203252e-54
1.3203259e-54
1.3203284e-54
1.3203358e-54
1.3206371e-54
1.3204458e-54
1.3203645e-54
1.3203348e-54
1.3203255e-54
1.3203231e-54
1.3203228e-54
1.3203235e-54
1.320326e-54
1.3203334e-54
1.3206366e-54
1.3204454e-54
1.3203642e-54
1.3203345e-54
1.3203252e-54
1.3203228e-54
1.3203224e-54
1.3203232e-54
1.3203257e-54
1.320333e-54
1.3206369e-54
1.3204459e-54
1.3203648e-54
1.3203352e-54
1.3203259e-54
1.3203235e-54
1.3203232e-54
1.3203239e-54
1.3203264e-54
1.3203338e-54
1.3206383e-54
1.3204479e-54
1.3203671e-54
1.3203376e-54
1.3203284e-54
1.320326e-54
1.3203257e-54
1.3203264e-54
1.320329e-54
1.3203363e-54
1.3206427e-54
1.3204544e-54
1.3203743e-54
1.3203449e-54
1.3203358e-54
1.3203334e-54
1.320333e-54
1.3203338e-54
1.3203363e-54
1.3203437e-54
6.5069179e-54
6.5060037e-54
6.5056144e-54
6.5054718e-54
6.5054273e-54
6.5054155e-54
6.5054133e-54
6.5054149e-54
6.5054214e-54
6.5054418e-54
6.5060037e-54
6.5050899e-54
6.5047008e-54
6.5045583e-54
6.5045138e-54
6.504502e-54
6.5045001e-54
6.5045026e-54
6.5045121e-54
6.5045428e-54
6.5056144e-54
6.5047008e-54
6.5043118e-54
6.5041692e-54
6.5041247e-54
6.504113e-54
6.5041113e-54
6.5041145e-54
6.5041257e-54
6.5041594e-54
6.5054718e-54
6.5045583e-54
6.5041692e-54
6.5040267e-54
6.5039823e-54
6.5039706e-54
6.503969e-54
6.5039724e-54
6.5039843e-54
6.5040189e-54
6.5054273e-54
6.5045138e-54
6.5041247e-54
6.5039823e-54
6.5039378e-54
6.5039261e-54
6.5039245e-54
6.5039281e-54
6.5039401e-54
6.503975e-54
6.5054155e-54
6.504502e-54
6.504113e-54
6.5039706e-54
6.5039261e-54
6.5039145e-54
6.5039129e-54
6.5039165e-54
6.5039286e-54
6.5039635e-54
6.5054133e-54
6.5045001e-54
6.5041113e-54
6.503969e-54
6.5039245e-54
6.5039129e-54
6.5039113e-54
6.5039149e-54
6.5039271e-54
6.503962e-54
6.5054149e-54
6.5045026e-54
6.5041145e-54
6.5039724e-54
6.5039281e-54
6.5039165e-54
6.5039149e-54
6.5039185e-54
6.5039306e-54
6.5039655e-54
6.5054214e-54
6.5045121e-54
6.5041257e-54
6.5039843e-54
6.5039401e-54
6.5039286e-54
6.5039271e-54
6.5039306e-54
6.5039428e-54
6.5039777e-54
6.5054418e-54
6.5045428e-54
6.5041594e-54
6.5040189e-54
6.503975e-54
6.5039635e-54
6.503962e-54
6.5039655e-54
6.5039777e-54
6.5040126e-54
3.275613e-53
3.2751671e-53
3.2749768e-53
3.274907e-53
3.2748852e-53
3.2748794e-53
3.2748784e-53
3.2748791e-53
3.2748823e-53
3.274892e-53
3.2751671e-53
3.2747214e-53
3.2745312e-53
3.2744614e-53
3.2744396e-53
3.2744338e-53
3.2744329e-53
3.2744341e-53
3.2744388e-53
3.2744537e-53
3.2749768e-53
3.2745312e-53
3.2743409e-53
3.2742712e-53
3.2742494e-53
3.2742436e-53
3.2742428e-53
3.2742444e-53
3.2742499e-53
3.2742662e-53
3.274907e-53
3.2744614e-53
3.2742712e-53
3.2742014e-53
3.2741796e-53
3.2741739e-53
3.2741731e-53
3.2741748e-53
3.2741807e-53
3.2741975e-53
3.2748852e-53
3.2744396e-53
3.2742494e-53
3.2741796e-53
3.2741579e-53
3.2741521e-53
3.2741514e-53
3.2741531e-53
3.2741591e-53
3.274176e-53
3.2748794e-53
3.2744338e-53
3.2742436e-53
3.2741739e-53
3.2741521e-53
3.2741464e-53
3.2741457e-53
3.2741474e-53
3.2741534e-53
3.2741703e-53
3.2748784e-53
3.2744329e-53
3.2742428e-53
3.2741731e-53
3.2741514e-53
3.2741457e-53
3.2741449e-53
3.2741467e-53
3.2741527e-53
3.2741696e-53
3.2748791e-53
3.2744341e-53
3.2742444e-53
3.2741748e-53
3.2741531e-53
3.2741474e-53
3.2741467e-53
3.2741485e-53
3.2741544e-53
3.2741714e-53
3.2748823e-53
3.2744388e-53
3.2742499e-53
3.2741807e-53
3.2741591e-53
3.2741534e-53
3.2741527e-53
3.2741544e-53
3.2741604e-53
3.2741773e-53
3.274892e-53
3.2744537e-53
3.2742662e-53
3.2741975e-53
3.274176e-53
3.2741703e-53
3.2741696e-53
3.2741714e-53
3.2741773e-53
3.2741943e-53
1.6851332e-52
1.6849111e-52
1.684816e-52
1.6847811e-52
1.6847702e-52
1.6847673e-52
1.6847668e-52
1.6847672e-52
1.6847688e-52
1.6847735e-52
1.6849111e-52
1.684689e-52
1.684594e-52
1.6845591e-52
1.6845482e-52
1.6845453e-52
1.6845449e-52
1.6845455e-52
1.6845478e-52
1.6845552e-52
1.684816e-52
1.684594e-52
1.684499e-52
1.6844641e-52
1.6844532e-52
1.6844503e-52
1.6844499e-52
1.6844507e-52
1.6844535e-52
1.6844616e-52
1.6847811e-52
1.6845591e-52
1.6844641e-52
1.6844292e-52
1.6844184e-52
1.6844155e-52
1.6844151e-52
1.684416e-52
1.6844189e-52
1.6844272e-52
1.6847702e-52
1.6845482e-52
1.6844532e-52
1.6844184e-52
1.6844075e-52
1.6844046e-52
1.6844042e-52
1.6844051e-52
1.6844081e-52
1.6844165e-52
1.6847673e-52
1.6845453e-52
1.6844503e-52
1.6844155e-52
1.6844046e-52
1.6844018e-52
1.6844014e-52
1.6844023e-52
1.6844053e-52
1.6844137e-52
1.6847668e-52
1.6845449e-52
1.6844499e-52
1.6844151e-52
1.6844042e-52
1.6844014e-52
1.684401e-52
1.6844019e-52
1.6844049e-52
1.6844133e-52
1.6847672e-52
1.6845455e-52
1.6844507e-52
1.684416e-52
1.6844051e-52
1.6844023e-52
1.6844019e-52
1.6844028e-52
1.6844058e-52
1.6844142e-52
1.6847688e-52
1.6845478e-52
1.6844535e-52
1.6844189e-52
1.6844081e-52
1.6844053e-52
1.6844049e-52
1.6844058e-52
1.6844088e-52
1.6844172e-52
1.6847735e-52
1.6845552e-52
1.6844616e-52
1.6844272e-52
1.6844165e-52
1.6844137e-52
1.6844133e-52
1.6844142e-52
1.6844172e-52
1.6844256e-52
8.8591187e-52
8.8579882e-52
8.8575033e-52
8.8573252e-52
8.8572695e-52
8.8572547e-52
8.8572521e-52
8.8572541e-52
8.8572622e-52
8.8572859e-52
8.8579882e-52
8.8568582e-52
8.8563735e-52
8.8561954e-52
8.8561398e-52
8.8561251e-52
8.8561227e-52
8.8561259e-52
8.856138e-52
8.8561751e-52
8.8575033e-52
8.8563735e-52
8.8558889e-52
8.8557109e-52
8.8556552e-52
8.8556406e-52
8.8556385e-52
8.8556426e-52
8.8556568e-52
8.8556979e-52
8.8573252e-52
8.8561954e-52
8.8557109e-52
8.8555329e-52
8.8554772e-52
8.8554626e-52
8.8554607e-52
8.8554651e-52
8.8554802e-52
8.8555225e-52
8.8572695e-52
8.8561398e-52
8.8556552e-52
8.8554772e-52
8.8554216e-52
8.855407e-52
8.8554051e-52
8.8554097e-52
8.855425e-52
8.8554676e-52
8.8572547e-52
8.8561251e-52
8.8556406e-52
8.8554626e-52
8.855407e-52
8.8553925e-52
8.8553906e-52
8.8553952e-52
8.8554106e-52
8.8554532e-52
8.8572521e-52
8.8561227e-52
8.8556385e-52
8.8554607e-52
8.8554051e-52
8.8553906e-52
8.8553887e-52
8.8553933e-52
8.8554087e-52
8.8554514e-52
8.8572541e-52
8.8561259e-52
8.8556426e-52
8.8554651e-52
8.8554097e-52
8.8553952e-52
8.8553933e-52
8.8553979e-52
8.8554133e-52
8.855456e-52
8.8572622e-52
8.856138e-52
8.8556568e-52
8.8554802e-52
8.855425e-52
8.8554106e-52
8.8554087e-52
8.8554133e-52
8.8554287e-52
8.8554714e-52
8.8572859e-52
8.8561751e-52
8.8556979e-52
8.8555225e-52
8.8554676e-52
8.8554532e-52
8.8554514e-52
8.855456e-52
8.8554714e-52
8.8555141e-52
4.7593329e-51
4.7587453e-51
4.7584927e-51
4.7583999e-51
4.7583708e-51
4.7583631e-51
4.7583617e-51
4.7583628e-51
4.758367e-51
4.7583791e-51
4.7587453e-51
4.758158e-51
4.7579055e-51
4.7578127e-51
4.7577836e-51
4.757776e-51
4.7577748e-51
4.7577765e-51
4.7577828e-51
4.757802e-51
4.7584927e-51
4.7579055e-51
4.7576531e-51
4.7575603e-51
4.7575313e-51
4.7575236e-51
4.7575225e-51
4.7575247e-51
4.7575321e-51
4.7575535e-51
4.7583999e-51
4.7578127e-51
4.7575603e-51
4.7574675e-51
4.7574385e-51
4.7574308e-51
4.7574298e-51
4.7574322e-51
4.7574401e-51
4.757462e-51
4.7583708e-51
4.7577836e-51
4.7575313e-51
4.7574385e-51
4.7574094e-51
4.7574018e-51
4.7574008e-51
4.7574033e-51
4.7574113e-51
4.7574334e-51
4.7583631e-51
4.757776e-51
4.7575236e-51
4.7574308e-51
4.7574018e-51
4.7573942e-51
4.7573933e-51
4.7573957e-51
4.7574038e-51
4.7574259e-51
4.7583617e-51
4.7577748e-51
4.7575225e-51
4.7574298e-51
4.7574008e-51
4.7573933e-51
4.7573923e-51
4.7573947e-51
4.7574028e-51
4.7574249e-51
4.7583628e-51
4.7577765e-51
4.7575247e-51
4.7574322e-51
4.7574033e-51
4.7573957e-51
4.7573947e-51
4.7573972e-51
4.7574053e-51
4.7574274e-51
4.758367e-51
4.7577828e-51
4.7575321e-51
4.7574401e-51
4.7574113e-51
4.7574038e-51
4.7574028e-51
4.7574053e-51
4.7574133e-51
4.7574355e-51
4.7583791e-51
4.757802e-51
4.7575535e-51
4.757462e-51
4.7574334e-51
4.7574259e-51
4.7574249e-51
4.7574274e-51
4.7574355e-51
4.7574576e-51
2.6126413e-50
2.6123295e-50
2.6121951e-50
2.6121457e-50
2.6121302e-50
2.6121261e-50
2.6121253e-50
2.6121259e-50
2.6121282e-50
2.6121345e-50
2.6123295e-50
2.6120177e-50
2.6118834e-50
2.611834e-50
2.6118185e-50
2.6118144e-50
2.6118138e-50
2.6118147e-50
2.6118181e-50
2.6118282e-50
2.6121951e-50
2.6118834e-50
2.6117492e-50
2.6116997e-50
2.6116843e-50
2.6116802e-50
2.6116796e-50
2.6116808e-50
2.6116848e-50
2.6116961e-50
2.6121457e-50
2.611834e-50
2.6116997e-50
2.6116503e-50
2.6116349e-50
2.6116308e-50
2.6116303e-50
2.6116315e-50
2.6116358e-50
2.6116474e-50
2.6121302e-50
2.6118185e-50
2.6116843e-50
2.6116349e-50
2.6116194e-50
2.6116154e-50
2.6116148e-50
2.6116161e-50
2.6116205e-50
2.6116322e-50
2.6121261e-50
2.6118144e-50
2.6116802e-50
2.6116308e-50
2.6116154e-50
2.6116113e-50
2.6116108e-50
2.6116121e-50
2.6116164e-50
2.6116282e-50
2.6121253e-50
2.6118138e-50
2.6116796e-50
2.6116303e-50
2.6116148e-50
2.6116108e-50
2.6116103e-50
2.6116116e-50
2.6116159e-50
2.6116277e-50
2.6121259e-50
2.6118147e-50
2.6116808e-50
2.6116315e-50
2.6116161e-50
2.6116121e-50
2.6116116e-50
2.6116129e-50
2.6116173e-50
2.611629e-50
2.6121282e-50
2.6118181e-50
2.6116848e-50
2.6116358e-50
2.6116205e-50
2.6116164e-50
2.6116159e-50
2.6116173e-50
2.6116216e-50
2.6116333e-50
2.6121345e-50
2.6118282e-50
2.6116961e-50
2.6116474e-50
2.6116322e-50
2.6116282e-50
2.6116277e-50
2.611629e-50
2.6116333e-50
2.6116451e-50
1.4654281e-49
1.4652591e-49
1.4651861e-49
1.4651593e-49
1.4651508e-49
1.4651486e-49
1.4651482e-49
1.4651485e-49
1.4651497e-49
1.4651531e-49
1.4652591e-49
1.4650901e-49
1.4650172e-49
1.4649903e-49
1.4649819e-49
1.4649797e-49
1.4649793e-49
1.4649798e-49
1.4649817e-49
1.4649872e-49
1.4651861e-49
1.4650172e-49
1.4649443e-49
1.4649174e-49
1.464909e-49
1.4649068e-49
1.4649065e-49
1.4649071e-49
1.4649093e-49
1.4649154e-49
1.4651593e-49
1.4649903e-49
1.4649174e-49
1.4648905e-49
1.4648821e-49
1.4648799e-49
1.4648796e-49
1.4648803e-49
1.4648827e-49
1.464889e-49
1.4651508e-49
1.4649819e-49
1.464909e-49
1.4648821e-49
1.4648737e-49
1.4648715e-49
1.4648712e-49
1.464872e-49
1.4648743e-49
1.4648807e-49
1.4651486e-49
1.4649797e-49
1.4649068e-49
1.4648799e-49
1.4648715e-49
1.4648693e-49
1.464869e-49
1.4648698e-49
1.4648721e-49
1.4648785e-49
1.4651482e-49
1.4649793e-49
1.4649065e-49
1.4648796e-49
1.4648712e-49
1.464869e-49
1.4648688e-49
1.4648695e-49
1.4648719e-49
1.4648782e-49
1.4651485e-49
1.4649798e-49
1.4649071e-49
1.4648803e-49
1.464872e-49
1.4648698e-49
1.4648695e-49
1.4648702e-49
1.4648726e-49
1.464879e-49
1.4651497e-49
1.4649817e-49
1.4649093e-49
1.4648827e-49
1.4648743e-49
1.4648721e-49
1.4648719e-49
1.4648726e-49
1.464875e-49
1.4648813e-49
1.4651531e-49
1.4649872e-49
1.4649154e-49
1.464889e-49
1.4648807e-49
1.4648785e-49
1.4648782e-49
1.464879e-49
1.4648813e-49
1.4648877e-49
8.3978273e-49
8.3968918e-49
8.3964871e-49
8.3963379e-49
8.3962912e-49
8.3962788e-49
8.3962766e-49
8.3962784e-49
8.3962851e-49
8.3963034e-49
8.3968918e-49
8.3959567e-49
8.3955522e-49
8.395403e-49
8.3953563e-49
8.395344e-49
8.395342e-49
8.3953449e-49
8.3953552e-49
8.3953855e-49
8.3964871e-49
8.3955522e-49
8.3951477e-49
8.3949985e-49
8.3949519e-49
8.3949396e-49
8.3949379e-49
8.3949415e-49
8.3949537e-49
8.3949876e-49
8.3963379e-49
8.395403e-49
8.3949985e-49
8.3948494e-49
8.3948028e-49
8.3947905e-49
8.3947889e-49
8.3947929e-49
8.3948059e-49
8.3948408e-49
8.3962912e-49
8.3953563e-49
8.3949519e-49
8.3948028e-49
8.3947561e-49
8.3947439e-49
8.3947423e-49
8.3947464e-49
8.3947596e-49
8.3947948e-49
8.3962788e-49
8.395344e-49
8.3949396e-49
8.3947905e-49
8.3947439e-49
8.3947316e-49
8.3947301e-49
8.3947342e-49
8.3947475e-49
8.3947827e-49
8.3962766e-49
8.395342e-49
8.3949379e-49
8.3947889e-49
8.3947423e-49
8.3947301e-49
8.3947286e-49
8.3947327e-49
8.394746e-49
8.3947813e-49
8.3962784e-49
8.3953449e-49
8.3949415e-49
8.3947929e-49
8.3947464e-49
8.3947342e-49
8.3947327e-49
8.3947368e-49
8.3947501e-49
8.3947854e-49
8.3962851e-49
8.3953552e-49
8.3949537e-49
8.3948059e-49
8.3947596e-49
8.3947475e-49
8.394746e-49
8.3947501e-49
8.3947634e-49
8.3947987e-49
8.3963034e-49
8.3953855e-49
8.3949876e-49
8.3948408e-49
8.3947948e-49
8.3947827e-49
8.3947813e-49
8.3947854e-49
8.3947987e-49
8.3948339e-49
4.9164002e-48
4.9158716e-48
4.9156425e-48
4.9155579e-48
4.9155315e-48
4.9155244e-48
4.9155232e-48
4.9155242e-48
4.915528e-48
4.9155382e-48
4.9158716e-48
4.9153433e-48
4.9151142e-48
4.9150297e-48
4.9150032e-48
4.9149962e-48
4.9149952e-48
4.9149968e-48
4.9150027e-48
4.9150198e-48
4.9156425e-48
4.9151142e-48
4.9148852e-48
4.9148007e-48
4.9147742e-48
4.9147673e-48
4.9147663e-48
4.9147684e-48
4.9147754e-48
4.9147946e-48
4.9155579e-48
4.9150297e-48
4.9148007e-48
4.9147162e-48
4.9146897e-48
4.9146828e-48
4.9146819e-48
4.9146842e-48
4.9146916e-48
4.9147114e-48
4.9155315e-48
4.9150032e-48
4.9147742e-48
4.9146897e-48
4.9146633e-48
4.9146564e-48
4.9146555e-48
4.9146578e-48
4.9146654e-48
4.9146853e-48
4.9155244e-48
4.9149962e-48
4.9147673e-48
4.9146828e-48
4.9146564e-48
4.9146494e-48
4.9146486e-48
4.9146509e-48
4.9146585e-48
4.9146785e-48
4.9155232e-48
4.9149952e-48
4.9147663e-48
4.9146819e-48
4.9146555e-48
4.9146486e-48
4.9146477e-48
4.9146501e-48
4.9146577e-48
4.9146777e-48
4.9155242e-48
4.9149968e-48
4.9147684e-48
4.9146842e-48
4.9146578e-48
4.9146509e-48
4.9146501e-48
4.9146525e-48
4.9146601e-48
4.91468e-48
4.915528e-48
4.9150027e-48
4.9147754e-48
4.9146916e-48
4.9146654e-48
4.9146585e-48
4.9146577e-48
4.9146601e-48
4.9146677e-48
4.9146876e-48
4.9155382e-48
4.9150198e-48
4.9147946e-48
4.9147114e-48
4.9146853e-48
4.9146785e-48
4.9146777e-48
4.91468e-48
4.9146876e-48
4.9147076e-48
2.9400782e-47
2.9397733e-47
2.9396409e-47
2.939592e-47
2.9395767e-47
2.9395726e-47
2.9395719e-47
2.9395725e-47
2.9395747e-47
2.9395805e-47
2.9397733e-47
2.9394686e-47
2.9393362e-47
2.9392873e-47
2.939272e-47
2.939268e-47
2.9392673e-47
2.9392683e-47
2.9392717e-47
2.9392816e-47
2.9396409e-47
2.9393362e-47
2.9392039e-47
2.939155e-47
2.9391397e-47
2.9391356e-47
2.9391351e-47
2.9391363e-47
2.9391404e-47
2.9391515e-47
2.939592e-47
2.9392873e-47
2.939155e-47
2.9391061e-47
2.9390908e-47
2.9390868e-47
2.9390863e-47
2.9390876e-47
2.9390919e-47
2.9391034e-47
2.9395767e-47
2.939272e-47
2.9391397e-47
2.9390908e-47
2.9390755e-47
2.9390715e-47
2.939071e-47
2.9390724e-47
2.9390768e-47
2.9390883e-47
2.9395726e-47
2.939268e-47
2.9391356e-47
2.9390868e-47
2.9390715e-47
2.9390675e-47
2.939067e-47
2.9390684e-47
2.9390728e-47
2.9390843e-47
2.9395719e-47
2.9392673e-47
2.9391351e-47
2.9390863e-47
2.939071e-47
2.939067e-47
2.9390665e-47
2.9390679e-47
2.9390723e-47
2.9390839e-47
2.9395725e-47
2.9392683e-47
2.9391363e-47
2.9390876e-47
2.9390724e-47
2.9390684e-47
2.9390679e-47
2.9390693e-47
2.9390737e-47
2.9390853e-47
2.9395747e-47
2.9392717e-47
2.9391404e-47
2.9390919e-47
2.9390768e-47
2.9390728e-47
2.9390723e-47
2.9390737e-47
2.9390782e-47
2.9390897e-47
2.9395805e-47
2.9392816e-47
2.9391515e-47
2.9391034e-47
2.9390883e-47
2.9390843e-47
2.9390839e-47
2.9390853e-47
2.9390897e-47
2.9391013e-47
1.7957606e-46
1.7955811e-46
1.795503e-46
1.7954741e-46
1.7954651e-46
1.7954627e-46
1.7954622e-46
1.7954626e-46
1.7954639e-46
1.7954673e-46
1.7955811e-46
1.7954017e-46
1.7953236e-46
1.7952947e-46
1.7952857e-46
1.7952833e-46
1.7952829e-46
1.7952835e-46
1.7952856e-46
1.7952914e-46
1.795503e-46
1.7953236e-46
1.7952455e-46
1.7952167e-46
1.7952076e-46
1.7952053e-46
1.7952049e-46
1.7952057e-46
1.7952081e-46
1.7952146e-46
1.7954741e-46
1.7952947e-46
1.7952167e-46
1.7951878e-46
1.7951788e-46
1.7951764e-46
1.7951761e-46
1.7951769e-46
1.7951795e-46
1.7951863e-46
1.7954651e-46
1.7952857e-46
1.7952076e-46
1.7951788e-46
1.7951697e-46
1.7951674e-46
1.7951671e-46
1.7951679e-46
1.7951706e-46
1.7951774e-46
1.7954627e-46
1.7952833e-46
1.7952053e-46
1.7951764e-46
1.7951674e-46
1.795165e-46
1.7951647e-46
1.7951656e-46
1.7951682e-46
1.795175e-46
1.7954622e-46
1.7952829e-46
1.7952049e-46
1.7951761e-46
1.7951671e-46
1.7951647e-46
1.7951645e-46
1.7951653e-46
1.7951679e-46
1.7951748e-46
1.7954626e-46
1.7952835e-46
1.7952057e-46
1.7951769e-46
1.7951679e-46
1.7951656e-46
1.7951653e-46
1.7951661e-46
1.7951688e-46
1.7951756e-46
1.7954639e-46
1.7952856e-46
1.7952081e-46
1.7951795e-46
1.7951706e-46
1.7951682e-46
1.7951679e-46
1.7951688e-46
1.7951714e-46
1.7951782e-46
1.7954673e-46
1.7952914e-46
1.7952146e-46
1.7951863e-46
1.7951774e-46
1.795175e-46
1.7951748e-46
1.7951756e-46
1.7951782e-46
1.7951851e-46
1.1200958e-45
1.1199879e-45
1.1199409e-45
1.1199235e-45
1.1199181e-45
1.1199166e-45
1.1199164e-45
1.1199166e-45
1.1199174e-45
1.1199194e-45
1.1199879e-45
1.1198801e-45
1.1198331e-45
1.1198158e-45
1.1198103e-45
1.1198089e-45
1.1198086e-45
1.119809e-45
1.1198102e-45
1.1198137e-45
1.1199409e-45
1.1198331e-45
1.1197862e-45
1.1197688e-45
1.1197633e-45
1.1197619e-45
1.1197617e-45
1.1197621e-45
1.1197636e-45
1.1197676e-45
1.1199235e-45
1.1198158e-45
1.1197688e-45
1.1197514e-45
1.1197459e-45
1.1197445e-45
1.1197443e-45
1.1197448e-45
1.1197464e-45
1.1197505e-45
1.1199181e-45
1.1198103e-45
1.1197633e-45
1.1197459e-45
1.1197405e-45
1.1197391e-45
1.1197389e-45
1.1197394e-45
1.119741e-45
1.1197451e-45
1.1199166e-45
1.1198089e-45
1.1197619e-45
1.1197445e-45
1.1197391e-45
1.1197376e-45
1.1197375e-45
1.119738e-45
1.1197396e-45
1.1197437e-45
1.1199164e-45
1.1198086e-45
1.1197617e-45
1.1197443e-45
1.1197389e-45
1.1197375e-45
1.1197373e-45
1.1197378e-45
1.1197394e-45
1.1197436e-45
1.1199166e-45
1.119809e-45
1.1197621e-45
1.1197448e-45
1.1197394e-45
1.119738e-45
1.1197378e-45
1.1197383e-45
1.1197399e-45
1.1197441e-45
1.1199174e-45
1.1198102e-45
1.1197636e-45
1.1197464e-45
1.119741e-45
1.1197396e-45
1.1197394e-45
1.1197399e-45
1.1197416e-45
1.1197457e-45
1.1199194e-45
1.1198137e-45
1.1197676e-45
1.1197505e-45
1.1197451e-45
1.1197437e-45
1.1197436e-45
1.1197441e-45
1.1197457e-45
1.1197498e-45
7.133633e-45
7.132972e-45
7.1326833e-45
7.1325764e-45
7.1325429e-45
7.132534e-45
7.1325324e-45
7.1325338e-45
7.1325387e-45
7.1325509e-45
7.132972e-45
7.1323113e-45
7.1320227e-45
7.1319158e-45
7.1318823e-45
7.1318735e-45
7.1318721e-45
7.1318743e-45
7.131882e-45
7.1319036e-45
7.1326833e-45
7.1320227e-45
7.1317341e-45
7.1316273e-45
7.1315938e-45
7.131585e-45
7.1315838e-45
7.1315866e-45
7.1315958e-45
7.1316201e-45
7.1325764e-45
7.1319158e-45
7.1316273e-45
7.1315204e-45
7.1314869e-45
7.1314782e-45
7.1314771e-45
7.1314802e-45
7.13149e-45
7.1315151e-45
7.1325429e-45
7.1318823e-45
7.1315938e-45
7.1314869e-45
7.1314535e-45
7.1314447e-45
7.1314437e-45
7.1314468e-45
7.1314568e-45
7.1314821e-45
7.132534e-45
7.1318735e-45
7.131585e-45
7.1314782e-45
7.1314447e-45
7.131436e-45
7.1314349e-45
7.1314381e-45
7.1314481e-45
7.1314735e-45
7.1325324e-45
7.1318721e-45
7.1315838e-45
7.1314771e-45
7.1314437e-45
7.1314349e-45
7.1314339e-45
7.1314371e-45
7.1314471e-45
7.1314725e-45
7.1325338e-45
7.1318743e-45
7.1315866e-45
7.1314802e-45
7.1314468e-45
7.1314381e-45
7.1314371e-45
7.1314403e-45
7.1314503e-45
7.1314757e-45
7.1325387e-45
7.131882e-45
7.1315958e-45
7.13149e-45
7.1314568e-45
7.1314481e-45
7.1314471e-45
7.1314503e-45
7.1314604e-45
7.1314858e-45
7.1325509e-45
7.1319036e-45
7.1316201e-45
7.1315151e-45
7.1314821e-45
7.1314735e-45
7.1314725e-45