/*--------------------------------*- C++ -*----------------------------------*\
| =========                 |                                                 |
| \\      /  F ield         | OpenFOAM: The Open Source CFD Toolbox           |
|  \\    /   O peration     | Version:  dev                                   |
|   \\  /    A nd           | Web:      www.OpenFOAM.org                      |
|    \\/     M anipulation  |                                                 |
\*---------------------------------------------------------------------------*/
FoamFile
{
    version     2.0;
    format      ascii;
    class       volScalarField;
    location    "76.995";
    object      A;
}
// * * * * * * * * * * * * * * * * * * * * * * * * * * * * * * * * * * * * * //

dimensions      [0 0 0 0 1 0 0];

internalField   nonuniform List<scalar> 
10000
(
5.1574548e-25
5.1514197e-25
5.1482142e-25
5.1464762e-25
5.1455896e-25
5.1452018e-25
5.1451311e-25
5.1453327e-25
5.1459033e-25
5.1470648e-25
5.1514197e-25
5.1454094e-25
5.1422125e-25
5.1404785e-25
5.1395944e-25
5.1392097e-25
5.139145e-25
5.1393606e-25
5.1399677e-25
5.1412346e-25
5.1482142e-25
5.1422125e-25
5.1390209e-25
5.13729e-25
5.1364087e-25
5.1360277e-25
5.1359699e-25
5.1361993e-25
5.1368316e-25
5.1381346e-25
5.1464762e-25
5.1404785e-25
5.13729e-25
5.1355617e-25
5.1346828e-25
5.1343051e-25
5.1342528e-25
5.1344915e-25
5.1351373e-25
5.136454e-25
5.1455896e-25
5.1395944e-25
5.1364087e-25
5.1346828e-25
5.133806e-25
5.1334309e-25
5.1333823e-25
5.1336264e-25
5.1342789e-25
5.1356011e-25
5.1452018e-25
5.1392097e-25
5.1360277e-25
5.1343051e-25
5.1334309e-25
5.133058e-25
5.1330119e-25
5.1332588e-25
5.1339146e-25
5.135239e-25
5.1451311e-25
5.139145e-25
5.1359699e-25
5.1342528e-25
5.1333823e-25
5.1330119e-25
5.1329675e-25
5.1332162e-25
5.1338735e-25
5.1351991e-25
5.1453327e-25
5.1393606e-25
5.1361993e-25
5.1344915e-25
5.1336264e-25
5.1332588e-25
5.1332162e-25
5.133466e-25
5.1341244e-25
5.1354507e-25
5.1459033e-25
5.1399677e-25
5.1368316e-25
5.1351373e-25
5.1342789e-25
5.1339146e-25
5.1338735e-25
5.1341244e-25
5.1347837e-25
5.1361114e-25
5.1470648e-25
5.1412346e-25
5.1381346e-25
5.136454e-25
5.1356011e-25
5.135239e-25
5.1351991e-25
5.1354507e-25
5.1361114e-25
5.1374427e-25
1.7292155e-24
1.7272692e-24
1.7262062e-24
1.7256286e-24
1.7253337e-24
1.7252046e-24
1.725181e-24
1.7252477e-24
1.7254371e-24
1.7258367e-24
1.7272692e-24
1.7253306e-24
1.7242705e-24
1.7236941e-24
1.7234001e-24
1.7232721e-24
1.7232504e-24
1.7233218e-24
1.7235235e-24
1.7239585e-24
1.7262062e-24
1.7242705e-24
1.7232121e-24
1.7226368e-24
1.7223436e-24
1.7222169e-24
1.7221975e-24
1.7222736e-24
1.7224836e-24
1.7229307e-24
1.7256286e-24
1.7236941e-24
1.7226368e-24
1.7220623e-24
1.72177e-24
1.7216443e-24
1.7216268e-24
1.7217059e-24
1.7219205e-24
1.7223722e-24
1.7253337e-24
1.7234001e-24
1.7223436e-24
1.72177e-24
1.7214784e-24
1.7213535e-24
1.7213373e-24
1.7214182e-24
1.721635e-24
1.7220886e-24
1.7252046e-24
1.7232721e-24
1.7222169e-24
1.7216443e-24
1.7213535e-24
1.7212295e-24
1.721214e-24
1.7212959e-24
1.7215138e-24
1.7219681e-24
1.725181e-24
1.7232504e-24
1.7221975e-24
1.7216268e-24
1.7213373e-24
1.721214e-24
1.7211992e-24
1.7212817e-24
1.7215001e-24
1.7219547e-24
1.7252477e-24
1.7233218e-24
1.7222736e-24
1.7217059e-24
1.7214182e-24
1.7212959e-24
1.7212817e-24
1.7213645e-24
1.7215833e-24
1.7220382e-24
1.7254371e-24
1.7235235e-24
1.7224836e-24
1.7219205e-24
1.721635e-24
1.7215138e-24
1.7215001e-24
1.7215833e-24
1.7218024e-24
1.7222577e-24
1.7258367e-24
1.7239585e-24
1.7229307e-24
1.7223722e-24
1.7220886e-24
1.7219681e-24
1.7219547e-24
1.7220382e-24
1.7222577e-24
1.7227144e-24
3.5675907e-24
3.5637069e-24
3.5615554e-24
3.5603828e-24
3.5597834e-24
3.5595209e-24
3.5594723e-24
3.5596068e-24
3.5599893e-24
3.5608219e-24
3.5637069e-24
3.5598383e-24
3.5576925e-24
3.5565225e-24
3.5559248e-24
3.5556643e-24
3.5556198e-24
3.5557639e-24
3.5561716e-24
3.5570772e-24
3.5615554e-24
3.5576925e-24
3.5555501e-24
3.5543823e-24
3.5537864e-24
3.5535285e-24
3.5534888e-24
3.5536423e-24
3.5540673e-24
3.5549977e-24
3.5603828e-24
3.5565225e-24
3.5543823e-24
3.5532162e-24
3.5526219e-24
3.5523662e-24
3.5523303e-24
3.5524902e-24
3.5529245e-24
3.5538643e-24
3.5597834e-24
3.5559248e-24
3.5537864e-24
3.5526219e-24
3.5520292e-24
3.5517752e-24
3.5517419e-24
3.5519054e-24
3.5523443e-24
3.5532879e-24
3.5595209e-24
3.5556643e-24
3.5535285e-24
3.5523662e-24
3.5517752e-24
3.5515228e-24
3.5514911e-24
3.5516567e-24
3.5520978e-24
3.5530429e-24
3.5594723e-24
3.5556198e-24
3.5534888e-24
3.5523303e-24
3.5517419e-24
3.5514911e-24
3.5514606e-24
3.5516274e-24
3.5520695e-24
3.5530154e-24
3.5596068e-24
3.5557639e-24
3.5536423e-24
3.5524902e-24
3.5519054e-24
3.5516567e-24
3.5516274e-24
3.5517949e-24
3.5522378e-24
3.5531842e-24
3.5599893e-24
3.5561716e-24
3.5540673e-24
3.5529245e-24
3.5523443e-24
3.5520978e-24
3.5520695e-24
3.5522378e-24
3.5526813e-24
3.5536286e-24
3.5608219e-24
3.5570772e-24
3.5549977e-24
3.5538643e-24
3.5532879e-24
3.5530429e-24
3.5530154e-24
3.5531842e-24
3.5536286e-24
3.5545788e-24
6.7292651e-24
6.7221773e-24
6.7182167e-24
6.7160515e-24
6.7149429e-24
6.7144566e-24
6.7143657e-24
6.7146114e-24
6.7153109e-24
6.7168482e-24
6.7221773e-24
6.715117e-24
6.7111666e-24
6.7090061e-24
6.7079006e-24
6.7074182e-24
6.7073349e-24
6.7075987e-24
6.7083455e-24
6.7100201e-24
6.7182167e-24
6.7111666e-24
6.7072226e-24
6.7050661e-24
6.703964e-24
6.7034863e-24
6.703412e-24
6.7036934e-24
6.7044726e-24
6.7061938e-24
6.7160515e-24
6.7090061e-24
6.7050661e-24
6.7029127e-24
6.7018136e-24
6.7013401e-24
6.7012729e-24
6.7015663e-24
6.7023629e-24
6.7041017e-24
6.7149429e-24
6.7079006e-24
6.703964e-24
6.7018136e-24
6.7007174e-24
6.7002471e-24
6.7001847e-24
6.7004849e-24
6.7012902e-24
6.703036e-24
6.7144566e-24
6.7074182e-24
6.7034863e-24
6.7013401e-24
6.7002471e-24
6.6997797e-24
6.6997204e-24
6.7000244e-24
6.7008338e-24
6.7025825e-24
6.7143657e-24
6.7073349e-24
6.703412e-24
6.7012729e-24
6.7001847e-24
6.6997204e-24
6.6996633e-24
6.6999695e-24
6.7007809e-24
6.702531e-24
6.7146114e-24
6.7075987e-24
6.7036934e-24
6.7015663e-24
6.7004849e-24
6.7000244e-24
6.6999695e-24
6.7002772e-24
6.7010899e-24
6.702841e-24
6.7153109e-24
6.7083455e-24
6.7044726e-24
6.7023629e-24
6.7012902e-24
6.7008338e-24
6.7007809e-24
6.7010899e-24
6.7019039e-24
6.7036566e-24
6.7168482e-24
6.7100201e-24
6.7061938e-24
6.7041017e-24
6.703036e-24
6.7025825e-24
6.702531e-24
6.702841e-24
6.7036566e-24
6.7054146e-24
1.2471354e-23
1.2458648e-23
1.2451505e-23
1.2447589e-23
1.244558e-23
1.2444697e-23
1.244453e-23
1.2444969e-23
1.2446218e-23
1.244896e-23
1.2458648e-23
1.2445992e-23
1.2438867e-23
1.2434958e-23
1.2432955e-23
1.2432079e-23
1.2431927e-23
1.2432399e-23
1.2433735e-23
1.2436731e-23
1.2451505e-23
1.2438867e-23
1.2431753e-23
1.2427852e-23
1.2425855e-23
1.2424988e-23
1.2424851e-23
1.2425356e-23
1.2426752e-23
1.2429834e-23
1.2447589e-23
1.2434958e-23
1.2427852e-23
1.2423957e-23
1.2421965e-23
1.2421106e-23
1.2420982e-23
1.2421509e-23
1.2422937e-23
1.2426051e-23
1.244558e-23
1.2432955e-23
1.2425855e-23
1.2421965e-23
1.2419978e-23
1.2419125e-23
1.241901e-23
1.241955e-23
1.2420994e-23
1.242412e-23
1.2444697e-23
1.2432079e-23
1.2424988e-23
1.2421106e-23
1.2419125e-23
1.2418277e-23
1.2418168e-23
1.2418714e-23
1.2420166e-23
1.2423298e-23
1.244453e-23
1.2431927e-23
1.2424851e-23
1.2420982e-23
1.241901e-23
1.2418168e-23
1.2418063e-23
1.2418614e-23
1.2420069e-23
1.2423203e-23
1.2444969e-23
1.2432399e-23
1.2425356e-23
1.2421509e-23
1.241955e-23
1.2418714e-23
1.2418614e-23
1.2419167e-23
1.2420624e-23
1.242376e-23
1.2446218e-23
1.2433735e-23
1.2426752e-23
1.2422937e-23
1.2420994e-23
1.2420166e-23
1.2420069e-23
1.2420624e-23
1.2422084e-23
1.2425223e-23
1.244896e-23
1.2436731e-23
1.2429834e-23
1.2426051e-23
1.242412e-23
1.2423298e-23
1.2423203e-23
1.242376e-23
1.2425223e-23
1.2428372e-23
2.3162812e-23
2.3139996e-23
2.3127106e-23
2.3120017e-23
2.3116374e-23
2.3114771e-23
2.3114465e-23
2.3115249e-23
2.3117477e-23
2.312234e-23
2.3139996e-23
2.3117268e-23
2.310441e-23
2.3097336e-23
2.3093703e-23
2.3092113e-23
2.3091832e-23
2.3092678e-23
2.3095066e-23
2.3100398e-23
2.3127106e-23
2.310441e-23
2.3091572e-23
2.3084511e-23
2.3080889e-23
2.3079315e-23
2.3079064e-23
2.307997e-23
2.3082468e-23
2.3087958e-23
2.3120017e-23
2.3097336e-23
2.3084511e-23
2.307746e-23
2.3073849e-23
2.3072289e-23
2.3072062e-23
2.3073008e-23
2.3075565e-23
2.3081115e-23
2.3116374e-23
2.3093703e-23
2.3080889e-23
2.3073849e-23
2.3070247e-23
2.3068698e-23
2.3068487e-23
2.3069456e-23
2.3072043e-23
2.3077616e-23
2.3114771e-23
2.3092113e-23
2.3079315e-23
2.3072289e-23
2.3068698e-23
2.3067158e-23
2.3066958e-23
2.306794e-23
2.3070541e-23
2.3076124e-23
2.3114465e-23
2.3091832e-23
2.3079064e-23
2.3072062e-23
2.3068487e-23
2.3066958e-23
2.3066765e-23
2.3067755e-23
2.3070362e-23
2.307595e-23
2.3115249e-23
2.3092678e-23
2.307997e-23
2.3073008e-23
2.3069456e-23
2.306794e-23
2.3067755e-23
2.3068749e-23
2.3071361e-23
2.3076952e-23
2.3117477e-23
2.3095066e-23
2.3082468e-23
2.3075565e-23
2.3072043e-23
2.3070541e-23
2.3070362e-23
2.3071361e-23
2.3073976e-23
2.3079573e-23
2.312234e-23
2.3100398e-23
2.3087958e-23
2.3081115e-23
2.3077616e-23
2.3076124e-23
2.307595e-23
2.3076952e-23
2.3079573e-23
2.3085186e-23
4.3367208e-23
4.3325925e-23
4.3302495e-23
4.3289573e-23
4.3282921e-23
4.327999e-23
4.3279422e-23
4.3280833e-23
4.3284831e-23
4.3293496e-23
4.3325925e-23
4.3284798e-23
4.3261426e-23
4.3248531e-23
4.3241898e-23
4.323899e-23
4.323847e-23
4.3239995e-23
4.3244292e-23
4.3253828e-23
4.3302495e-23
4.3261426e-23
4.323809e-23
4.3225219e-23
4.3218606e-23
4.3215727e-23
4.3215263e-23
4.3216899e-23
4.32214e-23
4.3231231e-23
4.3289573e-23
4.3248531e-23
4.3225219e-23
4.3212366e-23
4.3205772e-23
4.3202919e-23
4.32025e-23
4.3204211e-23
4.3208821e-23
4.3218763e-23
4.3282921e-23
4.3241898e-23
4.3218606e-23
4.3205772e-23
4.3199195e-23
4.3196363e-23
4.3195973e-23
4.3197727e-23
4.3202392e-23
4.3212378e-23
4.327999e-23
4.323899e-23
4.3215727e-23
4.3202919e-23
4.3196363e-23
4.3193549e-23
4.3193178e-23
4.3194956e-23
4.3199647e-23
4.3209651e-23
4.3279422e-23
4.323847e-23
4.3215263e-23
4.32025e-23
4.3195973e-23
4.3193178e-23
4.3192822e-23
4.3194613e-23
4.3199317e-23
4.320933e-23
4.3280833e-23
4.3239995e-23
4.3216899e-23
4.3204211e-23
4.3197727e-23
4.3194956e-23
4.3194613e-23
4.3196414e-23
4.3201125e-23
4.3211144e-23
4.3284831e-23
4.3244292e-23
4.32214e-23
4.3208821e-23
4.3202392e-23
4.3199647e-23
4.3199317e-23
4.3201125e-23
4.3205844e-23
4.3215872e-23
4.3293496e-23
4.3253828e-23
4.3231231e-23
4.3218763e-23
4.3212378e-23
4.3209651e-23
4.320933e-23
4.3211144e-23
4.3215872e-23
4.322593e-23
8.199848e-23
8.1923074e-23
8.1880091e-23
8.1856322e-23
8.1844063e-23
8.1838652e-23
8.1837593e-23
8.1840155e-23
8.1847395e-23
8.1862962e-23
8.1923074e-23
8.1847951e-23
8.1805073e-23
8.1781352e-23
8.1769128e-23
8.1763761e-23
8.176279e-23
8.1765566e-23
8.1773367e-23
8.1790571e-23
8.1880091e-23
8.1805073e-23
8.1762262e-23
8.1738584e-23
8.1726397e-23
8.1721085e-23
8.1720219e-23
8.1723203e-23
8.1731387e-23
8.1749144e-23
8.1856322e-23
8.1781352e-23
8.1738584e-23
8.171494e-23
8.1702788e-23
8.1697525e-23
8.1696742e-23
8.1699865e-23
8.1708255e-23
8.172622e-23
8.1844063e-23
8.1769128e-23
8.1726397e-23
8.1702788e-23
8.1690668e-23
8.1685443e-23
8.1684716e-23
8.168792e-23
8.1696411e-23
8.171446e-23
8.1838652e-23
8.1763761e-23
8.1721085e-23
8.1697525e-23
8.1685443e-23
8.1680251e-23
8.167956e-23
8.1682809e-23
8.1691348e-23
8.1709431e-23
8.1837593e-23
8.176279e-23
8.1720219e-23
8.1696742e-23
8.1684716e-23
8.167956e-23
8.1678896e-23
8.168217e-23
8.1690733e-23
8.1708832e-23
8.1840155e-23
8.1765566e-23
8.1723203e-23
8.1699865e-23
8.168792e-23
8.1682809e-23
8.168217e-23
8.1685461e-23
8.1694039e-23
8.1712148e-23
8.1847395e-23
8.1773367e-23
8.1731387e-23
8.1708255e-23
8.1696411e-23
8.1691348e-23
8.1690733e-23
8.1694039e-23
8.1702629e-23
8.1720756e-23
8.1862962e-23
8.1790571e-23
8.1749144e-23
8.172622e-23
8.171446e-23
8.1709431e-23
8.1708832e-23
8.1712148e-23
8.1720756e-23
8.1738936e-23
1.5666511e-22
1.5652599e-22
1.5644636e-22
1.564022e-22
1.5637939e-22
1.563693e-22
1.563673e-22
1.56372e-22
1.5638525e-22
1.5641348e-22
1.5652599e-22
1.5638739e-22
1.5630795e-22
1.5626388e-22
1.5624113e-22
1.5623113e-22
1.562293e-22
1.562344e-22
1.5624871e-22
1.5628005e-22
1.5644636e-22
1.5630795e-22
1.5622863e-22
1.5618464e-22
1.5616196e-22
1.5615206e-22
1.5615043e-22
1.5615593e-22
1.5617096e-22
1.5620335e-22
1.564022e-22
1.5626388e-22
1.5618464e-22
1.5614072e-22
1.561181e-22
1.5610829e-22
1.5610682e-22
1.5611258e-22
1.56128e-22
1.5616079e-22
1.5637939e-22
1.5624113e-22
1.5616196e-22
1.561181e-22
1.5609555e-22
1.5608581e-22
1.5608444e-22
1.5609036e-22
1.5610597e-22
1.5613891e-22
1.563693e-22
1.5623113e-22
1.5615206e-22
1.5610829e-22
1.5608581e-22
1.5607614e-22
1.5607484e-22
1.5608084e-22
1.5609654e-22
1.5612955e-22
1.563673e-22
1.562293e-22
1.5615043e-22
1.5610682e-22
1.5608444e-22
1.5607484e-22
1.5607359e-22
1.5607963e-22
1.5609538e-22
1.5612842e-22
1.56372e-22
1.562344e-22
1.5615593e-22
1.5611258e-22
1.5609036e-22
1.5608084e-22
1.5607963e-22
1.5608571e-22
1.5610149e-22
1.5613455e-22
1.5638525e-22
1.5624871e-22
1.5617096e-22
1.56128e-22
1.5610597e-22
1.5609654e-22
1.5609538e-22
1.5610149e-22
1.5611729e-22
1.5615038e-22
1.5641348e-22
1.5628005e-22
1.5620335e-22
1.5616079e-22
1.5613891e-22
1.5612955e-22
1.5612842e-22
1.5613455e-22
1.5615038e-22
1.5618357e-22
3.0251721e-22
3.0225794e-22
3.021089e-22
3.0202603e-22
3.0198314e-22
3.0196416e-22
3.0196036e-22
3.0196907e-22
3.0199354e-22
3.0204529e-22
3.0225794e-22
3.0199961e-22
3.0185093e-22
3.0176823e-22
3.0172546e-22
3.0170663e-22
3.0170315e-22
3.0171263e-22
3.0173914e-22
3.0179684e-22
3.021089e-22
3.0185093e-22
3.0170247e-22
3.0161992e-22
3.0157728e-22
3.0155865e-22
3.0155555e-22
3.0156578e-22
3.0159368e-22
3.0165339e-22
3.0202603e-22
3.0176823e-22
3.0161992e-22
3.0153748e-22
3.0149497e-22
3.0147651e-22
3.0147371e-22
3.0148445e-22
3.0151309e-22
3.0157356e-22
3.0198314e-22
3.0172546e-22
3.0157728e-22
3.0149497e-22
3.0145257e-22
3.0143425e-22
3.0143165e-22
3.0144269e-22
3.0147169e-22
3.0153246e-22
3.0196416e-22
3.0170663e-22
3.0155865e-22
3.0147651e-22
3.0143425e-22
3.0141605e-22
3.0141358e-22
3.0142477e-22
3.0145395e-22
3.0151485e-22
3.0196036e-22
3.0170315e-22
3.0155555e-22
3.0147371e-22
3.0143165e-22
3.0141358e-22
3.0141121e-22
3.014225e-22
3.0145176e-22
3.0151271e-22
3.0196907e-22
3.0171263e-22
3.0156578e-22
3.0148445e-22
3.0144269e-22
3.0142477e-22
3.014225e-22
3.0143384e-22
3.0146316e-22
3.0152414e-22
3.0199354e-22
3.0173914e-22
3.0159368e-22
3.0151309e-22
3.0147169e-22
3.0145395e-22
3.0145176e-22
3.0146316e-22
3.0149252e-22
3.0155356e-22
3.0204529e-22
3.0179684e-22
3.0165339e-22
3.0157356e-22
3.0153246e-22
3.0151485e-22
3.0151271e-22
3.0152414e-22
3.0155356e-22
3.0161478e-22
5.9044686e-22
5.8995864e-22
5.8967684e-22
5.8951974e-22
5.894383e-22
5.8940219e-22
5.893949e-22
5.8941121e-22
5.8945692e-22
5.8955273e-22
5.8995864e-22
5.894722e-22
5.8919107e-22
5.8903428e-22
5.8895305e-22
5.8891725e-22
5.8891058e-22
5.8892838e-22
5.8897802e-22
5.8908536e-22
5.8967684e-22
5.8919107e-22
5.8891036e-22
5.8875385e-22
5.8867288e-22
5.8863745e-22
5.8863151e-22
5.8865077e-22
5.8870309e-22
5.8881431e-22
5.8951974e-22
5.8903428e-22
5.8875385e-22
5.8859757e-22
5.8851683e-22
5.8848174e-22
5.8847638e-22
5.8849661e-22
5.8855037e-22
5.8866305e-22
5.894383e-22
5.8895305e-22
5.8867288e-22
5.8851683e-22
5.8843632e-22
5.884015e-22
5.8839652e-22
5.8841732e-22
5.8847178e-22
5.8858505e-22
5.8940219e-22
5.8891725e-22
5.8863745e-22
5.8848174e-22
5.884015e-22
5.883669e-22
5.8836218e-22
5.8838328e-22
5.8843808e-22
5.8855159e-22
5.893949e-22
5.8891058e-22
5.8863151e-22
5.8847638e-22
5.8839652e-22
5.8836218e-22
5.8835764e-22
5.8837892e-22
5.8843388e-22
5.885475e-22
5.8941121e-22
5.8892838e-22
5.8865077e-22
5.8849661e-22
5.8841732e-22
5.8838328e-22
5.8837892e-22
5.8840032e-22
5.8845538e-22
5.8856907e-22
5.8945692e-22
5.8897802e-22
5.8870309e-22
5.8855037e-22
5.8847178e-22
5.8843808e-22
5.8843388e-22
5.8845538e-22
5.8851052e-22
5.8862432e-22
5.8955273e-22
5.8908536e-22
5.8881431e-22
5.8866305e-22
5.8858505e-22
5.8855159e-22
5.885475e-22
5.8856907e-22
5.8862432e-22
5.8873843e-22
1.1649049e-21
1.163976e-21
1.1634377e-21
1.1631368e-21
1.1629806e-21
1.1629112e-21
1.1628971e-21
1.162928e-21
1.1630142e-21
1.1631935e-21
1.163976e-21
1.1630506e-21
1.1625135e-21
1.1622132e-21
1.1620574e-21
1.1619886e-21
1.1619757e-21
1.1620095e-21
1.1621034e-21
1.1623052e-21
1.1634377e-21
1.1625135e-21
1.1619773e-21
1.1616775e-21
1.1615222e-21
1.1614541e-21
1.1614426e-21
1.1614792e-21
1.1615784e-21
1.1617878e-21
1.1631368e-21
1.1622132e-21
1.1616775e-21
1.1613782e-21
1.1612233e-21
1.1611559e-21
1.1611455e-21
1.161184e-21
1.161286e-21
1.1614983e-21
1.1629806e-21
1.1620574e-21
1.1615222e-21
1.1612233e-21
1.1610688e-21
1.161002e-21
1.1609923e-21
1.161032e-21
1.1611353e-21
1.1613487e-21
1.1629112e-21
1.1619886e-21
1.1614541e-21
1.1611559e-21
1.161002e-21
1.1609355e-21
1.1609264e-21
1.1609666e-21
1.1610706e-21
1.1612845e-21
1.1628971e-21
1.1619757e-21
1.1614426e-21
1.1611455e-21
1.1609923e-21
1.1609264e-21
1.1609176e-21
1.1609582e-21
1.1610625e-21
1.1612766e-21
1.162928e-21
1.1620095e-21
1.1614792e-21
1.161184e-21
1.161032e-21
1.1609666e-21
1.1609582e-21
1.160999e-21
1.1611035e-21
1.1613177e-21
1.1630142e-21
1.1621034e-21
1.1615784e-21
1.161286e-21
1.1611353e-21
1.1610706e-21
1.1610625e-21
1.1611035e-21
1.1612082e-21
1.1614226e-21
1.1631935e-21
1.1623052e-21
1.1617878e-21
1.1614983e-21
1.1613487e-21
1.1612845e-21
1.1612766e-21
1.1613177e-21
1.1614226e-21
1.1616376e-21
2.323263e-21
2.3214774e-21
2.3204385e-21
2.3198563e-21
2.3195534e-21
2.3194188e-21
2.3193912e-21
2.3194503e-21
2.3196148e-21
2.3199537e-21
2.3214774e-21
2.3196983e-21
2.3186618e-21
2.3180807e-21
2.3177786e-21
2.3176452e-21
2.3176199e-21
2.3176847e-21
2.3178644e-21
2.3182479e-21
2.3204385e-21
2.3186618e-21
2.3176268e-21
2.3170467e-21
2.3167456e-21
2.3166136e-21
2.3165911e-21
2.3166615e-21
2.3168516e-21
2.31725e-21
2.3198563e-21
2.3180807e-21
2.3170467e-21
2.3164675e-21
2.3161673e-21
2.3160366e-21
2.3160163e-21
2.3160905e-21
2.316286e-21
2.3166901e-21
2.3195534e-21
2.3177786e-21
2.3167456e-21
2.3161673e-21
2.315868e-21
2.3157382e-21
2.3157195e-21
2.3157958e-21
2.3159941e-21
2.3164004e-21
2.3194188e-21
2.3176452e-21
2.3166136e-21
2.3160366e-21
2.3157382e-21
2.3156094e-21
2.3155916e-21
2.3156691e-21
2.3158686e-21
2.3162759e-21
2.3193912e-21
2.3176199e-21
2.3165911e-21
2.3160163e-21
2.3157195e-21
2.3155916e-21
2.3155745e-21
2.3156527e-21
2.3158529e-21
2.3162606e-21
2.3194503e-21
2.3176847e-21
2.3166615e-21
2.3160905e-21
2.3157958e-21
2.3156691e-21
2.3156527e-21
2.3157313e-21
2.3159319e-21
2.3163398e-21
2.3196148e-21
2.3178644e-21
2.3168516e-21
2.316286e-21
2.3159941e-21
2.3158686e-21
2.3158529e-21
2.3159319e-21
2.3161327e-21
2.3165411e-21
2.3199537e-21
2.3182479e-21
2.31725e-21
2.3166901e-21
2.3164004e-21
2.3162759e-21
2.3162606e-21
2.3163398e-21
2.3165411e-21
2.3169505e-21
4.684027e-21
4.680559e-21
4.678533e-21
4.6773948e-21
4.6768018e-21
4.6765378e-21
4.6764832e-21
4.6765975e-21
4.6769146e-21
4.6775622e-21
4.680559e-21
4.6771033e-21
4.6750819e-21
4.6739459e-21
4.6733544e-21
4.6730927e-21
4.6730429e-21
4.6731686e-21
4.673516e-21
4.6742525e-21
4.678533e-21
4.6750819e-21
4.6730636e-21
4.6719295e-21
4.67134e-21
4.6710812e-21
4.6710369e-21
4.6711737e-21
4.6715417e-21
4.6723081e-21
4.6773948e-21
4.6739459e-21
4.6719295e-21
4.6707971e-21
4.6702093e-21
4.6699531e-21
4.6699132e-21
4.6700575e-21
4.6704365e-21
4.6712142e-21
4.6768018e-21
4.6733544e-21
4.67134e-21
4.6702093e-21
4.6696232e-21
4.669369e-21
4.669332e-21
4.6694807e-21
4.6698651e-21
4.6706472e-21
4.6765378e-21
4.6730927e-21
4.6710812e-21
4.6699531e-21
4.669369e-21
4.6691165e-21
4.6690815e-21
4.6692324e-21
4.6696194e-21
4.6704035e-21
4.6764832e-21
4.6730429e-21
4.6710369e-21
4.6699132e-21
4.669332e-21
4.6690815e-21
4.6690479e-21
4.6692002e-21
4.6695884e-21
4.6703733e-21
4.6765975e-21
4.6731686e-21
4.6711737e-21
4.6700575e-21
4.6694807e-21
4.6692324e-21
4.6692002e-21
4.6693534e-21
4.6697424e-21
4.6705277e-21
4.6769146e-21
4.673516e-21
4.6715417e-21
4.6704365e-21
4.6698651e-21
4.6696194e-21
4.6695884e-21
4.6697424e-21
4.670132e-21
4.6709181e-21
4.6775622e-21
4.6742525e-21
4.6723081e-21
4.6712142e-21
4.6706472e-21
4.6704035e-21
4.6703733e-21
4.6705277e-21
4.6709181e-21
4.6717063e-21
9.5469443e-21
9.540138e-21
9.5361465e-21
9.5338982e-21
9.532725e-21
9.5322022e-21
9.5320933e-21
9.5323167e-21
9.5329346e-21
9.534185e-21
9.540138e-21
9.5333559e-21
9.5293732e-21
9.5271292e-21
9.5259591e-21
9.5254408e-21
9.5253415e-21
9.5255879e-21
9.5262669e-21
9.5276967e-21
9.5361465e-21
9.5293732e-21
9.5253965e-21
9.5231564e-21
9.5219901e-21
9.5214776e-21
9.5213894e-21
9.5216582e-21
9.5223786e-21
9.5238688e-21
9.5338982e-21
9.5271292e-21
9.5231564e-21
9.5209196e-21
9.5197568e-21
9.5192495e-21
9.5191702e-21
9.519454e-21
9.5201966e-21
9.5217094e-21
9.532725e-21
9.5259591e-21
9.5219901e-21
9.5197568e-21
9.5185974e-21
9.5180941e-21
9.5180207e-21
9.5183132e-21
9.5190667e-21
9.5205885e-21
9.5322022e-21
9.5254408e-21
9.5214776e-21
9.5192495e-21
9.5180941e-21
9.5175943e-21
9.5175247e-21
9.517822e-21
9.5185806e-21
9.5201062e-21
9.5320933e-21
9.5253415e-21
9.5213894e-21
9.5191702e-21
9.5180207e-21
9.5175247e-21
9.5174581e-21
9.517758e-21
9.5185191e-21
9.5200465e-21
9.5323167e-21
9.5255879e-21
9.5216582e-21
9.519454e-21
9.5183132e-21
9.517822e-21
9.517758e-21
9.5180598e-21
9.5188224e-21
9.5203507e-21
9.5329346e-21
9.5262669e-21
9.5223786e-21
9.5201966e-21
9.5190667e-21
9.5185806e-21
9.5185191e-21
9.5188224e-21
9.5195862e-21
9.521116e-21
9.534185e-21
9.5276967e-21
9.5238688e-21
9.5217094e-21
9.5205885e-21
9.5201062e-21
9.5200465e-21
9.5203507e-21
9.521116e-21
9.5226498e-21
1.9671619e-20
1.9658122e-20
1.9650177e-20
1.964569e-20
1.9643345e-20
1.9642299e-20
1.964208e-20
1.9642521e-20
1.9643738e-20
1.9646178e-20
1.9658122e-20
1.9644673e-20
1.9636745e-20
1.9632266e-20
1.9629928e-20
1.9628891e-20
1.9628691e-20
1.9629179e-20
1.963052e-20
1.9633326e-20
1.9650177e-20
1.9636745e-20
1.9628828e-20
1.9624358e-20
1.9622026e-20
1.9621001e-20
1.9620824e-20
1.9621358e-20
1.9622784e-20
1.9625712e-20
1.964569e-20
1.9632266e-20
1.9624358e-20
1.9619894e-20
1.961757e-20
1.9616555e-20
1.9616396e-20
1.961696e-20
1.9618431e-20
1.9621406e-20
1.9643345e-20
1.9629928e-20
1.9622026e-20
1.961757e-20
1.9615253e-20
1.9614246e-20
1.9614099e-20
1.9614681e-20
1.9616174e-20
1.9619167e-20
1.9642299e-20
1.9628891e-20
1.9621001e-20
1.9616555e-20
1.9614246e-20
1.9613246e-20
1.9613107e-20
1.9613699e-20
1.9615202e-20
1.9618203e-20
1.964208e-20
1.9628691e-20
1.9620824e-20
1.9616396e-20
1.9614099e-20
1.9613107e-20
1.9612974e-20
1.9613571e-20
1.9615079e-20
1.9618084e-20
1.9642521e-20
1.9629179e-20
1.9621358e-20
1.961696e-20
1.9614681e-20
1.9613699e-20
1.9613571e-20
1.9614172e-20
1.9615683e-20
1.961869e-20
1.9643738e-20
1.963052e-20
1.9622784e-20
1.9618431e-20
1.9616174e-20
1.9615202e-20
1.9615079e-20
1.9615683e-20
1.9617197e-20
1.9620206e-20
1.9646178e-20
1.9633326e-20
1.9625712e-20
1.9621406e-20
1.9619167e-20
1.9618203e-20
1.9618084e-20
1.961869e-20
1.9620206e-20
1.9623223e-20
4.0977833e-20
4.095079e-20
4.0934809e-20
4.0925764e-20
4.0921028e-20
4.0918914e-20
4.0918468e-20
4.0919351e-20
4.0921773e-20
4.0926586e-20
4.095079e-20
4.0923841e-20
4.0907895e-20
4.0898866e-20
4.0894143e-20
4.0892048e-20
4.0891642e-20
4.089262e-20
4.0895299e-20
4.0900865e-20
4.0934809e-20
4.0907895e-20
4.0891972e-20
4.0882959e-20
4.0878252e-20
4.087618e-20
4.0875821e-20
4.0876893e-20
4.0879744e-20
4.0885564e-20
4.0925764e-20
4.0898866e-20
4.0882959e-20
4.0873959e-20
4.0869266e-20
4.0867216e-20
4.0866894e-20
4.0868029e-20
4.0870973e-20
4.0876887e-20
4.0921028e-20
4.0894143e-20
4.0878252e-20
4.0869266e-20
4.0864588e-20
4.0862554e-20
4.0862256e-20
4.0863428e-20
4.0866417e-20
4.0872369e-20
4.0918914e-20
4.0892048e-20
4.087618e-20
4.0867216e-20
4.0862554e-20
4.0860535e-20
4.0860253e-20
4.0861444e-20
4.0864456e-20
4.0870423e-20
4.0918468e-20
4.0891642e-20
4.0875821e-20
4.0866894e-20
4.0862256e-20
4.0860253e-20
4.0859984e-20
4.0861186e-20
4.0864208e-20
4.0870183e-20
4.0919351e-20
4.089262e-20
4.0876893e-20
4.0868029e-20
4.0863428e-20
4.0861444e-20
4.0861186e-20
4.0862396e-20
4.0865423e-20
4.0871402e-20
4.0921773e-20
4.0895299e-20
4.0879744e-20
4.0870973e-20
4.0866417e-20
4.0864456e-20
4.0864208e-20
4.0865423e-20
4.0868456e-20
4.0874441e-20
4.0926586e-20
4.0900865e-20
4.0885564e-20
4.0876887e-20
4.0872369e-20
4.0870423e-20
4.0870183e-20
4.0871402e-20
4.0874441e-20
4.0880441e-20
8.6295648e-20
8.62409e-20
8.6208427e-20
8.6190001e-20
8.6180341e-20
8.6176024e-20
8.6175109e-20
8.6176891e-20
8.6181765e-20
8.6191359e-20
8.62409e-20
8.6186341e-20
8.6153938e-20
8.6135546e-20
8.6125912e-20
8.6121633e-20
8.6120801e-20
8.6122783e-20
8.6128189e-20
8.613935e-20
8.6208427e-20
8.6153938e-20
8.6121581e-20
8.6103221e-20
8.6093619e-20
8.6089389e-20
8.6088654e-20
8.6090831e-20
8.6096596e-20
8.6108284e-20
8.6190001e-20
8.6135546e-20
8.6103221e-20
8.6084889e-20
8.6075317e-20
8.6071131e-20
8.6070473e-20
8.607278e-20
8.6078738e-20
8.6090623e-20
8.6180341e-20
8.6125912e-20
8.6093619e-20
8.6075317e-20
8.6065773e-20
8.6061623e-20
8.6061015e-20
8.6063397e-20
8.606945e-20
8.6081414e-20
8.6176024e-20
8.6121633e-20
8.6089389e-20
8.6071131e-20
8.6061623e-20
8.6057502e-20
8.6056928e-20
8.6059351e-20
8.6065449e-20
8.6077445e-20
8.6175109e-20
8.6120801e-20
8.6088654e-20
8.6070473e-20
8.6061015e-20
8.6056928e-20
8.6056379e-20
8.6058825e-20
8.6064945e-20
8.6076956e-20
8.6176891e-20
8.6122783e-20
8.6090831e-20
8.607278e-20
8.6063397e-20
8.6059351e-20
8.6058825e-20
8.6061287e-20
8.6067419e-20
8.6079439e-20
8.6181765e-20
8.6128189e-20
8.6096596e-20
8.6078738e-20
8.606945e-20
8.6065449e-20
8.6064945e-20
8.6067419e-20
8.6073561e-20
8.6085592e-20
8.6191359e-20
8.613935e-20
8.6108284e-20
8.6090623e-20
8.6081414e-20
8.6077445e-20
8.6076956e-20
8.6079439e-20
8.6085592e-20
8.6097652e-20
1.8371847e-19
1.8360648e-19
1.8353982e-19
1.835019e-19
1.83482e-19
1.8347309e-19
1.834712e-19
1.8347483e-19
1.8348474e-19
1.8350408e-19
1.8360648e-19
1.8349489e-19
1.8342836e-19
1.8339051e-19
1.8337066e-19
1.8336184e-19
1.8336011e-19
1.8336417e-19
1.833752e-19
1.8339783e-19
1.8353982e-19
1.8342836e-19
1.8336193e-19
1.8332415e-19
1.8330436e-19
1.8329564e-19
1.8329412e-19
1.8329859e-19
1.8331038e-19
1.8333411e-19
1.835019e-19
1.8339051e-19
1.8332415e-19
1.8328643e-19
1.832667e-19
1.8325807e-19
1.8325672e-19
1.8326146e-19
1.8327364e-19
1.8329779e-19
1.83482e-19
1.8337066e-19
1.8330436e-19
1.832667e-19
1.8324704e-19
1.8323848e-19
1.8323723e-19
1.8324213e-19
1.8325451e-19
1.8327882e-19
1.8347309e-19
1.8336184e-19
1.8329564e-19
1.8325807e-19
1.8323848e-19
1.8322999e-19
1.8322881e-19
1.8323379e-19
1.8324627e-19
1.8327065e-19
1.834712e-19
1.8336011e-19
1.8329412e-19
1.8325672e-19
1.8323723e-19
1.8322881e-19
1.8322768e-19
1.8323271e-19
1.8324524e-19
1.8326965e-19
1.8347483e-19
1.8336417e-19
1.8329859e-19
1.8326146e-19
1.8324213e-19
1.8323379e-19
1.8323271e-19
1.8323777e-19
1.8325033e-19
1.8327475e-19
1.8348474e-19
1.833752e-19
1.8331038e-19
1.8327364e-19
1.8325451e-19
1.8324627e-19
1.8324524e-19
1.8325033e-19
1.832629e-19
1.8328735e-19
1.8350408e-19
1.8339783e-19
1.8333411e-19
1.8329779e-19
1.8327882e-19
1.8327065e-19
1.8326965e-19
1.8327475e-19
1.8328735e-19
1.8331186e-19
3.9539262e-19
3.9516121e-19
3.9502296e-19
3.9494414e-19
3.949027e-19
3.9488414e-19
3.9488018e-19
3.9488769e-19
3.9490806e-19
3.9494742e-19
3.9516121e-19
3.949306e-19
3.9479263e-19
3.9471395e-19
3.9467262e-19
3.9465423e-19
3.9465064e-19
3.9465904e-19
3.9468179e-19
3.9472814e-19
3.9502296e-19
3.9479263e-19
3.9465486e-19
3.9457632e-19
3.9453512e-19
3.9451696e-19
3.9451379e-19
3.9452306e-19
3.9454741e-19
3.9459611e-19
3.9494414e-19
3.9471395e-19
3.9457632e-19
3.944979e-19
3.9445684e-19
3.9443886e-19
3.9443604e-19
3.9444588e-19
3.9447109e-19
3.9452067e-19
3.949027e-19
3.9467262e-19
3.9453512e-19
3.9445684e-19
3.944159e-19
3.9439808e-19
3.9439548e-19
3.9440567e-19
3.9443129e-19
3.9448122e-19
3.9488414e-19
3.9465423e-19
3.9451696e-19
3.9443886e-19
3.9439808e-19
3.943804e-19
3.9437795e-19
3.9438831e-19
3.9441413e-19
3.9446421e-19
3.9488018e-19
3.9465064e-19
3.9451379e-19
3.9443604e-19
3.9439548e-19
3.9437795e-19
3.9437561e-19
3.9438607e-19
3.94412e-19
3.9446214e-19
3.9488769e-19
3.9465904e-19
3.9452306e-19
3.9444588e-19
3.9440567e-19
3.9438831e-19
3.9438607e-19
3.9439661e-19
3.9442258e-19
3.9447276e-19
3.9490806e-19
3.9468179e-19
3.9454741e-19
3.9447109e-19
3.9443129e-19
3.9441413e-19
3.94412e-19
3.9442258e-19
3.944486e-19
3.9449883e-19
3.9494742e-19
3.9472814e-19
3.9459611e-19
3.9452067e-19
3.9448122e-19
3.9446421e-19
3.9446214e-19
3.9447276e-19
3.9449883e-19
3.9454917e-19
8.6019811e-19
8.5971502e-19
8.5942537e-19
8.5925987e-19
8.5917273e-19
8.5913368e-19
8.5912532e-19
8.5914099e-19
8.5918331e-19
8.5926431e-19
8.5971502e-19
8.5923358e-19
8.5894452e-19
8.5877931e-19
8.5869241e-19
8.5865372e-19
8.5864614e-19
8.5866373e-19
8.5871113e-19
8.5880713e-19
8.5942537e-19
8.5894452e-19
8.5865588e-19
8.5849096e-19
8.5840434e-19
8.5836612e-19
8.5835947e-19
8.583789e-19
8.5842974e-19
8.5853077e-19
8.5925987e-19
8.5877931e-19
8.5849096e-19
8.5832629e-19
8.5823995e-19
8.5820215e-19
8.5819622e-19
8.582169e-19
8.5826957e-19
8.5837249e-19
8.5917273e-19
8.5869241e-19
8.5840434e-19
8.5823995e-19
8.5815389e-19
8.5811641e-19
8.5811097e-19
8.5813236e-19
8.5818594e-19
8.5828961e-19
8.5913368e-19
8.5865372e-19
8.5836612e-19
8.5820215e-19
8.5811641e-19
8.5807922e-19
8.580741e-19
8.5809588e-19
8.5814988e-19
8.5825386e-19
8.5912532e-19
8.5864614e-19
8.5835947e-19
8.5819622e-19
8.5811097e-19
8.580741e-19
8.5806921e-19
8.5809121e-19
8.5814542e-19
8.5824954e-19
8.5914099e-19
8.5866373e-19
8.583789e-19
8.582169e-19
8.5813236e-19
8.5809588e-19
8.5809121e-19
8.5811336e-19
8.5816769e-19
8.5827188e-19
8.5918331e-19
8.5871113e-19
8.5842974e-19
8.5826957e-19
8.5818594e-19
8.5814988e-19
8.5814542e-19
8.5816769e-19
8.5822211e-19
8.583264e-19
8.5926431e-19
8.5880713e-19
8.5853077e-19
8.5837249e-19
8.5828961e-19
8.5825386e-19
8.5824954e-19
8.5827188e-19