/*--------------------------------*- C++ -*----------------------------------*\
| =========                 |                                                 |
| \\      /  F ield         | OpenFOAM: The Open Source CFD Toolbox           |
|  \\    /   O peration     | Version:  dev                                   |
|   \\  /    A nd           | Web:      www.OpenFOAM.org                      |
|    \\/     M anipulation  |                                                 |
\*---------------------------------------------------------------------------*/
FoamFile
{
    version     2.0;
    format      ascii;
    class       volScalarField;
    location    "76.995";
    object      A_0;
}
// * * * * * * * * * * * * * * * * * * * * * * * * * * * * * * * * * * * * * //

dimensions      [0 0 0 0 1 0 0];

internalField   nonuniform List<scalar> 
10000
(
5.02975e-25
5.0238584e-25
5.0207297e-25
5.0190339e-25
5.0181692e-25
5.0177912e-25
5.0177224e-25
5.0179191e-25
5.0184756e-25
5.019609e-25
5.0238584e-25
5.017991e-25
5.0148707e-25
5.0131788e-25
5.0123166e-25
5.0119415e-25
5.0118785e-25
5.0120889e-25
5.0126812e-25
5.0139173e-25
5.0207297e-25
5.0148707e-25
5.0117556e-25
5.0100668e-25
5.0092072e-25
5.0088358e-25
5.0087796e-25
5.0090034e-25
5.0096202e-25
5.0108917e-25
5.0190339e-25
5.0131788e-25
5.0100668e-25
5.0083805e-25
5.0075232e-25
5.007155e-25
5.0071042e-25
5.007337e-25
5.0079671e-25
5.0092518e-25
5.0181692e-25
5.0123166e-25
5.0092072e-25
5.0075232e-25
5.0066681e-25
5.0063024e-25
5.0062552e-25
5.0064933e-25
5.0071299e-25
5.00842e-25
5.0177912e-25
5.0119415e-25
5.0088358e-25
5.007155e-25
5.0063024e-25
5.0059389e-25
5.005894e-25
5.006135e-25
5.0067747e-25
5.008067e-25
5.0177224e-25
5.0118785e-25
5.0087796e-25
5.0071042e-25
5.0062552e-25
5.005894e-25
5.0058509e-25
5.0060935e-25
5.0067348e-25
5.0080281e-25
5.0179191e-25
5.0120889e-25
5.0090034e-25
5.007337e-25
5.0064933e-25
5.006135e-25
5.0060935e-25
5.0063373e-25
5.0069795e-25
5.0082736e-25
5.0184756e-25
5.0126812e-25
5.0096202e-25
5.0079671e-25
5.0071299e-25
5.0067747e-25
5.0067348e-25
5.0069795e-25
5.0076228e-25
5.0089182e-25
5.019609e-25
5.0139173e-25
5.0108917e-25
5.0092518e-25
5.00842e-25
5.008067e-25
5.0080281e-25
5.0082736e-25
5.0089182e-25
5.0102172e-25
1.6865539e-24
1.6846537e-24
1.6836161e-24
1.6830524e-24
1.6827648e-24
1.682639e-24
1.682616e-24
1.6826811e-24
1.6828658e-24
1.6832557e-24
1.6846537e-24
1.682761e-24
1.6817262e-24
1.6811638e-24
1.680877e-24
1.6807522e-24
1.6807311e-24
1.6808008e-24
1.6809975e-24
1.681422e-24
1.6836161e-24
1.6817262e-24
1.6806931e-24
1.6801317e-24
1.6798458e-24
1.6797222e-24
1.6797034e-24
1.6797775e-24
1.6799825e-24
1.6804188e-24
1.6830524e-24
1.6811638e-24
1.6801317e-24
1.6795712e-24
1.679286e-24
1.6791635e-24
1.6791465e-24
1.6792237e-24
1.679433e-24
1.6798738e-24
1.6827648e-24
1.680877e-24
1.6798458e-24
1.679286e-24
1.6790015e-24
1.6788798e-24
1.678864e-24
1.678943e-24
1.6791546e-24
1.6795971e-24
1.682639e-24
1.6807522e-24
1.6797222e-24
1.6791635e-24
1.6788798e-24
1.6787589e-24
1.6787439e-24
1.6788238e-24
1.6790364e-24
1.6794797e-24
1.682616e-24
1.6807311e-24
1.6797034e-24
1.6791465e-24
1.678864e-24
1.6787439e-24
1.6787294e-24
1.6788099e-24
1.679023e-24
1.6794667e-24
1.6826811e-24
1.6808008e-24
1.6797775e-24
1.6792237e-24
1.678943e-24
1.6788238e-24
1.6788099e-24
1.6788908e-24
1.6791042e-24
1.6795481e-24
1.6828658e-24
1.6809975e-24
1.6799825e-24
1.679433e-24
1.6791546e-24
1.6790364e-24
1.679023e-24
1.6791042e-24
1.679318e-24
1.6797623e-24
1.6832557e-24
1.681422e-24
1.6804188e-24
1.6798738e-24
1.6795971e-24
1.6794797e-24
1.6794667e-24
1.6795481e-24
1.6797623e-24
1.6802079e-24
3.4801683e-24
3.4763758e-24
3.4742754e-24
3.473131e-24
3.4725462e-24
3.4722902e-24
3.472243e-24
3.4723742e-24
3.4727474e-24
3.4735599e-24
3.4763758e-24
3.4725982e-24
3.4705033e-24
3.4693614e-24
3.4687783e-24
3.4685243e-24
3.468481e-24
3.4686216e-24
3.4690195e-24
3.4699033e-24
3.4742754e-24
3.4705033e-24
3.4684118e-24
3.467272e-24
3.4666907e-24
3.4664391e-24
3.4664005e-24
3.4665504e-24
3.4669651e-24
3.4678732e-24
3.473131e-24
3.4693614e-24
3.467272e-24
3.4661339e-24
3.4655542e-24
3.4653048e-24
3.4652699e-24
3.4654259e-24
3.4658497e-24
3.466767e-24
3.4725462e-24
3.4687783e-24
3.4666907e-24
3.4655542e-24
3.4649759e-24
3.4647283e-24
3.4646958e-24
3.4648555e-24
3.4652837e-24
3.4662046e-24
3.4722902e-24
3.4685243e-24
3.4664391e-24
3.4653048e-24
3.4647283e-24
3.4644821e-24
3.4644513e-24
3.4646129e-24
3.4650433e-24
3.4659657e-24
3.472243e-24
3.468481e-24
3.4664005e-24
3.4652699e-24
3.4646958e-24
3.4644513e-24
3.4644217e-24
3.4645844e-24
3.4650159e-24
3.465939e-24
3.4723742e-24
3.4686216e-24
3.4665504e-24
3.4654259e-24
3.4648555e-24
3.4646129e-24
3.4645844e-24
3.4647479e-24
3.4651801e-24
3.4661037e-24
3.4727474e-24
3.4690195e-24
3.4669651e-24
3.4658497e-24
3.4652837e-24
3.4650433e-24
3.4650159e-24
3.4651801e-24
3.4656129e-24
3.4665374e-24
3.4735599e-24
3.4699033e-24
3.4678732e-24
3.466767e-24
3.4662046e-24
3.4659657e-24
3.465939e-24
3.4661037e-24
3.4665374e-24
3.4674647e-24
6.5658318e-24
6.558909e-24
6.5550416e-24
6.552928e-24
6.5518463e-24
6.5513719e-24
6.5512835e-24
6.5515233e-24
6.552206e-24
6.5537066e-24
6.558909e-24
6.5520132e-24
6.5481557e-24
6.5460467e-24
6.544968e-24
6.5444974e-24
6.5444164e-24
6.5446739e-24
6.5454028e-24
6.5470374e-24
6.5550416e-24
6.5481557e-24
6.5443045e-24
6.5421993e-24
6.5411239e-24
6.540658e-24
6.5405857e-24
6.5408604e-24
6.5416209e-24
6.5433011e-24
6.552928e-24
6.5460467e-24
6.5421993e-24
6.5400973e-24
6.5390248e-24
6.5385629e-24
6.5384976e-24
6.5387839e-24
6.5395615e-24
6.5412588e-24
6.5518463e-24
6.544968e-24
6.5411239e-24
6.5390248e-24
6.5379551e-24
6.5374964e-24
6.5374357e-24
6.5377288e-24
6.5385147e-24
6.5402189e-24
6.5513719e-24
6.5444974e-24
6.540658e-24
6.5385629e-24
6.5374964e-24
6.5370406e-24
6.5369828e-24
6.5372796e-24
6.5380696e-24
6.5397767e-24
6.5512835e-24
6.5444164e-24
6.5405857e-24
6.5384976e-24
6.5374357e-24
6.5369828e-24
6.5369273e-24
6.5372262e-24
6.5380182e-24
6.5397266e-24
6.5515233e-24
6.5446739e-24
6.5408604e-24
6.5387839e-24
6.5377288e-24
6.5372796e-24
6.5372262e-24
6.5375266e-24
6.5383198e-24
6.5400291e-24
6.552206e-24
6.5454028e-24
6.5416209e-24
6.5395615e-24
6.5385147e-24
6.5380696e-24
6.5380182e-24
6.5383198e-24
6.5391142e-24
6.5408252e-24
6.5537066e-24
6.5470374e-24
6.5433011e-24
6.5412588e-24
6.5402189e-24
6.5397767e-24
6.5397266e-24
6.5400291e-24
6.5408252e-24
6.5425413e-24
1.2171544e-23
1.2159131e-23
1.2152154e-23
1.214833e-23
1.2146369e-23
1.2145508e-23
1.2145345e-23
1.2145774e-23
1.2146993e-23
1.2149671e-23
1.2159131e-23
1.2146766e-23
1.2139807e-23
1.2135991e-23
1.2134035e-23
1.2133181e-23
1.2133032e-23
1.2133493e-23
1.2134798e-23
1.2137723e-23
1.2152154e-23
1.2139807e-23
1.2132859e-23
1.212905e-23
1.21271e-23
1.2126254e-23
1.2126122e-23
1.2126615e-23
1.2127977e-23
1.2130986e-23
1.214833e-23
1.2135991e-23
1.212905e-23
1.2125246e-23
1.2123302e-23
1.2122464e-23
1.2122344e-23
1.2122858e-23
1.2124252e-23
1.2127292e-23
1.2146369e-23
1.2134035e-23
1.21271e-23
1.2123302e-23
1.2121363e-23
1.2120531e-23
1.2120419e-23
1.2120946e-23
1.2122355e-23
1.2125408e-23
1.2145508e-23
1.2133181e-23
1.2126254e-23
1.2122464e-23
1.2120531e-23
1.2119703e-23
1.2119597e-23
1.2120131e-23
1.2121548e-23
1.2124606e-23
1.2145345e-23
1.2133032e-23
1.2126122e-23
1.2122344e-23
1.2120419e-23
1.2119597e-23
1.2119495e-23
1.2120033e-23
1.2121453e-23
1.2124514e-23
1.2145774e-23
1.2133493e-23
1.2126615e-23
1.2122858e-23
1.2120946e-23
1.2120131e-23
1.2120033e-23
1.2120573e-23
1.2121995e-23
1.2125058e-23
1.2146993e-23
1.2134798e-23
1.2127977e-23
1.2124252e-23
1.2122355e-23
1.2121548e-23
1.2121453e-23
1.2121995e-23
1.212342e-23
1.2126486e-23
1.2149671e-23
1.2137723e-23
1.2130986e-23
1.2127292e-23
1.2125408e-23
1.2124606e-23
1.2124514e-23
1.2125058e-23
1.2126486e-23
1.212956e-23
2.2612068e-23
2.2589772e-23
2.2577178e-23
2.2570254e-23
2.2566698e-23
2.2565134e-23
2.2564835e-23
2.2565601e-23
2.2567777e-23
2.2572526e-23
2.2589772e-23
2.2567562e-23
2.2554999e-23
2.254809e-23
2.2544544e-23
2.2542992e-23
2.2542718e-23
2.2543544e-23
2.2545877e-23
2.2551083e-23
2.2577178e-23
2.2554999e-23
2.2542456e-23
2.253556e-23
2.2532024e-23
2.2530488e-23
2.2530244e-23
2.2531129e-23
2.2533568e-23
2.253893e-23
2.2570254e-23
2.254809e-23
2.253556e-23
2.2528673e-23
2.2525148e-23
2.2523626e-23
2.2523405e-23
2.2524329e-23
2.2526826e-23
2.2532246e-23
2.2566698e-23
2.2544544e-23
2.2532024e-23
2.2525148e-23
2.2521631e-23
2.252012e-23
2.2519915e-23
2.2520861e-23
2.2523387e-23
2.2528831e-23
2.2565134e-23
2.2542992e-23
2.2530488e-23
2.2523626e-23
2.252012e-23
2.2518618e-23
2.2518423e-23
2.2519382e-23
2.2521921e-23
2.2527374e-23
2.2564835e-23
2.2542718e-23
2.2530244e-23
2.2523405e-23
2.2519915e-23
2.2518423e-23
2.2518235e-23
2.2519201e-23
2.2521748e-23
2.2527205e-23
2.2565601e-23
2.2543544e-23
2.2531129e-23
2.2524329e-23
2.2520861e-23
2.2519382e-23
2.2519201e-23
2.2520173e-23
2.2522723e-23
2.2528184e-23
2.2567777e-23
2.2545877e-23
2.2533568e-23
2.2526826e-23
2.2523387e-23
2.2521921e-23
2.2521748e-23
2.2522723e-23
2.2525277e-23
2.2530743e-23
2.2572526e-23
2.2551083e-23
2.253893e-23
2.2532246e-23
2.2528831e-23
2.2527374e-23
2.2527205e-23
2.2528184e-23
2.2530743e-23
2.2536225e-23
4.2347851e-23
4.2307497e-23
4.2284599e-23
4.2271976e-23
4.226548e-23
4.2262618e-23
4.2262065e-23
4.2263444e-23
4.2267349e-23
4.2275813e-23
4.2307497e-23
4.2267296e-23
4.2244454e-23
4.2231857e-23
4.2225379e-23
4.2222541e-23
4.2222034e-23
4.2223524e-23
4.2227721e-23
4.2237037e-23
4.2284599e-23
4.2244454e-23
4.2221649e-23
4.2209075e-23
4.2202617e-23
4.2199807e-23
4.2199355e-23
4.2200953e-23
4.220535e-23
4.2214954e-23
4.2271976e-23
4.2231857e-23
4.2209075e-23
4.2196518e-23
4.2190079e-23
4.2187295e-23
4.2186886e-23
4.2188557e-23
4.2193061e-23
4.2202774e-23
4.226548e-23
4.2225379e-23
4.2202617e-23
4.2190079e-23
4.2183656e-23
4.2180892e-23
4.2180512e-23
4.2182226e-23
4.2186782e-23
4.2196538e-23
4.2262618e-23
4.2222541e-23
4.2199807e-23
4.2187295e-23
4.2180892e-23
4.2178145e-23
4.2177784e-23
4.2179521e-23
4.2184103e-23
4.2193876e-23
4.2262065e-23
4.2222034e-23
4.2199355e-23
4.2186886e-23
4.2180512e-23
4.2177784e-23
4.2177437e-23
4.2179187e-23
4.2183781e-23
4.2193563e-23
4.2263444e-23
4.2223524e-23
4.2200953e-23
4.2188557e-23
4.2182226e-23
4.2179521e-23
4.2179187e-23
4.2180946e-23
4.2185548e-23
4.2195336e-23
4.2267349e-23
4.2227721e-23
4.220535e-23
4.2193061e-23
4.2186782e-23
4.2184103e-23
4.2183781e-23
4.2185548e-23
4.2190157e-23
4.2199954e-23
4.2275813e-23
4.2237037e-23
4.2214954e-23
4.2202774e-23
4.2196538e-23
4.2193876e-23
4.2193563e-23
4.2195336e-23
4.2199954e-23
4.220978e-23
8.0093874e-23
8.0020143e-23
7.9978126e-23
7.9954897e-23
7.9942923e-23
7.993764e-23
7.9936607e-23
7.9939111e-23
7.9946185e-23
7.9961396e-23
8.0020143e-23
7.994669e-23
7.9904775e-23
7.9881594e-23
7.9869653e-23
7.9864412e-23
7.9863466e-23
7.9866179e-23
7.9873801e-23
7.9890613e-23
7.9978126e-23
7.9904775e-23
7.9862925e-23
7.9839786e-23
7.9827881e-23
7.9822695e-23
7.9821851e-23
7.9824767e-23
7.9832763e-23
7.9850116e-23
7.9954897e-23
7.9881594e-23
7.9839786e-23
7.9816681e-23
7.980481e-23
7.9799671e-23
7.9798908e-23
7.9801961e-23
7.9810158e-23
7.9827714e-23
7.9942923e-23
7.9869653e-23
7.9827881e-23
7.980481e-23
7.9792971e-23
7.9787869e-23
7.9787161e-23
7.9790292e-23
7.9798589e-23
7.9816226e-23
7.993764e-23
7.9864412e-23
7.9822695e-23
7.9799671e-23
7.9787869e-23
7.97828e-23
7.9782127e-23
7.9785301e-23
7.9793645e-23
7.9811316e-23
7.9936607e-23
7.9863466e-23
7.9821851e-23
7.9798908e-23
7.9787161e-23
7.9782127e-23
7.978148e-23
7.9784679e-23
7.9793046e-23
7.9810733e-23
7.9939111e-23
7.9866179e-23
7.9824767e-23
7.9801961e-23
7.9790292e-23
7.9785301e-23
7.9784679e-23
7.9787896e-23
7.9796276e-23
7.9813974e-23
7.9946185e-23
7.9873801e-23
7.9832763e-23
7.9810158e-23
7.9798589e-23
7.9793645e-23
7.9793046e-23
7.9796276e-23
7.980467e-23
7.9822384e-23
7.9961396e-23
7.9890613e-23
7.9850116e-23
7.9827714e-23
7.9816226e-23
7.9811316e-23
7.9810733e-23
7.9813974e-23
7.9822384e-23
7.9840149e-23
1.5307051e-22
1.5293445e-22
1.5285658e-22
1.5281341e-22
1.5279112e-22
1.5278127e-22
1.5277933e-22
1.5278392e-22
1.5279686e-22
1.5282446e-22
1.5293445e-22
1.5279889e-22
1.5272121e-22
1.5267813e-22
1.526559e-22
1.5264613e-22
1.5264435e-22
1.5264934e-22
1.5266332e-22
1.5269396e-22
1.5285658e-22
1.5272121e-22
1.5264365e-22
1.5260065e-22
1.5257848e-22
1.5256882e-22
1.5256723e-22
1.525726e-22
1.5258729e-22
1.5261896e-22
1.5281341e-22
1.5267813e-22
1.5260065e-22
1.5255771e-22
1.5253561e-22
1.5252603e-22
1.525246e-22
1.5253023e-22
1.525453e-22
1.5257735e-22
1.5279112e-22
1.526559e-22
1.5257848e-22
1.5253561e-22
1.5251357e-22
1.5250406e-22
1.5250273e-22
1.5250851e-22
1.5252377e-22
1.5255597e-22
1.5278127e-22
1.5264613e-22
1.5256882e-22
1.5252603e-22
1.5250406e-22
1.5249462e-22
1.5249335e-22
1.5249921e-22
1.5251456e-22
1.5254683e-22
1.5277933e-22
1.5264435e-22
1.5256723e-22
1.525246e-22
1.5250273e-22
1.5249335e-22
1.5249213e-22
1.5249804e-22
1.5251343e-22
1.5254573e-22
1.5278392e-22
1.5264934e-22
1.525726e-22
1.5253023e-22
1.5250851e-22
1.5249921e-22
1.5249804e-22
1.5250398e-22
1.525194e-22
1.5255172e-22
1.5279686e-22
1.5266332e-22
1.5258729e-22
1.525453e-22
1.5252377e-22
1.5251456e-22
1.5251343e-22
1.525194e-22
1.5253484e-22
1.5256719e-22
1.5282446e-22
1.5269396e-22
1.5261896e-22
1.5257735e-22
1.5255597e-22
1.5254683e-22
1.5254573e-22
1.5255172e-22
1.5256719e-22
1.5259963e-22
2.9566308e-22
2.9540942e-22
2.9526364e-22
2.9518261e-22
2.9514069e-22
2.9512214e-22
2.9511844e-22
2.9512696e-22
2.9515088e-22
2.9520148e-22
2.9540942e-22
2.9515669e-22
2.9501125e-22
2.9493039e-22
2.9488858e-22
2.9487019e-22
2.948668e-22
2.9487607e-22
2.9490199e-22
2.949584e-22
2.9526364e-22
2.9501125e-22
2.9486604e-22
2.9478532e-22
2.9474365e-22
2.9472545e-22
2.9472243e-22
2.9473243e-22
2.9475971e-22
2.9481809e-22
2.9518261e-22
2.9493039e-22
2.9478532e-22
2.9470472e-22
2.9466317e-22
2.9464513e-22
2.9464241e-22
2.9465291e-22
2.9468091e-22
2.9474003e-22
2.9514069e-22
2.9488858e-22
2.9474365e-22
2.9466317e-22
2.9462173e-22
2.9460383e-22
2.946013e-22
2.9461208e-22
2.9464044e-22
2.9469986e-22
2.9512214e-22
2.9487019e-22
2.9472545e-22
2.9464513e-22
2.9460383e-22
2.9458605e-22
2.9458364e-22
2.9459459e-22
2.9462311e-22
2.9468265e-22
2.9511844e-22
2.948668e-22
2.9472243e-22
2.9464241e-22
2.946013e-22
2.9458364e-22
2.9458133e-22
2.9459236e-22
2.9462098e-22
2.9468057e-22
2.9512696e-22
2.9487607e-22
2.9473243e-22
2.9465291e-22
2.9461208e-22
2.9459459e-22
2.9459236e-22
2.9460346e-22
2.9463212e-22
2.9469175e-22
2.9515088e-22
2.9490199e-22
2.9475971e-22
2.9468091e-22
2.9464044e-22
2.9462311e-22
2.9462098e-22
2.9463212e-22
2.9466082e-22
2.9472051e-22
2.9520148e-22
2.949584e-22
2.9481809e-22
2.9474003e-22
2.9469986e-22
2.9468265e-22
2.9468057e-22
2.9469175e-22
2.9472051e-22
2.9478037e-22
5.7724147e-22
5.7676367e-22
5.7648796e-22
5.763343e-22
5.7625467e-22
5.7621939e-22
5.7621228e-22
5.7622824e-22
5.7627293e-22
5.7636663e-22
5.7676367e-22
5.7628763e-22
5.7601256e-22
5.758592e-22
5.7577979e-22
5.757448e-22
5.7573829e-22
5.7575571e-22
5.7580426e-22
5.7590924e-22
5.7648796e-22
5.7601256e-22
5.7573791e-22
5.7558483e-22
5.7550567e-22
5.7547105e-22
5.7546525e-22
5.7548409e-22
5.7553525e-22
5.7564404e-22
5.763343e-22
5.758592e-22
5.7558483e-22
5.7543197e-22
5.7535304e-22
5.7531875e-22
5.7531352e-22
5.7533331e-22
5.7538588e-22
5.7549609e-22
5.7625467e-22
5.7577979e-22
5.7550567e-22
5.7535304e-22
5.7527432e-22
5.7524029e-22
5.7523544e-22
5.7525578e-22
5.7530904e-22
5.7541983e-22
5.7621939e-22
5.757448e-22
5.7547105e-22
5.7531875e-22
5.7524029e-22
5.7520649e-22
5.7520188e-22
5.7522252e-22
5.7527611e-22
5.7538713e-22
5.7621228e-22
5.7573829e-22
5.7546525e-22
5.7531352e-22
5.7523544e-22
5.7520188e-22
5.7519745e-22
5.7521827e-22
5.7527202e-22
5.7538315e-22
5.7622824e-22
5.7575571e-22
5.7548409e-22
5.7533331e-22
5.7525578e-22
5.7522252e-22
5.7521827e-22
5.7523919e-22
5.7529304e-22
5.7540424e-22
5.7627293e-22
5.7580426e-22
5.7553525e-22
5.7538588e-22
5.7530904e-22
5.7527611e-22
5.7527202e-22
5.7529304e-22
5.7534697e-22
5.7545828e-22
5.7636663e-22
5.7590924e-22
5.7564404e-22
5.7549609e-22
5.7541983e-22
5.7538713e-22
5.7538315e-22
5.7540424e-22
5.7545828e-22
5.7556989e-22
1.1391969e-21
1.1382876e-21
1.1377608e-21
1.1374664e-21
1.1373136e-21
1.1372458e-21
1.137232e-21
1.1372622e-21
1.1373466e-21
1.137522e-21
1.1382876e-21
1.1373817e-21
1.136856e-21
1.1365622e-21
1.1364098e-21
1.1363426e-21
1.13633e-21
1.136363e-21
1.1364549e-21
1.1366524e-21
1.1377608e-21
1.136856e-21
1.1363312e-21
1.1360379e-21
1.135886e-21
1.1358195e-21
1.1358083e-21
1.1358441e-21
1.1359411e-21
1.136146e-21
1.1374664e-21
1.1365622e-21
1.1360379e-21
1.135745e-21
1.1355936e-21
1.1355277e-21
1.1355176e-21
1.1355553e-21
1.135655e-21
1.1358627e-21
1.1373136e-21
1.1364098e-21
1.135886e-21
1.1355936e-21
1.1354425e-21
1.1353772e-21
1.1353678e-21
1.1354065e-21
1.1355077e-21
1.1357164e-21
1.1372458e-21
1.1363426e-21
1.1358195e-21
1.1355277e-21
1.1353772e-21
1.1353122e-21
1.1353033e-21
1.1353427e-21
1.1354444e-21
1.1356537e-21
1.137232e-21
1.13633e-21
1.1358083e-21
1.1355176e-21
1.1353678e-21
1.1353033e-21
1.1352948e-21
1.1353345e-21
1.1354365e-21
1.135646e-21
1.1372622e-21
1.136363e-21
1.1358441e-21
1.1355553e-21
1.1354065e-21
1.1353427e-21
1.1353345e-21
1.1353744e-21
1.1354766e-21
1.1356862e-21
1.1373466e-21
1.1364549e-21
1.1359411e-21
1.135655e-21
1.1355077e-21
1.1354444e-21
1.1354365e-21
1.1354766e-21
1.135579e-21
1.1357888e-21
1.137522e-21
1.1366524e-21
1.136146e-21
1.1358627e-21
1.1357164e-21
1.1356537e-21
1.135646e-21
1.1356862e-21
1.1357888e-21
1.1359992e-21
2.2726904e-21
2.2709419e-21
2.2699248e-21
2.269355e-21
2.2690587e-21
2.2689271e-21
2.2689001e-21
2.2689579e-21
2.2691189e-21
2.2694505e-21
2.2709419e-21
2.2691997e-21
2.2681849e-21
2.2676162e-21
2.2673207e-21
2.2671902e-21
2.2671656e-21
2.267229e-21
2.2674049e-21
2.2677801e-21
2.2699248e-21
2.2681849e-21
2.2671717e-21
2.2666039e-21
2.2663094e-21
2.2661803e-21
2.2661584e-21
2.2662273e-21
2.2664132e-21
2.2668032e-21
2.269355e-21
2.2676162e-21
2.2666039e-21
2.2660371e-21
2.2657434e-21
2.2656155e-21
2.2655958e-21
2.2656684e-21
2.2658597e-21
2.2662552e-21
2.2690587e-21
2.2673207e-21
2.2663094e-21
2.2657434e-21
2.2654506e-21
2.2653237e-21
2.2653054e-21
2.2653801e-21
2.2655741e-21
2.2659718e-21
2.2689271e-21
2.2671902e-21
2.2661803e-21
2.2656155e-21
2.2653237e-21
2.2651977e-21
2.2651803e-21
2.2652562e-21
2.2654515e-21
2.2658501e-21
2.2689001e-21
2.2671656e-21
2.2661584e-21
2.2655958e-21
2.2653054e-21
2.2651803e-21
2.2651637e-21
2.2652402e-21
2.2654361e-21
2.2658351e-21
2.2689579e-21
2.267229e-21
2.2662273e-21
2.2656684e-21
2.2653801e-21
2.2652562e-21
2.2652402e-21
2.2653171e-21
2.2655134e-21
2.2659127e-21
2.2691189e-21
2.2674049e-21
2.2664132e-21
2.2658597e-21
2.2655741e-21
2.2654515e-21
2.2654361e-21
2.2655134e-21
2.26571e-21
2.2661096e-21
2.2694505e-21
2.2677801e-21
2.2668032e-21
2.2662552e-21
2.2659718e-21
2.2658501e-21
2.2658351e-21
2.2659127e-21
2.2661096e-21
2.2665103e-21
4.5834953e-21
4.5800982e-21
4.5781142e-21
4.5769998e-21
4.5764195e-21
4.5761613e-21
4.576108e-21
4.5762199e-21
4.5765303e-21
4.5771642e-21
4.5800982e-21
4.5767132e-21
4.5747336e-21
4.5736214e-21
4.5730426e-21
4.5727867e-21
4.572738e-21
4.5728611e-21
4.5732011e-21
4.5739221e-21
4.5781142e-21
4.5747336e-21
4.572757e-21
4.5716468e-21
4.5710698e-21
4.5708167e-21
4.5707735e-21
4.5709074e-21
4.5712676e-21
4.572018e-21
4.5769998e-21
4.5736214e-21
4.5716468e-21
4.5705381e-21
4.5699629e-21
4.5697123e-21
4.5696734e-21
4.5698146e-21
4.5701856e-21
4.570947e-21
4.5764195e-21
4.5730426e-21
4.5710698e-21
4.5699629e-21
4.5693894e-21
4.5691407e-21
4.5691046e-21
4.5692501e-21
4.5696264e-21
4.5703922e-21
4.5761613e-21
4.5727867e-21
4.5708167e-21
4.5697123e-21
4.5691407e-21
4.5688937e-21
4.5688595e-21
4.5690073e-21
4.5693862e-21
4.5701537e-21
4.576108e-21
4.572738e-21
4.5707735e-21
4.5696734e-21
4.5691046e-21
4.5688595e-21
4.5688268e-21
4.5689759e-21
4.5693559e-21
4.5701243e-21
4.5762199e-21
4.5728611e-21
4.5709074e-21
4.5698146e-21
4.5692501e-21
4.5690073e-21
4.5689759e-21
4.5691259e-21
4.5695066e-21
4.5702755e-21
4.5765303e-21
4.5732011e-21
4.5712676e-21
4.5701856e-21
4.5696264e-21
4.5693862e-21
4.5693559e-21
4.5695066e-21
4.569888e-21
4.5706576e-21
4.5771642e-21
4.5739221e-21
4.572018e-21
4.570947e-21
4.5703922e-21
4.5701537e-21
4.5701243e-21
4.5702755e-21
4.5706576e-21
4.5714292e-21
9.3449981e-21
9.3383289e-21
9.3344187e-21
9.3322169e-21
9.3310684e-21
9.330557e-21
9.3304506e-21
9.3306694e-21
9.3312744e-21
9.3324988e-21
9.3383289e-21
9.3316832e-21
9.3277817e-21
9.3255841e-21
9.3244387e-21
9.3239317e-21
9.3238346e-21
9.324076e-21
9.3247408e-21
9.326141e-21
9.3344187e-21
9.3277817e-21
9.323886e-21
9.3216923e-21
9.3205506e-21
9.3200491e-21
9.3199631e-21
9.3202263e-21
9.3209317e-21
9.3223911e-21
9.3322169e-21
9.3255841e-21
9.3216923e-21
9.3195018e-21
9.3183635e-21
9.3178671e-21
9.3177897e-21
9.3180677e-21
9.3187948e-21
9.3202763e-21
9.3310684e-21
9.3244387e-21
9.3205506e-21
9.3183635e-21
9.3172285e-21
9.3167361e-21
9.3166644e-21
9.3169509e-21
9.3176887e-21
9.3191791e-21
9.330557e-21
9.3239317e-21
9.3200491e-21
9.3178671e-21
9.3167361e-21
9.3162471e-21
9.3161792e-21
9.3164703e-21
9.3172131e-21
9.3187072e-21
9.3304506e-21
9.3238346e-21
9.3199631e-21
9.3177897e-21
9.3166644e-21
9.3161792e-21
9.3161141e-21
9.3164079e-21
9.3171532e-21
9.3186489e-21
9.3306694e-21
9.324076e-21
9.3202263e-21
9.3180677e-21
9.3169509e-21
9.3164703e-21
9.3164079e-21
9.3167034e-21
9.3174501e-21
9.3189468e-21
9.3312744e-21
9.3247408e-21
9.3209317e-21
9.3187948e-21
9.3176887e-21
9.3172131e-21
9.3171532e-21
9.3174501e-21
9.3181981e-21
9.3196962e-21
9.3324988e-21
9.326141e-21
9.3223911e-21
9.3202763e-21
9.3191791e-21
9.3187072e-21
9.3186489e-21
9.3189468e-21
9.3196962e-21
9.3211982e-21
1.9261686e-20
1.9248457e-20
1.924067e-20
1.9236275e-20
1.9233979e-20
1.9232955e-20
1.9232741e-20
1.9233173e-20
1.9234365e-20
1.9236756e-20
1.9248457e-20
1.9235274e-20
1.9227504e-20
1.9223117e-20
1.9220827e-20
1.9219812e-20
1.9219617e-20
1.9220096e-20
1.9221409e-20
1.9224158e-20
1.924067e-20
1.9227504e-20
1.9219747e-20
1.9215367e-20
1.9213085e-20
1.9212081e-20
1.9211908e-20
1.9212431e-20
1.9213828e-20
1.9216697e-20
1.9236275e-20
1.9223117e-20
1.9215367e-20
1.9210994e-20
1.9208719e-20
1.9207725e-20
1.920757e-20
1.9208123e-20
1.9209564e-20
1.9212478e-20
1.9233979e-20
1.9220827e-20
1.9213085e-20
1.9208719e-20
1.920645e-20
1.9205464e-20
1.9205321e-20
1.9205891e-20
1.9207353e-20
1.9210286e-20
1.9232955e-20
1.9219812e-20
1.9212081e-20
1.9207725e-20
1.9205464e-20
1.9204486e-20
1.920435e-20
1.920493e-20
1.9206402e-20
1.9209342e-20
1.9232741e-20
1.9219617e-20
1.9211908e-20
1.920757e-20
1.9205321e-20
1.920435e-20
1.920422e-20
1.9204805e-20
1.9206282e-20
1.9209226e-20
1.9233173e-20
1.9220096e-20
1.9212431e-20
1.9208123e-20
1.9205891e-20
1.920493e-20
1.9204805e-20
1.9205394e-20
1.9206874e-20
1.9209819e-20
1.9234365e-20
1.9221409e-20
1.9213828e-20
1.9209564e-20
1.9207353e-20
1.9206402e-20
1.9206282e-20
1.9206874e-20
1.9208357e-20
1.9211305e-20
1.9236756e-20
1.9224158e-20
1.9216697e-20
1.9212478e-20
1.9210286e-20
1.9209342e-20
1.9209226e-20
1.9209819e-20
1.9211305e-20
1.921426e-20
4.013696e-20
4.0110444e-20
4.0094779e-20
4.0085914e-20
4.0081276e-20
4.0079206e-20
4.007877e-20
4.0079635e-20
4.0082008e-20
4.0086724e-20
4.0110444e-20
4.008402e-20
4.0068389e-20
4.0059541e-20
4.0054915e-20
4.0052863e-20
4.0052466e-20
4.0053426e-20
4.005605e-20
4.0061504e-20
4.0094779e-20
4.0068389e-20
4.005278e-20
4.0043948e-20
4.0039337e-20
4.0037309e-20
4.0036958e-20
4.0038008e-20
4.0040802e-20
4.0046505e-20
4.0085914e-20
4.0059541e-20
4.0043948e-20
4.0035129e-20
4.0030532e-20
4.0028524e-20
4.002821e-20
4.0029322e-20
4.0032207e-20
4.0038002e-20
4.0081276e-20
4.0054915e-20
4.0039337e-20
4.0030532e-20
4.0025949e-20
4.0023958e-20
4.0023667e-20
4.0024815e-20
4.0027744e-20
4.0033577e-20
4.0079206e-20
4.0052863e-20
4.0037309e-20
4.0028524e-20
4.0023958e-20
4.0021981e-20
4.0021706e-20
4.0022873e-20
4.0025824e-20
4.0031672e-20
4.007877e-20
4.0052466e-20
4.0036958e-20
4.002821e-20
4.0023667e-20
4.0021706e-20
4.0021443e-20
4.0022621e-20
4.0025582e-20
4.0031437e-20
4.0079635e-20
4.0053426e-20
4.0038008e-20
4.0029322e-20
4.0024815e-20
4.0022873e-20
4.0022621e-20
4.0023806e-20
4.0026773e-20
4.0032632e-20
4.0082008e-20
4.005605e-20
4.0040802e-20
4.0032207e-20
4.0027744e-20
4.0025824e-20
4.0025582e-20
4.0026773e-20
4.0029745e-20
4.0035609e-20
4.0086724e-20
4.0061504e-20
4.0046505e-20
4.0038002e-20
4.0033577e-20
4.0031672e-20
4.0031437e-20
4.0032632e-20
4.0035609e-20
4.0041488e-20
8.4552723e-20
8.4499024e-20
8.4467181e-20
8.4449119e-20
8.4439654e-20
8.4435426e-20
8.4434532e-20
8.4436279e-20
8.4441055e-20
8.4450459e-20
8.4499024e-20
8.4445511e-20
8.4413737e-20
8.4395708e-20
8.4386268e-20
8.4382077e-20
8.4381264e-20
8.4383207e-20
8.4388505e-20
8.4399446e-20
8.4467181e-20
8.4413737e-20
8.4382008e-20
8.4364011e-20
8.4354602e-20
8.435046e-20
8.4349741e-20
8.4351875e-20
8.4357526e-20
8.4368983e-20
8.4449119e-20
8.4395708e-20
8.4364011e-20
8.4346041e-20
8.4336661e-20
8.4332562e-20
8.4331918e-20
8.433418e-20
8.434002e-20
8.4351671e-20
8.4439654e-20
8.4386268e-20
8.4354602e-20
8.4336661e-20
8.432731e-20
8.4323244e-20
8.4322651e-20
8.4324986e-20
8.4330919e-20
8.4342647e-20
8.4435426e-20
8.4382077e-20
8.435046e-20
8.4332562e-20
8.4323244e-20
8.4319209e-20
8.4318648e-20
8.4321023e-20
8.4327e-20
8.433876e-20
8.4434532e-20
8.4381264e-20
8.4349741e-20
8.4331918e-20
8.4322651e-20
8.4318648e-20
8.4318112e-20
8.432051e-20
8.4326508e-20
8.4338282e-20
8.4436279e-20
8.4383207e-20
8.4351875e-20
8.433418e-20
8.4324986e-20
8.4321023e-20
8.432051e-20
8.4322923e-20
8.4328933e-20
8.4340716e-20
8.4441055e-20
8.4388505e-20
8.4357526e-20
8.434002e-20
8.4330919e-20
8.4327e-20
8.4326508e-20
8.4328933e-20
8.4334953e-20
8.4346747e-20
8.4450459e-20
8.4399446e-20
8.4368983e-20
8.4351671e-20
8.4342647e-20
8.433876e-20
8.4338282e-20
8.4340716e-20
8.4346747e-20
8.4358569e-20
1.8006805e-19
1.7995818e-19
1.7989278e-19
1.798556e-19
1.7983609e-19
1.7982736e-19
1.7982551e-19
1.7982908e-19
1.798388e-19
1.7985775e-19
1.7995818e-19
1.7984868e-19
1.7978343e-19
1.7974631e-19
1.7972685e-19
1.7971821e-19
1.7971652e-19
1.797205e-19
1.7973132e-19
1.797535e-19
1.7989278e-19
1.7978343e-19
1.7971827e-19
1.7968122e-19
1.7966182e-19
1.7965328e-19
1.7965179e-19
1.7965617e-19
1.7966773e-19
1.79691e-19
1.798556e-19
1.7974631e-19
1.7968122e-19
1.7964423e-19
1.7962489e-19
1.7961644e-19
1.7961511e-19
1.7961976e-19
1.7963171e-19
1.7965538e-19
1.7983609e-19
1.7972685e-19
1.7966182e-19
1.7962489e-19
1.7960561e-19
1.7959723e-19
1.7959601e-19
1.7960081e-19
1.7961296e-19
1.796368e-19
1.7982736e-19
1.7971821e-19
1.7965328e-19
1.7961644e-19
1.7959723e-19
1.7958891e-19
1.7958776e-19
1.7959264e-19
1.7960488e-19
1.7962879e-19
1.7982551e-19
1.7971652e-19
1.7965179e-19
1.7961511e-19
1.7959601e-19
1.7958776e-19
1.7958665e-19
1.7959159e-19
1.7960387e-19
1.7962781e-19
1.7982908e-19
1.797205e-19
1.7965617e-19
1.7961976e-19
1.7960081e-19
1.7959264e-19
1.7959159e-19
1.7959656e-19
1.7960886e-19
1.7963282e-19
1.798388e-19
1.7973132e-19
1.7966773e-19
1.7963171e-19
1.7961296e-19
1.7960488e-19
1.7960387e-19
1.7960886e-19
1.7962119e-19
1.7964517e-19
1.7985775e-19
1.797535e-19
1.79691e-19
1.7965538e-19
1.796368e-19
1.7962879e-19
1.7962781e-19
1.7963282e-19
1.7964517e-19
1.796692e-19
3.8766757e-19
3.8744044e-19
3.8730478e-19
3.8722746e-19
3.8718683e-19
3.8716864e-19
3.8716477e-19
3.8717214e-19
3.8719212e-19
3.8723072e-19
3.8744044e-19
3.8721409e-19
3.8707871e-19
3.8700154e-19
3.8696101e-19
3.8694299e-19
3.8693947e-19
3.8694772e-19
3.8697003e-19
3.8701549e-19
3.8730478e-19
3.8707871e-19
3.8694352e-19
3.8686648e-19
3.8682609e-19
3.8680829e-19
3.8680519e-19
3.8681428e-19
3.8683816e-19
3.8688594e-19
3.8722746e-19
3.8700154e-19
3.8686648e-19
3.8678956e-19
3.867493e-19
3.8673168e-19
3.8672892e-19
3.8673858e-19
3.867633e-19
3.8681194e-19
3.8718683e-19
3.8696101e-19
3.8682609e-19
3.867493e-19
3.8670916e-19
3.866917e-19
3.8668916e-19
3.8669914e-19
3.8672428e-19
3.8677326e-19
3.8716864e-19
3.8694299e-19
3.8680829e-19
3.8673168e-19
3.866917e-19
3.8667437e-19
3.8667197e-19
3.8668214e-19
3.8670746e-19
3.8675659e-19
3.8716477e-19
3.8693947e-19
3.8680519e-19
3.8672892e-19
3.8668916e-19
3.8667197e-19
3.8666968e-19
3.8667995e-19
3.8670537e-19
3.8675456e-19
3.8717214e-19
3.8694772e-19
3.8681428e-19
3.8673858e-19
3.8669914e-19
3.8668214e-19
3.8667995e-19
3.8669028e-19
3.8671576e-19
3.8676498e-19
3.8719212e-19
3.8697003e-19
3.8683816e-19
3.867633e-19
3.8672428e-19
3.8670746e-19
3.8670537e-19
3.8671576e-19
3.8674128e-19
3.8679055e-19
3.8723072e-19
3.8701549e-19
3.8688594e-19
3.8681194e-19
3.8677326e-19
3.8675659e-19
3.8675456e-19
3.8676498e-19
3.8679055e-19
3.8683993e-19
8.4368119e-19
8.4320688e-19
8.4292256e-19
8.4276016e-19
8.4267469e-19
8.4263641e-19
8.4262822e-19
8.4264361e-19
8.4268512e-19
8.427646e-19
8.4320688e-19
8.4273418e-19
8.4245045e-19
8.4228833e-19
8.4220309e-19
8.4216516e-19
8.4215775e-19
8.4217501e-19
8.4222152e-19
8.4231572e-19
8.4292256e-19
8.4245045e-19
8.4216712e-19
8.4200529e-19
8.4192033e-19
8.4188286e-19
8.4187635e-19
8.4189542e-19
8.4194531e-19
8.4204445e-19
8.4276016e-19
8.4228833e-19
8.4200529e-19
8.4184371e-19
8.4175902e-19
8.4172196e-19
8.4171616e-19
8.4173645e-19
8.4178814e-19
8.4188913e-19
8.4267469e-19
8.4220309e-19
8.4192033e-19
8.4175902e-19
8.416746e-19
8.4163786e-19
8.4163254e-19
8.4165354e-19
8.4170611e-19
8.4180783e-19
8.4263641e-19
8.4216516e-19
8.4188286e-19
8.4172196e-19
8.4163786e-19
8.4160141e-19
8.4159639e-19
8.4161777e-19
8.4167076e-19
8.4177279e-19
8.4262822e-19
8.4215775e-19
8.4187635e-19
8.4171616e-19
8.4163254e-19
8.4159639e-19
8.4159162e-19
8.4161321e-19
8.416664e-19
8.4176856e-19
8.4264361e-19
8.4217501e-19
8.4189542e-19
8.4173645e-19
8.4165354e-19
8.4161777e-19
8.4161321e-19
8.4163494e-19
8.4168824e-19
8.4179049e-19
8.4268512e-19
8.4222152e-19
8.4194531e-19
8.4178814e-19
8.4170611e-19
8.4167076e-19
8.416664e-19
8.4168824e-19
8.4174164e-19
8.4184398e-19
8.427646e-19
8.4231572e-19
8.4204445e-19
8.4188913e-19
8.4180783e-19
8.4177279e-19
8.4176856e-19