/*--------------------------------*- C++ -*----------------------------------*\
| =========                 |                                                 |
| \\      /  F ield         | OpenFOAM: The Open Source CFD Toolbox           |
|  \\    /   O peration     | Version:  dev                                   |
|   \\  /    A nd           | Web:      www.OpenFOAM.org                      |
|    \\/     M anipulation  |                                                 |
\*---------------------------------------------------------------------------*/
FoamFile
{
    version     2.0;
    format      ascii;
    class       volScalarField;
    location    "3";
    object      A;
}
// * * * * * * * * * * * * * * * * * * * * * * * * * * * * * * * * * * * * * //

dimensions      [0 0 0 0 1 0 0];

internalField   nonuniform List<scalar> 
10000
(
0.99915717
0.99915891
0.99916065
0.99916225
0.99916359
0.99916462
0.99916531
0.99916573
0.99916598
0.99916636
0.99915891
0.99916106
0.99916312
0.99916494
0.99916643
0.99916755
0.99916827
0.99916865
0.99916875
0.99916884
0.99916065
0.99916312
0.99916551
0.9991676
0.99916927
0.99917048
0.9991712
0.99917145
0.99917131
0.9991711
0.99916225
0.99916494
0.9991676
0.99916991
0.99917174
0.999173
0.99917369
0.99917381
0.99917345
0.99917301
0.99916359
0.99916643
0.99916927
0.99917174
0.99917366
0.99917496
0.9991756
0.99917562
0.99917509
0.9991745
0.99916462
0.99916755
0.99917048
0.999173
0.99917496
0.99917625
0.99917687
0.99917682
0.9991762
0.99917552
0.99916531
0.99916827
0.9991712
0.99917369
0.9991756
0.99917687
0.99917747
0.9991774
0.99917677
0.99917606
0.99916573
0.99916865
0.99917145
0.99917381
0.99917562
0.99917682
0.9991774
0.99917738
0.99917682
0.99917615
0.99916598
0.99916875
0.99917131
0.99917345
0.99917509
0.9991762
0.99917677
0.99917682
0.99917641
0.99917587
0.99916636
0.99916884
0.9991711
0.99917301
0.9991745
0.99917552
0.99917606
0.99917615
0.99917587
0.9991755
0.99744794
0.99745297
0.9974582
0.99746303
0.99746709
0.99747019
0.99747228
0.99747353
0.99747422
0.99747514
0.99745297
0.99745927
0.99746546
0.99747097
0.99747549
0.99747885
0.99748105
0.99748217
0.9974824
0.99748242
0.9974582
0.99746546
0.99747267
0.997479
0.99748407
0.99748771
0.99748989
0.99749065
0.99749014
0.99748922
0.99746303
0.99747097
0.997479
0.99748601
0.99749154
0.99749537
0.99749745
0.99749779
0.99749661
0.99749501
0.99746709
0.99747549
0.99748407
0.99749154
0.99749736
0.99750129
0.99750324
0.99750325
0.99750156
0.9974995
0.99747019
0.99747885
0.99748771
0.99749537
0.99750129
0.99750521
0.99750707
0.99750688
0.99750492
0.99750258
0.99747228
0.99748105
0.99748989
0.99749745
0.99750324
0.99750707
0.99750887
0.99750866
0.99750664
0.99750421
0.99747353
0.99748217
0.99749065
0.99749779
0.99750325
0.99750688
0.99750866
0.99750857
0.99750678
0.99750446
0.99747422
0.9974824
0.99749014
0.99749661
0.99750156
0.99750492
0.99750664
0.99750678
0.99750546
0.99750356
0.99747514
0.99748242
0.99748922
0.99749501
0.9974995
0.99750258
0.99750421
0.99750446
0.99750356
0.99750221
0.9956956
0.99570351
0.99571219
0.99572028
0.9957271
0.99573229
0.99573578
0.9957378
0.99573875
0.99573972
0.99570351
0.99571351
0.99572383
0.9957331
0.9957407
0.99574635
0.99575001
0.99575182
0.99575197
0.99575137
0.99571219
0.99572383
0.99573589
0.99574654
0.99575508
0.99576121
0.99576484
0.99576603
0.9957649
0.9957627
0.99572028
0.9957331
0.99574654
0.99575836
0.99576768
0.99577414
0.99577759
0.99577808
0.99577578
0.99577239
0.9957271
0.9957407
0.99575508
0.99576768
0.9957775
0.99578411
0.99578736
0.99578727
0.99578412
0.99577995
0.99573229
0.99574635
0.99576121
0.99577414
0.99578411
0.99579072
0.99579381
0.99579339
0.99578976
0.99578511
0.99573578
0.99575001
0.99576484
0.99577759
0.99578736
0.99579381
0.9957968
0.99579633
0.99579263
0.99578781
0.9957378
0.99575182
0.99576603
0.99577808
0.99578727
0.99579339
0.99579633
0.9957961
0.99579279
0.99578818
0.99573875
0.99575197
0.9957649
0.99577578
0.99578412
0.99578976
0.99579263
0.99579279
0.99579029
0.99578644
0.99573972
0.99575137
0.9957627
0.99577239
0.99577995
0.99578511
0.99578781
0.99578818
0.99578644
0.99578365
0.99389964
0.99390998
0.99392197
0.99393333
0.99394291
0.99395019
0.99395503
0.99395771
0.99395863
0.99395912
0.99390998
0.99392316
0.99393749
0.99395053
0.99396125
0.9939692
0.99397428
0.99397664
0.99397635
0.99397457
0.99392197
0.99393749
0.99395431
0.99396934
0.9939814
0.99399004
0.99399507
0.99399653
0.99399439
0.99399029
0.99393333
0.99395053
0.99396934
0.99398604
0.99399922
0.99400832
0.99401309
0.99401353
0.99400971
0.99400391
0.99394291
0.99396124
0.9939814
0.99399922
0.99401311
0.99402243
0.9940269
0.99402653
0.99402148
0.99401453
0.99395019
0.9939692
0.99399004
0.99400832
0.99402243
0.99403175
0.99403599
0.99403514
0.99402941
0.99402178
0.99395503
0.99397428
0.99399507
0.99401309
0.9940269
0.99403599
0.9940401
0.9940392
0.99403338
0.99402552
0.99395771
0.99397664
0.99399653
0.99401353
0.99402653
0.99403514
0.9940392
0.99403865
0.9940334
0.99402587
0.99395863
0.99397635
0.99399439
0.99400971
0.99402148
0.99402941
0.99403338
0.9940334
0.99402937
0.99402302
0.99395912
0.99397457
0.9939903
0.99400391
0.99401453
0.99402178
0.99402552
0.99402587
0.99402302
0.99401838
0.99205927
0.99207163
0.99208677
0.99210132
0.99211366
0.99212299
0.99212908
0.99213222
0.99213276
0.99213233
0.99207163
0.99208749
0.99210565
0.99212242
0.99213625
0.99214647
0.99215286
0.99215555
0.99215443
0.99215101
0.99208677
0.99210565
0.99212706
0.99214645
0.99216205
0.99217317
0.99217947
0.99218096
0.99217737
0.99217091
0.99210132
0.99212242
0.99214645
0.99216803
0.9921851
0.99219682
0.99220278
0.99220292
0.9921971
0.99218838
0.99211366
0.99213625
0.99216205
0.9921851
0.9922031
0.9922151
0.99222068
0.99221972
0.99221229
0.99220206
0.99212299
0.99214647
0.99217317
0.99219682
0.9922151
0.9922271
0.99223238
0.99223081
0.99222248
0.99221135
0.99212908
0.99215286
0.99217947
0.99220278
0.99222068
0.99223238
0.99223749
0.99223587
0.99222745
0.99221602
0.99213222
0.99215555
0.99218096
0.99220292
0.99221972
0.99223081
0.99223587
0.99223473
0.99222712
0.99221618
0.99213276
0.99215443
0.99217737
0.9921971
0.99221229
0.99222249
0.99222745
0.99222712
0.99222118
0.99221192
0.99213233
0.99215101
0.99217091
0.99218838
0.99220206
0.99221135
0.99221602
0.99221618
0.99221192
0.99220518
0.99017354
0.9901876
0.99020567
0.99022333
0.99023835
0.99024965
0.99025685
0.9902602
0.99026002
0.99025833
0.9901876
0.99020571
0.99022746
0.99024787
0.99026476
0.99027717
0.99028471
0.99028744
0.99028509
0.99027969
0.99020567
0.99022746
0.99025323
0.9902769
0.990296
0.99030951
0.99031692
0.99031811
0.99031265
0.99030348
0.99022333
0.99024787
0.9902769
0.99030331
0.99032424
0.99033849
0.99034546
0.99034493
0.99033668
0.99032469
0.99023835
0.99026476
0.990296
0.99032424
0.99034631
0.99036092
0.9903674
0.99036552
0.99035524
0.99034136
0.99024965
0.99027717
0.99030951
0.99033849
0.99036092
0.99037552
0.99038163
0.990379
0.99036762
0.99035262
0.99025685
0.99028471
0.99031692
0.99034546
0.9903674
0.99038163
0.99038756
0.99038488
0.99037342
0.99035809
0.9902602
0.99028744
0.99031811
0.99034494
0.99036552
0.990379
0.99038488
0.99038285
0.99037246
0.99035784
0.99026002
0.99028509
0.99031265
0.99033668
0.99035524
0.99036762
0.99037342
0.99037246
0.99036427
0.99035191
0.99025833
0.99027969
0.99030348
0.99032469
0.99034136
0.99035262
0.99035809
0.99035784
0.99035191
0.99034296
0.98824137
0.9882569
0.98827769
0.98829833
0.98831593
0.98832907
0.98833719
0.98834047
0.98833925
0.98833607
0.9882569
0.98827692
0.988302
0.98832592
0.98834577
0.98836023
0.9883687
0.98837113
0.9883672
0.98835963
0.98827769
0.988302
0.98833186
0.98835967
0.98838218
0.98839794
0.98840622
0.98840674
0.98839903
0.98838699
0.98829833
0.98832592
0.98835967
0.98839078
0.98841547
0.98843211
0.98843984
0.98843828
0.98842719
0.98841176
0.98831593
0.98834577
0.98838218
0.98841547
0.98844153
0.9884586
0.98846573
0.98846254
0.98844901
0.98843131
0.98832907
0.98836023
0.98839794
0.98843211
0.9884586
0.98847566
0.98848236
0.98847827
0.98846344
0.98844441
0.98833719
0.9883687
0.98840622
0.98843984
0.98846573
0.98848236
0.98848886
0.98848475
0.98846988
0.98845052
0.98834047
0.98837113
0.98840674
0.98843828
0.98846254
0.98847827
0.98848475
0.9884815
0.98846801
0.98844962
0.98833925
0.9883672
0.98839903
0.98842719
0.98844902
0.98846344
0.98846988
0.98846801
0.9884573
0.98844182
0.98833607
0.98835963
0.98838699
0.98841176
0.98843131
0.98844441
0.98845052
0.98844962
0.98844182
0.98843066
0.98626163
0.98627845
0.98630176
0.98632521
0.98634526
0.98636008
0.98636888
0.9863718
0.98636926
0.98636446
0.98627845
0.98630013
0.98632828
0.98635552
0.98637818
0.98639451
0.98640366
0.98640545
0.98639962
0.98638981
0.98630175
0.98632828
0.98636192
0.98639369
0.98641944
0.98643727
0.98644614
0.98644562
0.98643534
0.98642038
0.98632521
0.98635552
0.98639369
0.9864293
0.98645759
0.98647643
0.98648462
0.98648164
0.9864674
0.98644851
0.98634526
0.98637818
0.98641944
0.98645759
0.98648748
0.98650681
0.9865143
0.9865094
0.98649232
0.98647076
0.98636007
0.98639451
0.98643727
0.98647643
0.98650681
0.98652613
0.98653312
0.9865272
0.98650861
0.98648555
0.98636888
0.98640366
0.98644614
0.98648462
0.9865143
0.98653312
0.9865399
0.98653401
0.98651545
0.98649209
0.9863718
0.98640545
0.98644562
0.98648164
0.9865094
0.9865272
0.98653402
0.9865292
0.98651238
0.98649032
0.98636926
0.98639962
0.98643534
0.9864674
0.98649232
0.98650861
0.98651545
0.98651238
0.98649898
0.98648051
0.98636446
0.98638981
0.98642039
0.98644851
0.98647077
0.98648555
0.98649209
0.98649032
0.98648051
0.98646724
0.98423311
0.98425109
0.98427671
0.9843028
0.98432512
0.98434141
0.98435066
0.98435292
0.98434882
0.98434234
0.98425109
0.98427423
0.98430521
0.98433555
0.98436083
0.9843788
0.98438835
0.98438916
0.98438119
0.98436915
0.98427671
0.98430521
0.98434234
0.98437783
0.98440661
0.98442625
0.9844354
0.98443348
0.9844204
0.98440259
0.9843028
0.98433555
0.98437783
0.98441767
0.98444935
0.98447012
0.98447846
0.98447369
0.98445607
0.9844338
0.98432511
0.98436083
0.98440661
0.98444935
0.98448284
0.98450417
0.98451168
0.98450472
0.98448386
0.98445857
0.98434141
0.9843788
0.98442625
0.98447012
0.98450417
0.98452549
0.98453245
0.98452434
0.98450181
0.98447484
0.98435066
0.98438835
0.9844354
0.98447846
0.98451168
0.98453245
0.98453921
0.9845312
0.9845088
0.9844816
0.98435292
0.98438916
0.98443348
0.98447369
0.98450472
0.98452434
0.9845312
0.98452454
0.98450427
0.98447873
0.98434882
0.98438119
0.9844204
0.98445607
0.98448386
0.98450181
0.9845088
0.98450427
0.98448808
0.98446684
0.98434234
0.98436915
0.98440259
0.9844338
0.98445857
0.98447484
0.9844816
0.98447873
0.98446684
0.98445163
0.98215451
0.98217357
0.98220132
0.98222983
0.98225422
0.98227176
0.98228119
0.98228252
0.98227669
0.98226854
0.98217357
0.98219805
0.9822316
0.98226482
0.98229248
0.98231184
0.98232147
0.982321
0.98231073
0.98229653
0.98220132
0.9822316
0.98227194
0.98231086
0.98234242
0.98236359
0.98237269
0.98236905
0.98235302
0.98233248
0.98222983
0.98226482
0.98231086
0.98235465
0.98238943
0.98241185
0.98241999
0.9824131
0.98239197
0.98236648
0.98225422
0.98229248
0.98234242
0.98238943
0.98242624
0.98244926
0.98245646
0.98244711
0.98242237
0.98239353
0.98227176
0.98231184
0.98236359
0.98241185
0.98244926
0.98247227
0.98247887
0.98246826
0.98244171
0.98241106
0.98228119
0.98232147
0.98237269
0.98241999
0.98245646
0.98247887
0.98248529
0.98247489
0.98244859
0.98241782
0.98228252
0.982321
0.98236905
0.9824131
0.98244711
0.98246826
0.98247489
0.98246611
0.98244238
0.98241367
0.98227669
0.98231073
0.98235302
0.98239197
0.98242237
0.98244171
0.98244859
0.98244238
0.9824234
0.98239968
0.98226854
0.98229653
0.98233248
0.98236648
0.98239353
0.98241106
0.98241782
0.98241367
0.98239968
0.98238271
0.98002452
0.98004459
0.98007428
0.98010501
0.98013124
0.98014978
0.98015913
0.98015928
0.98015159
0.98014181
0.98004459
0.98007031
0.98010621
0.98014204
0.98017181
0.98019228
0.9802017
0.98019967
0.980187
0.98017074
0.98007428
0.98010621
0.98014946
0.98019152
0.98022556
0.98024794
0.98025666
0.98025102
0.98023196
0.98020887
0.98010501
0.98014203
0.98019152
0.98023892
0.98027649
0.98030021
0.98030781
0.98029852
0.98027384
0.98024535
0.98013124
0.98017181
0.98022556
0.98027649
0.98031628
0.98034064
0.9803472
0.98033518
0.98030654
0.98027441
0.98014978
0.98019228
0.98024794
0.98030021
0.98034064
0.98036501
0.98037091
0.98035757
0.980327
0.98029295
0.98015913
0.9802017
0.98025666
0.98030781
0.9803472
0.98037091
0.98037668
0.98036365
0.98033351
0.98029949
0.98015928
0.98019967
0.98025102
0.98029852
0.98033518
0.98035757
0.98036365
0.98035257
0.98032545
0.98029392
0.98015159
0.980187
0.98023196
0.98027384
0.98030654
0.980327
0.98033351
0.98032545
0.98030375
0.98027786
0.98014181
0.98017074
0.98020887
0.98024535
0.98027441
0.98029295
0.98029949
0.98029392
0.98027786
0.98025934
0.97784173
0.97786275
0.97789422
0.97792695
0.97795477
0.97797405
0.97798306
0.97798182
0.9779722
0.97796086
0.97786275
0.97788965
0.97792768
0.97796585
0.97799747
0.97801873
0.97802765
0.97802384
0.97800872
0.97799055
0.97789422
0.97792768
0.97797357
0.97801846
0.97805465
0.97807792
0.97808594
0.97807806
0.97805598
0.97803053
0.97792695
0.97796585
0.97801846
0.97806911
0.97810911
0.97813378
0.97814051
0.97812862
0.97810041
0.97806917
0.97795476
0.97799746
0.97805465
0.97810911
0.9781515
0.97817686
0.97818243
0.97816756
0.97813508
0.97809994
0.97797405
0.97801873
0.97807792
0.97813378
0.97817686
0.97820222
0.97820711
0.97819084
0.97815636
0.97811924
0.97798306
0.97802765
0.97808594
0.97814051
0.97818244
0.97820711
0.97821193
0.97819612
0.97816225
0.97812534
0.97798182
0.97802384
0.97807806
0.97812862
0.97816757
0.97819085
0.97819612
0.9781826
0.97815222
0.97811824
0.9779722
0.97800872
0.97805598
0.97810041
0.97813508
0.97815636
0.97816225
0.97815222
0.97812794
0.97810018
0.97796086
0.97799055
0.97803053
0.97806917
0.97809994
0.97811924
0.97812534
0.97811824
0.97810018
0.97808033
0.9756047
0.97562663
0.97565971
0.9756942
0.97572336
0.97574312
0.97575155
0.97574875
0.97573715
0.97572434
0.97562663
0.97565463
0.97569459
0.97573484
0.97576799
0.97578977
0.97579791
0.97579214
0.97577457
0.97575462
0.97565971
0.97569459
0.97574288
0.97579026
0.97582826
0.97585208
0.97585912
0.97584883
0.97582376
0.97579615
0.9756942
0.97573484
0.97579026
0.97584379
0.97588585
0.97591111
0.97591668
0.97590201
0.97587037
0.97583663
0.97572336
0.97576799
0.97582826
0.97588585
0.97593044
0.97595642
0.97596072
0.97594286
0.97590667
0.97586881
0.97574312
0.97578977
0.97585208
0.97591111
0.97595642
0.9759824
0.975986
0.9759667
0.97592847
0.97588861
0.97575155
0.97579791
0.97585912
0.97591668
0.97596072
0.975986
0.9759896
0.97597093
0.97593353
0.97589408
0.97574875
0.97579214
0.97584883
0.97590201
0.97594286
0.9759667
0.97597093
0.97595489
0.97592146
0.97588537
0.97573715
0.97577457
0.97582376
0.97587037
0.97590667
0.97592847
0.97593353
0.97592146
0.97589473
0.97586542
0.97572434
0.97575462
0.97579616
0.97583664
0.97586881
0.97588861
0.97589408
0.97588537
0.97586542
0.97584442
0.97331191
0.9733347
0.97336925
0.97340527
0.9734355
0.9734555
0.97346312
0.97345863
0.97344505
0.97343086
0.9733347
0.97336376
0.97340547
0.97344751
0.97348191
0.9735039
0.97351102
0.97350316
0.97348319
0.9734616
0.97336924
0.97340547
0.9734559
0.97350545
0.97354491
0.97356896
0.97357474
0.97356194
0.97353397
0.97350441
0.97340527
0.97344751
0.97350545
0.97356148
0.97360521
0.97363071
0.97363485
0.97361732
0.97358238
0.9735464
0.9734355
0.97348191
0.97354491
0.97360521
0.9736516
0.97367784
0.97368061
0.97365968
0.97361995
0.97357968
0.9734555
0.9735039
0.97356896
0.97363071
0.97367784
0.97370407
0.97370613
0.97368375
0.97364198
0.97359971
0.97346311
0.97351102
0.97357474
0.97363485
0.97368061
0.97370613
0.97370828
0.97368671
0.97364601
0.97360438
0.97345863
0.97350316
0.97356194
0.97361732
0.97365968
0.97368375
0.97368671
0.97366813
0.97363187
0.97359402
0.97344505
0.97348319
0.97353397
0.97358238
0.97361995
0.97364198
0.97364601
0.97363187
0.9736029
0.97357231
0.97343086
0.97346161
0.97350441
0.9735464
0.97357968
0.97359972
0.97360438
0.97359402
0.97357231
0.97355033
0.97096182
0.97098542
0.97102126
0.97105859
0.97108966
0.97110963
0.97111625
0.97110997
0.97109444
0.97107897
0.97098542
0.97101548
0.97105874
0.97110233
0.97113767
0.97115959
0.97116549
0.97115546
0.97113313
0.97111006
0.97102126
0.97105874
0.97111108
0.97116249
0.97120307
0.97122703
0.97123134
0.97121595
0.9711852
0.97115388
0.97105859
0.97110232
0.97116249
0.97122066
0.97126567
0.97129108
0.97129357
0.97127312
0.97123505
0.97119707
0.97108966
0.97113767
0.97120307
0.97126567
0.97131345
0.9713396
0.97134061
0.9713166
0.97127356
0.97123115
0.97110963
0.97115959
0.97122703
0.97129108
0.9713396
0.97136575
0.97136605
0.9713406
0.97129553
0.97125118
0.97111625
0.97116549
0.97123134
0.97129357
0.97134062
0.97136605
0.97136655
0.9713421
0.97129837
0.97125489
0.97110997
0.97115545
0.97121595
0.97127312
0.97131661
0.9713406
0.9713421
0.97132102
0.97128217
0.97124287
0.97109444
0.97113313
0.9711852
0.97123505
0.97127356
0.97129553
0.97129837
0.97128217
0.97125115
0.97121952
0.97107897
0.97111006
0.97115388
0.97119707
0.97123116
0.97125118
0.97125489
0.97124287
0.97121952
0.97119673
0.9685528
0.96857715
0.96861416
0.96865258
0.96868422
0.96870394
0.9687094
0.96870127
0.96868384
0.96866717
0.96857715
0.96860816
0.96865281
0.96869767
0.96873368
0.96875528
0.96875978
0.96874752
0.96872295
0.96869851
0.96861416
0.96865281
0.96870684
0.96875979
0.96880117
0.96882475
0.96882741
0.96880941
0.96877602
0.96874311
0.96865258
0.96869767
0.96875979
0.96881973
0.96886567
0.96889068
0.96889133
0.96886798
0.96882696
0.9687872
0.96868422
0.96873368
0.96880117
0.96886567
0.96891445
0.96894018
0.96893927
0.96891221
0.96886607
0.96882181
0.96870394
0.96875528
0.96882475
0.96889068
0.96894018
0.96896593
0.96896431
0.96893584
0.96888773
0.9688416
0.9687094
0.96875977
0.96882741
0.96889133
0.96893927
0.96896431
0.96896301
0.96893575
0.96888925
0.96884423
0.96870127
0.96874752
0.96880941
0.96886798
0.96891221
0.96893584
0.96893575
0.96891222
0.96887104
0.96883057
0.96868384
0.96872295
0.96877602
0.96882696
0.96886607
0.96888774
0.96888925
0.96887104
0.96883816
0.9688057
0.96866717
0.96869851
0.96874311
0.9687872
0.96882181
0.9688416
0.96884423
0.96883057
0.9688057
0.96878224
0.9660832
0.96610824
0.96614626
0.96618556
0.96621755
0.96623682
0.96624098
0.96623097
0.9662117
0.96619391
0.96610824
0.96614013
0.966186
0.9662319
0.96626831
0.96628936
0.96629231
0.96627783
0.96625111
0.96622543
0.96614626
0.966186
0.96624152
0.96629571
0.96633758
0.96636053
0.9663614
0.96634081
0.96630493
0.96627059
0.96618556
0.9662319
0.96629571
0.9663571
0.96640361
0.96642794
0.96642661
0.96640041
0.96635664
0.96631531
0.96621755
0.96626831
0.96633758
0.96640361
0.96645301
0.96647805
0.96647508
0.96644505
0.96639605
0.96635017
0.96623682
0.96628936
0.96636053
0.96642794
0.96647805
0.9665031
0.96649945
0.96646806
0.96641718
0.96636951
0.96624098
0.96629231
0.9663614
0.96642661
0.96647508
0.96649945
0.96649624
0.96646627
0.96641727
0.96637097
0.96623097
0.96627783
0.96634081
0.96640041
0.96644505
0.96646806
0.96646627
0.96644038
0.96639711
0.9663557
0.9662117
0.96625111
0.96630493
0.96635664
0.96639606
0.96641718
0.96641727
0.96639711
0.96636256
0.96632945
0.96619391
0.96622543
0.96627059
0.96631532
0.96635017
0.96636952
0.96637097
0.9663557
0.96632945
0.96630543
0.96355129
0.96357697
0.96361586
0.96365584
0.96368797
0.96370661
0.96370937
0.96369747
0.96367644
0.96365762
0.96357697
0.96360968
0.96365661
0.96370331
0.96373988
0.96376018
0.96376149
0.96374481
0.96371605
0.96368923
0.96361586
0.96365661
0.9637134
0.96376858
0.96381066
0.96383276
0.96383172
0.9638086
0.96377039
0.96373477
0.96365584
0.96370331
0.96376858
0.96383108
0.96387786
0.96390127
0.96389788
0.9638689
0.96382259
0.96377987
0.96368797
0.96373988
0.96381066
0.96387786
0.96392755
0.96395165
0.96394653
0.96391363
0.96386202
0.96381473
0.96370661
0.96376018
0.96383276
0.96390127
0.96395165
0.96397576
0.96396999
0.96393579
0.96388241
0.96383345
0.96370936
0.96376149
0.96383172
0.96389788
0.96394653
0.96396999
0.9639648
0.96393225
0.96388101
0.96383366
0.96369747
0.96374481
0.9638086
0.9638689
0.96391363
0.96393579
0.96393225
0.96390411
0.96385898
0.96381682
0.96367644
0.96371605
0.96377039
0.96382259
0.96386203
0.96388241
0.96388101
0.96385898
0.96382294
0.96378932
0.96365762
0.96368923
0.96373477
0.96377987
0.96381474
0.96383346
0.96383366
0.96381682
0.96378932
0.96376484
0.96095532
0.96098158
0.9610212
0.96106168
0.96109376
0.96111161
0.96111289
0.96109914
0.96107642
0.96105666
0.96098158
0.96101504
0.96106287
0.96111017
0.96114667
0.96116607
0.96116566
0.96114682
0.96111615
0.96108829
0.9610212
0.96106287
0.96112076
0.96117666
0.9612187
0.96123977
0.96123678
0.96121119
0.96117082
0.96113405
0.96106168
0.96111017
0.96117666
0.96123999
0.96128675
0.96130906
0.96130354
0.9612719
0.96122325
0.9611793
0.96109376
0.96114667
0.9612187
0.96128675
0.96133643
0.96135939
0.96135208
0.96131644
0.96126246
0.96121395
0.96111161
0.96116607
0.96123977
0.96130906
0.96135939
0.96138235
0.96137443
0.96133758
0.96128194
0.9612319
0.96111289
0.96116566
0.96123678
0.96130354
0.96135208
0.96137443
0.96136722
0.96133223
0.96127901
0.9612308
0.96109914
0.96114682
0.96121119
0.9612719
0.96131644
0.96133758
0.96133223
0.96130197
0.9612552
0.96121246
0.96107642
0.96111615
0.96117082
0.96122325
0.96126246
0.96128194
0.96127901
0.9612552
0.96121784
0.96118382
0.96105666
0.96108829
0.96113405
0.9611793
0.96121395
0.9612319
0.9612308
0.96121246
0.96118382
0.96115896
0.9582935
0.95832026
0.95836049
0.9584013
0.95843316
0.9584501
0.95844986
0.95843429
0.95840998
0.95838934
0.95832026
0.95835439
0.95840298
0.95845069
0.95848695
0.9585053
0.95850314
0.95848222
0.95844975
0.95842095
0.95836049
0.95840298
0.95846179
0.9585182
0.95855998
0.95857988
0.9585749
0.95854696
0.95850457
0.95846677
0.9584013
0.95845069
0.9585182
0.9585821
0.95862861
0.95864965
0.95864199
0.95860781
0.95855702
0.95851198
0.95843315
0.95848695
0.95855998
0.95862861
0.95867802
0.95869966
0.95869015
0.95865192
0.95859579
0.95854623
0.9584501
0.9585053
0.95857987
0.95864965
0.95869966
0.95872133
0.95871125
0.95867189
0.95861424
0.95856328
0.95844986
0.95850314
0.9585749
0.95864199
0.95869015
0.95871125
0.95870202
0.95866474
0.95860975
0.95856085
0.95843429
0.95848222
0.95854696
0.95860781
0.95865192
0.95867189
0.95866474
0.95863249
0.95858427
0.95854108
0.95840998
0.95844975
0.95850457
0.95855702
0.9585958
0.95861424
0.95860975
0.95858427
0.95854573
0.95851141
0.95838934
0.95842095
0.95846677
0.95851199
0.95854624
0.95856328
0.95856085
0.95854108
0.95851141
0.95848622
0.95556398
0.95559118
0.9556319
0.95567288
0.95570437
0.95572031
0.95571854
0.9557012
0.9556754
0.95565394
0.95559118
0.95562591
0.95567512
0.95572306
0.95575892
0.95577613
0.95577222
0.95574929
0.95571515
0.95568548
0.95563189
0.95567512
0.95573469
0.9557914
0.95583275
0.95585136
0.95584441
0.95581422
0.95576998
0.95573124
0.95567288
0.95572306
0.9557914
0.95585565
0.9559017
0.95592136
0.95591157
0.95587499
0.95582225
0.95577625
0.95570437
0.95575892
0.95583275
0.9559017
0.95595062
0.95597084
0.95595915
0.95591849
0.95586042
0.95580995
0.95572031
0.95577613
0.95585136
0.95592136
0.95597084
0.95599108
0.95597887
0.95593718
0.95587773
0.95582599
0.95571853
0.95577221
0.95584441
0.95591157
0.95595915
0.95597887
0.95596765
0.95592824
0.95587169
0.95582223
0.9557012
0.95574929
0.95581422
0.95587499
0.95591849
0.95593718
0.95592824
0.95589413
0.95584464
0.95580109
0.9556754
0.95571515
0.95576998
0.95582225
0.95586042
0.95587773
0.95587169
0.95584464
0.95580505
0.95577048
0.95565394
0.95568548
0.95573124
0.95577625
0.95580995
0.95582599
0.95582223
0.95580109
0.95577049
0.95574503
0.95276488
0.95279246
0.95283355
0.95287458
0.95290559
0.95292045
0.95291714
0.95289812
0.95287091
0.9528487
0.95279246
0.95282771
0.95287741
0.95292544
0.95296077
0.95297677
0.95297112
0.95294629
0.9529106
0.95288012
0.95283354
0.95287741
0.95293759
0.95299443
0.95303521
0.95305247
0.95304357
0.95301126
0.95296532
0.95292573
0.95287458
0.95292544
0.95299443
0.95305884
0.95310426
0.95312248
0.95311061
0.95307177
0.95301725
0.9529704
0.95290559
0.95296077
0.95303521
0.95310426
0.95315252
0.95317125
0.95315743
0.9531145
0.95305468
0.95300342
0.95292045
0.95297677
0.95305247
0.95312248
0.95317125
0.95318999
0.9531757
0.95313184
0.95307078
0.9530184
0.95291714
0.95297112
0.95304357
0.95311061
0.95315743
0.9531757
0.95316253
0.95312115
0.95306323
0.9530133
0.95289812
0.95294629
0.95301126
0.95307177
0.9531145
0.95313184
0.95312115
0.95308533
0.9530347
0.95299088
0.95287091
0.9529106
0.95296532
0.95301725
0.95305468
0.95307078
0.95306323
0.9530347
0.95299418
0.95295942
0.9528487
0.95288012
0.95292573
0.9529704
0.95300342
0.9530184
0.9530133
0.95299088
0.95295942
0.95293374
0.94989429
0.94992218
0.94996354
0.95000451
0.95003494
0.95004869
0.95004387
0.95002324
0.94999472
0.94997182
0.94992218
0.94995788
0.95000796
0.95005596
0.95009065
0.9501054
0.95009805
0.95007143
0.9500343
0.9500031
0.94996354
0.95000796
0.95006861
0.95012545
0.95016553
0.9501814
0.95017062
0.95013632
0.95008882
0.95004847
0.95000451
0.95005596
0.95012545
0.95018984
0.95023452
0.95025125
0.95023736
0.95019643
0.95014029
0.95009268
0.95003494
0.95009065
0.95016553
0.95023452
0.95028198
0.95029917
0.95028331
0.95023827
0.95017688
0.95012493
0.95004869
0.9501054
0.9501814
0.95025125
0.95029917
0.95031637
0.95030009
0.95025423
0.95019174
0.9501388
0.95004387
0.95009805
0.95017062
0.95023736
0.95028331
0.95030009
0.95028504
0.95024185
0.9501827
0.9501324
0.95002324
0.95007143
0.95013632
0.95019643
0.95023827
0.95025423
0.95024185
0.95020444
0.95015281
0.95010876
0.94999472
0.9500343
0.95008882
0.95014029
0.95017688
0.95019174
0.95018271
0.95015281
0.95011144
0.95007653
0.94997182
0.9500031
0.95004847
0.95009268
0.95012493
0.9501388
0.9501324
0.95010876
0.95007653
0.95005064
0.94695027
0.94697841
0.94701995
0.94706076
0.94709054
0.94710316
0.94709687
0.94707472
0.94704499
0.94702145
0.94697841
0.94701449
0.94706485
0.9471127
0.94714669
0.94716017
0.94715119
0.94712288
0.94708442
0.94705255
0.94701995
0.94706484
0.94712585
0.94718256
0.94722187
0.94723634
0.94722374
0.9471876
0.94713867
0.94709762
0.94706076
0.9471127
0.94718256
0.9472468
0.94729065
0.94730588
0.94729007
0.9472472
0.94718959
0.9471413
0.94709054
0.94714668
0.94722187
0.94729065
0.94733723
0.94735287
0.94733504
0.94728807
0.94722527
0.94717271
0.94710316
0.94716017
0.94723634
0.94730588
0.94735287
0.94736852
0.94735033
0.94730263
0.94723887
0.94718545
0.94709687
0.94715119
0.94722374
0.94729007
0.94733504
0.94735033
0.9473335
0.94728864
0.94722841
0.94717778
0.94707472
0.94712288
0.9471876
0.9472472
0.94728808
0.94730263
0.94728864
0.94724976
0.94719725
0.94715302
0.94704499
0.94708442
0.94713867
0.94718959
0.94722527
0.94723887
0.94722841
0.94719725
0.94715512
0.94712007
0.94702145
0.94705255
0.94709762
0.9471413
0.94717271
0.94718545
0.94717778
0.94715302
0.94712007
0.947094
0.94393084
0.94395917
0.94400082
0.94404139
0.94407048
0.94408197
0.94407426
0.94405068
0.94401983
0.9439957
0.94395917
0.94399556
0.9440461
0.94409373
0.94412696
0.9441392
0.94412865
0.94409877
0.9440591
0.94402661
0.94400082
0.9440461
0.94410736
0.94416384
0.94420233
0.94421542
0.9442011
0.94416324
0.94411301
0.94407133
0.94404138
0.94409373
0.94416384
0.94422784
0.9442708
0.94428456
0.94426691
0.94422225
0.94416333
0.94411442
0.94407048
0.94412696
0.94420233
0.9442708
0.94431643
0.94433054
0.94431087
0.94426212
0.94419805
0.94414495
0.94408197
0.9441392
0.94421542
0.94428456
0.94433054
0.94434468
0.94432468
0.9442753
0.9442104
0.94415657
0.94407426
0.94412865
0.9442011
0.94426691
0.94431087
0.94432468
0.94430616
0.94425977
0.94419858
0.94414768
0.94405068
0.94409877
0.94416324
0.94422225
0.94426213
0.9442753
0.94425977
0.94421956
0.94416625
0.94412186
0.94401983
0.9440591
0.94411301
0.94416333
0.94419805
0.9442104
0.94419859
0.94416625
0.94412343
0.94408826
0.9439957
0.94402661
0.94407133
0.94411442
0.94414495
0.94415657
0.94414768
0.94412186
0.94408826
0.94406202
0.940834
0.94086247
0.94090416
0.94094442
0.94097279
0.94098317
0.94097412
0.94094921
0.94091733
0.94089266
0.94086247
0.94089911
0.94094976
0.94099709
0.94102955
0.94104056
0.94102853
0.9409972
0.94095641
0.94092337
0.94090415
0.94094976
0.94101117
0.94106736
0.941105
0.94111675
0.94110081
0.94106137
0.94100996
0.9409677
0.94094442
0.94099709
0.94106736
0.94113103
0.94117308
0.9411854
0.94116605
0.94111975
0.94105962
0.94101017
0.94097279
0.94102955
0.941105
0.94117308
0.94121773
0.94123037
0.94120896
0.94115859
0.94109338
0.9410398
0.94098317
0.94104056
0.94111675
0.9411854
0.94123037
0.94124303
0.94122134
0.94117043
0.94110451
0.94105031
0.94097412
0.94102853
0.94110081
0.94116605
0.94120896
0.94122134
0.94120123
0.94115346
0.94109141
0.94104027
0.94094921
0.9409972
0.94106137
0.94111975
0.94115859
0.94117043
0.94115346
0.94111201
0.94105799
0.94101345
0.94091733
0.94095641
0.94100996
0.94105962
0.94109339
0.94110451
0.94109141
0.94105799
0.94101455
0.94097926
0.94089266
0.94092337
0.94096771
0.94101017
0.94103981
0.94105031
0.94104027
0.94101345
0.94097926
0.94095286
0.93765772
0.93768629
0.93772795
0.93776787
0.93779551
0.93780481
0.93779449
0.93776835
0.93773552
0.93771036
0.93768629
0.93772311
0.9377738
0.9378208
0.93785247
0.9378623
0.93784889
0.93781622
0.93777441
0.93774086
0.93772794
0.9377738
0.9378353
0.93789115
0.93792793
0.93793839
0.93792094
0.93788006
0.93782757
0.9377848
0.93776787
0.9378208
0.93789115
0.93795443
0.93799556
0.93800652
0.93798557
0.93793777
0.93787657
0.93782662
0.93779551
0.93785246
0.93792793
0.93799556
0.93803924
0.93805046
0.93802745
0.9379756
0.93790937
0.93785536
0.93780481
0.9378623
0.93793839
0.93800651
0.93805046
0.93806171
0.93803846
0.93798616
0.93791933
0.9378648
0.93779449
0.93784889
0.93792094
0.93798557
0.93802745
0.93803846
0.93801688
0.93796784
0.93790502
0.93785366
0.93776835
0.93781621
0.93788006
0.93793778
0.93797561
0.93798616
0.93796784
0.93792527
0.9378706