/*--------------------------------*- C++ -*----------------------------------*\
| =========                 |                                                 |
| \\      /  F ield         | OpenFOAM: The Open Source CFD Toolbox           |
|  \\    /   O peration     | Version:  dev                                   |
|   \\  /    A nd           | Web:      www.OpenFOAM.org                      |
|    \\/     M anipulation  |                                                 |
\*---------------------------------------------------------------------------*/
FoamFile
{
    version     2.0;
    format      ascii;
    class       volScalarField;
    location    "3";
    object      A_0;
}
// * * * * * * * * * * * * * * * * * * * * * * * * * * * * * * * * * * * * * //

dimensions      [0 0 0 0 1 0 0];

internalField   nonuniform List<scalar> 
10000
(
0.99915574
0.99915748
0.99915922
0.99916082
0.99916217
0.9991632
0.99916389
0.99916431
0.99916456
0.99916494
0.99915748
0.99915963
0.99916169
0.99916352
0.99916501
0.99916613
0.99916686
0.99916723
0.99916734
0.99916742
0.99915922
0.99916169
0.99916409
0.99916618
0.99916786
0.99916906
0.99916979
0.99917004
0.9991699
0.99916969
0.99916082
0.99916352
0.99916618
0.9991685
0.99917033
0.9991716
0.99917229
0.99917241
0.99917205
0.99917161
0.99916217
0.99916501
0.99916786
0.99917033
0.99917225
0.99917355
0.9991742
0.99917421
0.99917369
0.9991731
0.9991632
0.99916613
0.99916906
0.9991716
0.99917355
0.99917485
0.99917547
0.99917542
0.9991748
0.99917412
0.99916389
0.99916686
0.99916979
0.99917229
0.9991742
0.99917547
0.99917607
0.999176
0.99917537
0.99917466
0.99916431
0.99916723
0.99917004
0.99917241
0.99917421
0.99917542
0.999176
0.99917599
0.99917542
0.99917475
0.99916456
0.99916734
0.9991699
0.99917205
0.99917369
0.9991748
0.99917537
0.99917542
0.99917501
0.99917447
0.99916494
0.99916742
0.99916969
0.99917161
0.9991731
0.99917412
0.99917466
0.99917475
0.99917447
0.99917409
0.9974436
0.99744864
0.99745388
0.99745872
0.99746278
0.99746588
0.99746798
0.99746923
0.99746993
0.99747084
0.99744864
0.99745494
0.99746115
0.99746667
0.99747119
0.99747456
0.99747676
0.99747788
0.99747812
0.99747813
0.99745388
0.99746115
0.99746837
0.99747471
0.99747979
0.99748344
0.99748561
0.99748638
0.99748587
0.99748495
0.99745872
0.99746667
0.99747471
0.99748173
0.99748727
0.99749111
0.99749319
0.99749354
0.99749235
0.99749074
0.99746278
0.99747119
0.99747979
0.99748727
0.9974931
0.99749704
0.99749899
0.997499
0.99749731
0.99749525
0.99746588
0.99747456
0.99748344
0.99749111
0.99749704
0.99750097
0.99750283
0.99750264
0.99750067
0.99749833
0.99746798
0.99747676
0.99748561
0.99749319
0.99749899
0.99750283
0.99750463
0.99750442
0.9975024
0.99749996
0.99746923
0.99747788
0.99748638
0.99749354
0.997499
0.99750264
0.99750442
0.99750434
0.99750254
0.99750022
0.99746993
0.99747812
0.99748587
0.99749235
0.99749731
0.99750067
0.9975024
0.99750254
0.99750121
0.99749931
0.99747084
0.99747814
0.99748495
0.99749074
0.99749525
0.99749833
0.99749996
0.99750022
0.99749931
0.99749796
0.99568827
0.9956962
0.99570489
0.995713
0.99571983
0.99572503
0.99572853
0.99573055
0.99573151
0.99573247
0.9956962
0.99570622
0.99571656
0.99572584
0.99573345
0.99573912
0.99574278
0.9957446
0.99574474
0.99574414
0.99570489
0.99571656
0.99572863
0.9957393
0.99574786
0.995754
0.99575763
0.99575883
0.9957577
0.99575549
0.995713
0.99572584
0.9957393
0.99575115
0.99576048
0.99576695
0.99577041
0.9957709
0.99576859
0.9957652
0.99571983
0.99573345
0.99574786
0.99576048
0.99577032
0.99577694
0.99578019
0.99578011
0.99577695
0.99577277
0.99572503
0.99573912
0.995754
0.99576695
0.99577694
0.99578356
0.99578665
0.99578623
0.9957826
0.99577794
0.99572853
0.99574278
0.99575763
0.99577041
0.99578019
0.99578665
0.99578965
0.99578918
0.99578548
0.99578065
0.99573055
0.9957446
0.99575883
0.9957709
0.99578011
0.99578623
0.99578918
0.99578895
0.99578563
0.99578101
0.9957315
0.99574474
0.9957577
0.99576859
0.99577695
0.9957826
0.99578548
0.99578563
0.99578313
0.99577927
0.99573247
0.99574414
0.99575549
0.9957652
0.99577277
0.99577794
0.99578065
0.99578101
0.99577927
0.99577648
0.99388926
0.99389962
0.99391163
0.99392301
0.99393261
0.9939399
0.99394475
0.99394743
0.99394835
0.99394884
0.99389962
0.99391282
0.99392718
0.99394024
0.99395097
0.99395894
0.99396403
0.9939664
0.99396611
0.99396432
0.99391163
0.99392718
0.99394402
0.99395908
0.99397117
0.99397982
0.99398485
0.99398632
0.99398417
0.99398007
0.993923
0.99394024
0.99395908
0.99397581
0.99398901
0.99399813
0.9940029
0.99400335
0.99399952
0.99399371
0.99393261
0.99395097
0.99397117
0.99398901
0.99400292
0.99401226
0.99401674
0.99401637
0.99401131
0.99400435
0.9939399
0.99395894
0.99397982
0.99399813
0.99401226
0.9940216
0.99402584
0.99402499
0.99401925
0.99401161
0.99394475
0.99396403
0.99398485
0.9940029
0.99401674
0.99402584
0.99402997
0.99402906
0.99402323
0.99401535
0.99394743
0.9939664
0.99398632
0.99400335
0.99401637
0.99402499
0.99402906
0.99402851
0.99402325
0.99401571
0.99394835
0.99396611
0.99398417
0.99399952
0.99401131
0.99401925
0.99402323
0.99402325
0.99401921
0.99401285
0.99394884
0.99396432
0.99398007
0.99399371
0.99400435
0.99401161
0.99401535
0.99401571
0.99401285
0.99400821
0.99204577
0.99205815
0.99207331
0.99208789
0.99210024
0.99210959
0.99211569
0.99211883
0.99211938
0.99211895
0.99205815
0.99207403
0.99209222
0.99210902
0.99212287
0.99213311
0.99213952
0.99214221
0.99214109
0.99213765
0.99207331
0.99209222
0.99211367
0.99213309
0.99214872
0.99215985
0.99216617
0.99216766
0.99216407
0.99215759
0.99208789
0.99210902
0.99213309
0.99215471
0.99217181
0.99218355
0.99218952
0.99218965
0.99218383
0.99217509
0.99210024
0.99212287
0.99214872
0.99217181
0.99218983
0.99220186
0.99220744
0.99220649
0.99219905
0.99218879
0.99210959
0.99213311
0.99215985
0.99218355
0.99220186
0.99221388
0.99221916
0.99221759
0.99220925
0.9921981
0.99211569
0.99213951
0.99216617
0.99218952
0.99220744
0.99221916
0.99222428
0.99222266
0.99221423
0.99220278
0.99211883
0.99214221
0.99216766
0.99218965
0.99220649
0.99221759
0.99222266
0.99222152
0.9922139
0.99220294
0.99211938
0.99214109
0.99216407
0.99218383
0.99219905
0.99220925
0.99221423
0.9922139
0.99220795
0.99219867
0.99211895
0.99213765
0.99215759
0.99217509
0.99218879
0.9921981
0.99220278
0.99220294
0.99219867
0.99219192
0.99015682
0.99017091
0.99018901
0.9902067
0.99022175
0.99023306
0.99024027
0.99024363
0.99024345
0.99024176
0.99017091
0.99018905
0.99021084
0.99023128
0.9902482
0.99026063
0.99026819
0.99027091
0.99026856
0.99026315
0.99018901
0.99021084
0.99023665
0.99026036
0.9902795
0.99029303
0.99030045
0.99030164
0.99029617
0.99028699
0.9902067
0.99023128
0.99026036
0.99028681
0.99030778
0.99032205
0.99032904
0.99032851
0.99032024
0.99030823
0.99022175
0.9902482
0.9902795
0.99030778
0.99032989
0.99034452
0.99035101
0.99034913
0.99033884
0.99032493
0.99023306
0.99026063
0.99029303
0.99032205
0.99034452
0.99035915
0.99036527
0.99036263
0.99035123
0.9903362
0.99024027
0.99026818
0.99030045
0.99032904
0.99035101
0.99036527
0.99037121
0.99036852
0.99035704
0.99034169
0.99024363
0.99027091
0.99030164
0.99032851
0.99034913
0.99036263
0.99036852
0.99036649
0.99035608
0.99034144
0.99024345
0.99026856
0.99029617
0.99032024
0.99033884
0.99035123
0.99035704
0.99035608
0.99034788
0.9903355
0.99024176
0.99026315
0.99028699
0.99030823
0.99032493
0.9903362
0.99034169
0.99034144
0.9903355
0.99032653
0.98822137
0.98823692
0.98825775
0.98827843
0.98829606
0.98830922
0.98831735
0.98832064
0.98831942
0.98831623
0.98823692
0.98825698
0.98828211
0.98830606
0.98832594
0.98834043
0.98834892
0.98835135
0.98834741
0.98833983
0.98825775
0.98828211
0.98831201
0.98833987
0.98836242
0.9883782
0.9883865
0.98838702
0.9883793
0.98836723
0.98827843
0.98830606
0.98833987
0.98837103
0.98839576
0.98841244
0.98842018
0.98841862
0.98840751
0.98839205
0.98829606
0.98832594
0.98836242
0.98839576
0.98842187
0.98843897
0.98844611
0.98844291
0.98842937
0.98841163
0.98830922
0.98834043
0.9883782
0.98841244
0.98843897
0.98845606
0.98846277
0.98845867
0.98844382
0.98842475
0.98831735
0.98834892
0.9883865
0.98842018
0.98844611
0.98846277
0.98846928
0.98846516
0.98845026
0.98843087
0.98832064
0.98835135
0.98838702
0.98841862
0.98844291
0.98845867
0.98846517
0.98846191
0.98844839
0.98842997
0.98831942
0.98834741
0.9883793
0.98840751
0.98842937
0.98844382
0.98845026
0.98844839
0.98843766
0.98842216
0.98831623
0.98833983
0.98836724
0.98839205
0.98841163
0.98842475
0.98843087
0.98842997
0.98842216
0.98841098
0.98623827
0.98625511
0.98627846
0.98630195
0.98632203
0.98633688
0.9863457
0.98634862
0.98634607
0.98634126
0.98625511
0.98627682
0.98630503
0.98633231
0.98635501
0.98637137
0.98638054
0.98638233
0.98637648
0.98636666
0.98627846
0.98630503
0.98633873
0.98637055
0.98639634
0.9864142
0.98642309
0.98642257
0.98641227
0.98639729
0.98630195
0.98633231
0.98637055
0.98640621
0.98643455
0.98645343
0.98646164
0.98645865
0.98644438
0.98642546
0.98632203
0.98635501
0.98639634
0.98643455
0.98646449
0.98648386
0.98649136
0.98648645
0.98646934
0.98644775
0.98633687
0.98637137
0.9864142
0.98645342
0.98648386
0.98650321
0.98651021
0.98650428
0.98648567
0.98646256
0.9863457
0.98638054
0.98642309
0.98646164
0.98649136
0.98651021
0.98651701
0.98651111
0.98649252
0.98646912
0.98634862
0.98638233
0.98642257
0.98645865
0.98648645
0.98650428
0.98651111
0.98650629
0.98648944
0.98646734
0.98634607
0.98637648
0.98641227
0.98644438
0.98646934
0.98648567
0.98649252
0.98648944
0.98647601
0.98645751
0.98634126
0.98636666
0.98639729
0.98642546
0.98644775
0.98646256
0.98646912
0.98646734
0.98645751
0.98644422
0.98420629
0.9842243
0.98424996
0.9842761
0.98429845
0.98431478
0.98432404
0.98432631
0.9843222
0.98431571
0.9842243
0.98424749
0.98427851
0.98430891
0.98433423
0.98435223
0.98436179
0.98436261
0.98435463
0.98434256
0.98424996
0.98427851
0.98431571
0.98435126
0.98438009
0.98439976
0.98440893
0.98440701
0.9843939
0.98437606
0.9842761
0.98430891
0.98435126
0.98439117
0.9844229
0.98444371
0.98445206
0.98444728
0.98442963
0.98440732
0.98429845
0.98433423
0.98438009
0.9844229
0.98445645
0.98447781
0.98448534
0.98447836
0.98445747
0.98443213
0.98431477
0.98435223
0.98439976
0.98444371
0.98447781
0.98449917
0.98450614
0.98449801
0.98447545
0.98444843
0.98432404
0.98436179
0.98440893
0.98445206
0.98448534
0.98450614
0.98451291
0.98450489
0.98448245
0.98445521
0.98432631
0.98436261
0.98440701
0.98444728
0.98447836
0.98449801
0.98450489
0.98449821
0.98447791
0.98445233
0.9843222
0.98435463
0.9843939
0.98442963
0.98445747
0.98447545
0.98448245
0.98447791
0.98446169
0.98444042
0.98431571
0.98434256
0.98437606
0.98440732
0.98443214
0.98444844
0.98445521
0.98445233
0.98444042
0.98442518
0.98212416
0.98214325
0.98217105
0.98219961
0.98222404
0.98224161
0.98225106
0.98225239
0.98224655
0.98223839
0.98214325
0.98216778
0.98220138
0.98223466
0.98226236
0.98228175
0.9822914
0.98229093
0.98228065
0.98226642
0.98217105
0.98220138
0.98224179
0.98228078
0.98231239
0.98233359
0.98234271
0.98233906
0.982323
0.98230243
0.98219961
0.98223466
0.98228078
0.98232464
0.98235948
0.98238193
0.98239009
0.98238319
0.98236202
0.98233649
0.98222404
0.98226236
0.98231239
0.98235948
0.98239635
0.98241941
0.98242663
0.98241725
0.98239247
0.98236358
0.98224161
0.98228175
0.98233359
0.98238193
0.98241941
0.98244246
0.98244907
0.98243845
0.98241185
0.98238114
0.98225106
0.9822914
0.98234271
0.98239009
0.98242663
0.98244907
0.98245551
0.98244508
0.98241874
0.98238791
0.98225239
0.98229093
0.98233906
0.98238319
0.98241725
0.98243845
0.98244508
0.98243629
0.98241251
0.98238376
0.98224655
0.98228065
0.98232301
0.98236202
0.98239247
0.98241185
0.98241874
0.98241251
0.98239351
0.98236974
0.98223839
0.98226642
0.98230243
0.98233649
0.98236358
0.98238114
0.98238791
0.98238376
0.98236974
0.98235275
0.97999055
0.98001065
0.98004039
0.98007118
0.98009745
0.98011602
0.98012539
0.98012554
0.98011783
0.98010804
0.98001065
0.98003642
0.98007238
0.98010826
0.98013809
0.98015859
0.98016803
0.980166
0.98015331
0.98013702
0.98004039
0.98007238
0.9801157
0.98015783
0.98019193
0.98021435
0.98022309
0.98021743
0.98019835
0.98017521
0.98007118
0.98010826
0.98015783
0.98020531
0.98024295
0.9802667
0.98027432
0.98026502
0.98024029
0.98021176
0.98009745
0.98013809
0.98019193
0.98024295
0.9802828
0.98030721
0.98031377
0.98030174
0.98027305
0.98024086
0.98011602
0.98015859
0.98021435
0.9802667
0.98030721
0.98033162
0.98033753
0.98032416
0.98029355
0.98025944
0.98012539
0.98016803
0.98022308
0.98027432
0.98031377
0.98033753
0.98034331
0.98033026
0.98030006
0.98026598
0.98012554
0.980166
0.98021743
0.98026502
0.98030174
0.98032416
0.98033026
0.98031916
0.98029199
0.9802604
0.98011783
0.98015331
0.98019835
0.98024029
0.98027305
0.98029355
0.98030006
0.98029199
0.98027026
0.98024432
0.98010804
0.98013702
0.98017521
0.98021176
0.98024086
0.98025944
0.98026598
0.9802604
0.98024432
0.98022577
0.97780405
0.97782511
0.97785663
0.97788941
0.97791728
0.9779366
0.97794562
0.97794438
0.97793474
0.97792339
0.97782511
0.97785205
0.97789014
0.97792838
0.97796005
0.97798135
0.97799029
0.97798647
0.97797133
0.97795312
0.97785663
0.97789014
0.97793612
0.97798108
0.97801733
0.97804064
0.97804868
0.97804078
0.97801866
0.97799317
0.97788941
0.97792838
0.97798108
0.97803181
0.97807188
0.97809659
0.97810334
0.97809142
0.97806317
0.97803188
0.97791728
0.97796005
0.97801733
0.97807188
0.97811435
0.97813975
0.97814533
0.97813044
0.9780979
0.97806269
0.9779366
0.97798135
0.97804064
0.97809659
0.97813975
0.97816515
0.97817005
0.97815376
0.97811922
0.97808203
0.97794562
0.97799029
0.97804868
0.97810334
0.97814533
0.97817005
0.97817488
0.97815904
0.97812512
0.97808814
0.97794438
0.97798647
0.97804078
0.97809142
0.97813044
0.97815376
0.97815904
0.9781455
0.97811507
0.97808102
0.97793474
0.97797133
0.97801866
0.97806317
0.9780979
0.97811922
0.97812512
0.97811507
0.97809074
0.97806294
0.97792339
0.97795312
0.97799317
0.97803188
0.9780627
0.97808203
0.97808814
0.97808103
0.97806294
0.97804305
0.97556322
0.97558518
0.97561832
0.97565287
0.97568208
0.97570188
0.97571032
0.97570752
0.97569589
0.97568307
0.97558518
0.97561323
0.97565326
0.97569358
0.97572679
0.9757486
0.97575676
0.97575098
0.97573338
0.9757134
0.97561832
0.97565326
0.97570163
0.97574909
0.97578716
0.97581102
0.97581807
0.97580777
0.97578265
0.975755
0.97565287
0.97569358
0.97574909
0.97580272
0.97584484
0.97587015
0.97587573
0.97586103
0.97582934
0.97579555
0.97568207
0.97572679
0.97578716
0.97584484
0.97588951
0.97591553
0.97591985
0.97590195
0.9758657
0.97582778
0.97570188
0.9757486
0.97581102
0.97587015
0.97591553
0.97594156
0.97594516
0.97592584
0.97588754
0.97584761
0.97571031
0.97575676
0.97581807
0.97587573
0.97591985
0.97594516
0.97594877
0.97593007
0.9758926
0.97585309
0.97570752
0.97575098
0.97580777
0.97586103
0.97590195
0.97592584
0.97593007
0.975914
0.97588051
0.97584436
0.97569589
0.97573338
0.97578265
0.97582934
0.9758657
0.97588754
0.9758926
0.97588051
0.97585374
0.97582439
0.97568307
0.9757134
0.975755
0.97579555
0.97582778
0.97584761
0.97585309
0.97584436
0.97582439
0.97580335
0.97326654
0.97328936
0.97332397
0.97336005
0.97339034
0.97341036
0.973418
0.9734135
0.9733999
0.97338569
0.97328936
0.97331847
0.97336025
0.97340237
0.97343682
0.97345885
0.97346599
0.97345811
0.9734381
0.97341648
0.97332397
0.97336025
0.97341076
0.9734604
0.97349993
0.97352402
0.97352981
0.97351699
0.97348897
0.97345936
0.97336005
0.97340237
0.9734604
0.97351653
0.97356033
0.97358588
0.97359002
0.97357246
0.97353746
0.97350142
0.97339034
0.97343682
0.97349993
0.97356033
0.9736068
0.97363308
0.97363586
0.97361489
0.9735751
0.97353476
0.97341036
0.97345885
0.97352402
0.97358588
0.97363308
0.97365936
0.97366142
0.97363901
0.97359716
0.97355483
0.973418
0.97346599
0.97352981
0.97359002
0.97363586
0.97366142
0.97366357
0.97364196
0.9736012
0.9735595
0.9734135
0.97345811
0.97351699
0.97357246
0.97361489
0.97363901
0.97364197
0.97362336
0.97358704
0.97354912
0.9733999
0.9734381
0.97348897
0.97353746
0.9735751
0.97359716
0.9736012
0.97358704
0.97355802
0.97352737
0.97338569
0.97341648
0.97345936
0.97350142
0.97353476
0.97355483
0.9735595
0.97354912
0.97352737
0.97350536
0.97091245
0.97093609
0.970972
0.97100939
0.97104051
0.97106051
0.97106714
0.97106086
0.9710453
0.9710298
0.97093609
0.9709662
0.97100954
0.9710532
0.9710886
0.97111056
0.97111647
0.97110642
0.97108406
0.97106095
0.970972
0.97100954
0.97106197
0.97111346
0.97115412
0.97117811
0.97118243
0.97116702
0.97113621
0.97110484
0.97100939
0.9710532
0.97111346
0.97117173
0.97121682
0.97124227
0.97124476
0.97122428
0.97118614
0.9711481
0.97104051
0.9710886
0.97115412
0.97121682
0.97126468
0.97129087
0.97129189
0.97126784
0.97122472
0.97118224
0.97106051
0.97111056
0.97117811
0.97124227
0.97129087
0.97131707
0.97131737
0.97129188
0.97124673
0.9712023
0.97106714
0.97111647
0.97118243
0.97124476
0.97129189
0.97131737
0.97131787
0.97129338
0.97124957
0.97120602
0.97106086
0.97110642
0.97116702
0.97122428
0.97126784
0.97129188
0.97129338
0.97127226
0.97123335
0.97119398
0.9710453
0.97108406
0.97113621
0.97118614
0.97122472
0.97124673
0.97124957
0.97123335
0.97120227
0.97117059
0.9710298
0.97106095
0.97110484
0.9711481
0.97118225
0.97120231
0.97120602
0.97119398
0.97117059
0.97114776
0.96849934
0.96852374
0.9685608
0.96859929
0.96863099
0.96865074
0.96865621
0.96864807
0.96863061
0.9686139
0.96852374
0.96855479
0.96859952
0.96864446
0.96868053
0.96870217
0.96870667
0.9686944
0.96866978
0.9686453
0.9685608
0.96859952
0.96865365
0.96870668
0.96874813
0.96877175
0.96877442
0.96875639
0.96872294
0.96868997
0.96859929
0.96864446
0.96870668
0.96876673
0.96881274
0.96883779
0.96883844
0.96881506
0.96877397
0.96873414
0.96863099
0.96868053
0.96874813
0.96881274
0.9688616
0.96888738
0.96888647
0.96885936
0.96881314
0.96876881
0.96865074
0.96870217
0.96877175
0.96883779
0.96888738
0.96891317
0.96891155
0.96888304
0.96883485
0.96878863
0.96865621
0.96870667
0.96877442
0.96883844
0.96888647
0.96891155
0.96891025
0.96888295
0.96883636
0.96879126
0.96864807
0.9686944
0.96875639
0.96881506
0.96885936
0.96888304
0.96888295
0.96885937
0.96881812
0.96877758
0.96863061
0.96866978
0.96872294
0.96877397
0.96881315
0.96883485
0.96883636
0.96881812
0.96878519
0.96875267
0.9686139
0.9686453
0.96868997
0.96873414
0.96876881
0.96878863
0.96879126
0.96877758
0.96875267
0.96872917
0.96602555
0.96605064
0.96608872
0.96612808
0.96616013
0.96617943
0.9661836
0.96617357
0.96615427
0.96613645
0.96605064
0.96608258
0.96612853
0.9661745
0.96621097
0.96623206
0.96623502
0.96622051
0.96619375
0.96616802
0.96608871
0.96612853
0.96618414
0.96623842
0.96628037
0.96630335
0.96630422
0.9662836
0.96624765
0.96621326
0.96612808
0.9661745
0.96623842
0.96629991
0.9663465
0.96637087
0.96636954
0.9663433
0.96629946
0.96625806
0.96616013
0.96621097
0.96628036
0.9663465
0.96639599
0.96642107
0.9664181
0.96638801
0.96633894
0.96629297
0.96617943
0.96623206
0.96630335
0.96637087
0.96642107
0.96644616
0.96644251
0.96641106
0.9663601
0.96631235
0.9661836
0.96623501
0.96630422
0.96636954
0.9664181
0.96644251
0.96643929
0.96640927
0.96636019
0.96631381
0.96617357
0.96622051
0.9662836
0.9663433
0.96638801
0.96641106
0.96640927
0.96638334
0.96633999
0.96629851
0.96615427
0.96619375
0.96624765
0.96629946
0.96633894
0.9663601
0.96636019
0.96633999
0.96630539
0.96627222
0.96613645
0.96616802
0.96621326
0.96625806
0.96629297
0.96631235
0.96631381
0.96629851
0.96627222
0.96624816
0.96348934
0.96351507
0.96355402
0.96359407
0.96362626
0.96364492
0.96364769
0.96363577
0.9636147
0.96359586
0.96351507
0.96354783
0.96359484
0.96364162
0.96367825
0.96369859
0.9636999
0.96368319
0.96365438
0.96362752
0.96355402
0.96359484
0.96365173
0.963707
0.96374915
0.96377129
0.96377025
0.96374709
0.96370881
0.96367314
0.96359407
0.96364162
0.963707
0.96376961
0.96381646
0.96383992
0.96383652
0.96380749
0.96376111
0.96371831
0.96362626
0.96367825
0.96374915
0.96381646
0.96386624
0.96389038
0.96388525
0.9638523
0.96380061
0.96375323
0.96364492
0.96369859
0.96377129
0.96383992
0.96389038
0.96391453
0.96390876
0.9638745
0.96382103
0.96377199
0.96364769
0.9636999
0.96377025
0.96383652
0.96388525
0.96390876
0.96390355
0.96387095
0.96381962
0.96377219
0.96363577
0.96368319
0.96374709
0.96380749
0.9638523
0.9638745
0.96387095
0.96384276
0.96379756
0.96375533
0.9636147
0.96365438
0.96370881
0.96376111
0.96380061
0.96382103
0.96381962
0.96379756
0.96376146
0.96372778
0.96359586
0.96362752
0.96367314
0.96371832
0.96375324
0.96377199
0.96377219
0.96375533
0.96372778
0.96370326
0.96088897
0.96091528
0.96095496
0.96099551
0.96102764
0.96104552
0.96104681
0.96103303
0.96101028
0.96099048
0.96091528
0.96094879
0.9609967
0.96104408
0.96108065
0.96110007
0.96109967
0.9610808
0.96105007
0.96102217
0.96095496
0.9609967
0.96105469
0.96111068
0.9611528
0.9611739
0.9611709
0.96114528
0.96110483
0.961068
0.96099551
0.96104408
0.96111068
0.96117412
0.96122097
0.96124331
0.96123778
0.96120608
0.96115735
0.96111333
0.96102764
0.96108065
0.9611528
0.96122097
0.96127073
0.96129372
0.9612864
0.9612507
0.96119663
0.96114804
0.96104552
0.96110007
0.9611739
0.96124331
0.96129372
0.96131673
0.96130879
0.96127187
0.96121614
0.96116601
0.96104681
0.96109967
0.9611709
0.96123778
0.9612864
0.96130879
0.96130157
0.96126652
0.9612132
0.96116491
0.96103303
0.9610808
0.96114528
0.96120608
0.9612507
0.96127188
0.96126652
0.9612362
0.96118936
0.96114655
0.96101028
0.96105007
0.96110483
0.96115736
0.96119663
0.96121615
0.96121321
0.96118936
0.96115193
0.96111786
0.96099048
0.96102217
0.961068
0.96111333
0.96114804
0.96116602
0.96116491
0.96114655
0.96111786
0.96109296
0.95822264
0.95824945
0.95828974
0.95833062
0.95836253
0.9583795
0.95837926
0.95836366
0.95833932
0.95831864
0.95824944
0.95828363
0.9583323
0.95838009
0.95841641
0.95843479
0.95843263
0.95841168
0.95837915
0.9583503
0.95828974
0.9583323
0.95839121
0.95844771
0.95848957
0.9585095
0.95850451
0.95847652
0.95843407
0.9583962
0.95833062
0.95838009
0.95844771
0.95851173
0.95855831
0.95857939
0.95857171
0.95853747
0.9584866
0.95844149
0.95836253
0.95841641
0.95848957
0.95855831
0.9586078
0.95862949
0.95861996
0.95858167
0.95852544
0.9584758
0.9583795
0.95843479
0.9585095
0.95857939
0.95862949
0.95865119
0.95864109
0.95860167
0.95854392
0.95849287
0.95837926
0.95843263
0.95850451
0.95857171
0.95861996
0.95864109
0.95863185
0.9585945
0.95853942
0.95849044
0.95836366
0.95841168
0.95847652
0.95853747
0.95858167
0.95860167
0.9585945
0.9585622
0.9585139
0.95847063
0.95833932
0.95837915
0.95843407
0.9584866
0.95852544
0.95854392
0.95853942
0.9585139
0.95847529
0.95844091
0.95831864
0.9583503
0.9583962
0.95844149
0.9584758
0.95849287
0.95849044
0.95847063
0.95844091
0.95841569
0.95548849
0.95551574
0.95555652
0.95559758
0.95562912
0.95564509
0.95564331
0.95562594
0.9556001
0.9555786
0.95551574
0.95555052
0.95559982
0.95564784
0.95568376
0.95570099
0.95569708
0.95567412
0.95563992
0.95561019
0.95555652
0.95559982
0.95565948
0.95571629
0.95575771
0.95577636
0.95576939
0.95573915
0.95569484
0.95565603
0.95559757
0.95564784
0.95571629
0.95578065
0.95582678
0.95584648
0.95583667
0.95580003
0.95574719
0.95570112
0.95562912
0.95568376
0.95575771
0.95582678
0.95587578
0.95589604
0.95588433
0.9558436
0.95578543
0.95573487
0.95564508
0.95570099
0.95577635
0.95584648
0.95589604
0.95591631
0.95590408
0.95586232
0.95580276
0.95575094
0.95564331
0.95569708
0.95576939
0.95583667
0.95588433
0.95590409
0.95589284
0.95585336
0.95579672
0.95574717
0.95562594
0.95567411
0.95573915
0.95580003
0.9558436
0.95586232
0.95585337
0.9558192
0.95576962
0.955726
0.9556001
0.95563992
0.95569484
0.95574719
0.95578543
0.95580277
0.95579672
0.95576962
0.95572996
0.95569534
0.9555786
0.95561019
0.95565604
0.95570112
0.95573488
0.95575095
0.95574717
0.955726
0.95569534
0.95566985
0.95268464
0.95271227
0.95275343
0.95279453
0.95282559
0.95284048
0.95283717
0.95281811
0.95279086
0.95276861
0.95271227
0.95274758
0.95279737
0.95284548
0.95288087
0.95289689
0.95289123
0.95286636
0.95283061
0.95280008
0.95275343
0.95279737
0.95285764
0.95291459
0.95295543
0.95297272
0.95296381
0.95293145
0.95288543
0.95284577
0.95279453
0.95284548
0.95291459
0.9529791
0.9530246
0.95304285
0.95303096
0.95299206
0.95293744
0.95289051
0.95282559
0.95288086
0.95295543
0.9530246
0.95307294
0.9530917
0.95307786
0.95303486
0.95297494
0.95292359
0.95284048
0.95289689
0.95297272
0.95304285
0.9530917
0.95311047
0.95309616
0.95305223
0.95299106
0.95293859
0.95283716
0.95289123
0.95296381
0.95303096
0.95307786
0.95309616
0.95308297
0.95304152
0.9529835
0.95293349
0.95281811
0.95286636
0.95293145
0.95299206
0.95303486
0.95305223
0.95304152
0.95300564
0.95295493
0.95291103
0.95279086
0.95283061
0.95288543
0.95293744
0.95297494
0.95299107
0.9529835
0.95295493
0.95291433
0.95287952
0.95276861
0.95280008
0.95284577
0.95289052
0.95292359
0.95293859
0.95293349
0.95291103
0.95287952
0.95285379
0.94980919
0.94983713
0.94987856
0.9499196
0.94995008
0.94996386
0.94995903
0.94993836
0.9499098
0.94988686
0.94983713
0.94987289
0.94992306
0.94997113
0.95000589
0.95002066
0.9500133
0.94998663
0.94994944
0.94991818
0.94987856
0.94992306
0.94998381
0.95004074
0.95008089
0.95009679
0.95008599
0.95005163
0.95000405
0.94996363
0.94991959
0.94997113
0.95004074
0.95010524
0.95015
0.95016676
0.95015284
0.95011184
0.95005561
0.95000792
0.94995008
0.95000588
0.95008089
0.95015
0.95019754
0.95021476
0.95019887
0.95015376
0.95009226
0.95004022
0.94996386
0.95002066
0.95009679
0.95016676
0.95021476
0.95023199
0.95021568
0.95016974
0.95010714
0.95005411
0.94995903
0.9500133
0.95008598
0.95015284
0.95019887
0.95021568
0.95020061
0.95015734
0.9500981
0.9500477
0.94993836
0.94998663
0.95005163
0.95011185
0.95015376
0.95016974
0.95015734
0.95011986
0.95006815
0.95002403
0.9499098
0.94994944
0.95000405
0.95005561
0.95009226
0.95010714
0.9500981
0.95006815
0.95002671
0.94999174
0.94988686
0.94991818
0.94996363
0.95000792
0.95004022
0.95005411
0.9500477
0.95002403
0.94999174
0.94996581
0.94686019
0.94688837
0.94692999
0.94697086
0.9470007
0.94701334
0.94700704
0.94698485
0.94695507
0.94693149
0.94688837
0.94692451
0.94697496
0.94702289
0.94705693
0.94707044
0.94706145
0.94703309
0.94699457
0.94696264
0.94692999
0.94697496
0.94703606
0.94709287
0.94713225
0.94714674
0.94713412
0.94709792
0.9470489
0.94700778
0.94697086
0.94702289
0.94709287
0.94715722
0.94720115
0.9472164
0.94720056
0.94715761
0.94709991
0.94705154
0.9470007
0.94705693
0.94713224
0.94720115
0.9472478
0.94726346
0.94724561
0.94719856
0.94713565
0.947083
0.94701334
0.94707044
0.94714674
0.9472164
0.94726346
0.94727915
0.94726092
0.94721314
0.94714927
0.94709576
0.94700704
0.94706144
0.94713412
0.94720056
0.94724561
0.94726092
0.94724406
0.94719913
0.9471388
0.94708808
0.94698485
0.94703309
0.94709792
0.94715762
0.94719856
0.94721315
0.94719913
0.94716018
0.94710758
0.94706328
0.94695507
0.94699457
0.9470489
0.94709992
0.94713565
0.94714927
0.9471388
0.94710758
0.94706539
0.94703028
0.94693149
0.94696264
0.94700779
0.94705154
0.947083
0.94709577
0.94708809
0.94706328
0.94703028
0.94700416
0.94383565
0.94386403
0.94390575
0.94394638
0.94397552
0.94398703
0.94397931
0.94395569
0.94392479
0.94390062
0.94386403
0.94390048
0.94395111
0.94399881
0.9440321
0.94404436
0.94403379
0.94400386
0.94396412
0.94393158
0.94390574
0.9439511
0.94401246
0.94406904
0.9441076
0.94412071
0.94410636
0.94406844
0.94401813
0.94397638
0.94394638
0.94399881
0.94406904
0.94413314
0.94417618
0.94418996
0.94417229
0.94412755
0.94406852
0.94401954
0.94397552
0.9440321
0.9441076
0.94417618
0.94422189
0.94423603
0.94421632
0.94416749
0.94410331
0.94405012
0.94398703
0.94404436
0.94412071
0.94418996
0.94423603
0.94425018
0.94423015
0.94418069
0.94411568
0.94406175
0.94397931
0.94403379
0.94410636
0.94417229
0.94421632
0.94423015
0.9442116
0.94416514
0.94410384
0.94405285
0.94395569
0.94400386
0.94406844
0.94412755
0.94416749
0.94418069
0.94416514
0.94412485
0.94407145
0.94402698
0.94392479
0.94396412
0.94401813
0.94406853
0.94410331
0.94411568
0.94410384
0.94407145
0.94402857
0.94399334
0.94390062
0.94393158
0.94397638
0.94401954
0.94405012
0.94406176
0.94405286
0.94402699
0.94399334
0.94396705
0.94073357
0.94076209
0.94080384
0.94084418
0.94087259
0.94088299
0.94087393
0.94084898
0.94081703
0.94079233
0.94076209
0.94079878
0.94084952
0.94089694
0.94092945
0.94094048
0.94092843
0.94089704
0.94085619
0.94082309
0.94080384
0.94084952
0.94091104
0.94096733
0.94100503
0.9410168
0.94100082
0.94096132
0.94090982
0.9408675
0.94084417
0.94089693
0.94096732
0.9410311
0.94107322
0.94108556
0.94106618
0.9410198
0.94095957
0.94091003
0.94087259
0.94092944
0.94100503
0.94107322
0.94111795
0.94113061
0.94110916
0.94105871
0.94099339
0.94093972
0.94088299
0.94094048
0.94101679
0.94108556
0.94113061
0.94114328
0.94112156
0.94107057
0.94100454
0.94095024
0.94087392
0.94092843
0.94100082
0.94106618
0.94110916
0.94112156
0.94110142
0.94105357
0.94099141
0.94094018
0.94084897
0.94089704
0.94096132
0.9410198
0.94105871
0.94107057
0.94105357
0.94101205
0.94095793
0.94091332
0.94081703
0.94085619
0.94090982
0.94095957
0.94099339
0.94100454
0.94099141
0.94095793
0.94091442
0.94087908
0.94079233
0.94082309
0.9408675
0.94091004
0.94093972
0.94095025
0.94094018
0.94091332
0.94087908
0.94085263
0.93755192
0.93758053
0.93762226
0.93766225
0.93768994
0.93769925
0.93768892
0.93766274
0.93762985
0.93760465
0.93758053
0.93761742
0.93766819
0.93771527
0.93774699
0.93775684
0.93774341
0.93771068
0.93766881
0.93763519
0.93762226
0.93766819
0.9377298
0.93778574
0.93782258
0.93783306
0.93781558
0.93777463
0.93772205
0.93767921
0.93766225
0.93771527
0.93778574
0.93784913
0.93789033
0.9379013
0.93788032
0.93783244
0.93777113
0.9377211
0.93768993
0.93774699
0.93782258
0.93789033
0.93793408
0.93794532
0.93792227
0.93787034
0.93780399
0.93774989
0.93769925
0.93775684
0.93783306
0.9379013
0.93794532
0.93795659
0.9379333
0.93788091
0.93781397
0.93775934
0.93768892
0.9377434
0.93781558
0.93788032
0.93792227
0.9379333
0.93791168
0.93786256
0.93779963
0.93774818
0.93766274
0.93771068
0.93777463
0.93783244
0.93787034
0.93788091