/*--------------------------------*- C++ -*----------------------------------*\
| =========                 |                                                 |
| \\      /  F ield         | OpenFOAM: The Open Source CFD Toolbox           |
|  \\    /   O peration     | Version:  dev                                   |
|   \\  /    A nd           | Web:      www.OpenFOAM.org                      |
|    \\/     M anipulation  |                                                 |
\*---------------------------------------------------------------------------*/
FoamFile
{
    version     2.0;
    format      ascii;
    class       surfaceScalarField;
    location    "3";
    object      phi_0;
}
// * * * * * * * * * * * * * * * * * * * * * * * * * * * * * * * * * * * * * //

dimensions      [0 3 -1 0 0 0 0];

internalField   nonuniform List<scalar> 
27900
(
1.8615678e-06
1.8615677e-06
6.2768643e-06
2.0702594e-06
2.0578105e-06
7.7334979e-06
2.1043843e-06
2.0902024e-06
7.8756727e-06
2.1014645e-06
2.101076e-06
7.9018439e-06
2.0823331e-06
2.1074216e-06
7.9117099e-06
2.0498944e-06
2.1115714e-06
7.9208674e-06
1.9871677e-06
2.1157347e-06
7.9469921e-06
1.8703558e-06
2.1142226e-06
8.0025893e-06
1.4947728e-06
2.1043398e-06
8.2712431e-06
1.9317552e-06
9.5630175e-06
2.0578106e-06
2.0702593e-06
7.7334978e-06
2.300508e-06
2.3005079e-06
9.5146051e-06
2.3414695e-06
2.3410787e-06
9.7081623e-06
2.3329629e-06
2.3563189e-06
9.7532638e-06
2.3018489e-06
2.3644491e-06
9.7740867e-06
2.2512921e-06
2.3688888e-06
9.7932395e-06
2.1616716e-06
2.3708153e-06
9.83454e-06
1.9989108e-06
2.3643888e-06
9.9125945e-06
1.5560094e-06
2.3348188e-06
1.0212422e-05
2.1041059e-06
1.1383659e-05
2.0902025e-06
2.1043842e-06
7.8756724e-06
2.3410788e-06
2.3414693e-06
9.7081622e-06
2.3825856e-06
2.3825855e-06
9.9169864e-06
2.370649e-06
2.3978056e-06
9.97045e-06
2.3335347e-06
2.4052934e-06
9.99627e-06
2.2751604e-06
2.4085929e-06
1.001867e-05
2.1753956e-06
2.4080949e-06
1.0062485e-05
2.0018747e-06
2.3985371e-06
1.0139373e-05
1.5477927e-06
2.362028e-06
1.0426873e-05
2.1216038e-06
1.1530295e-05
2.1010761e-06
2.1014644e-06
7.9018435e-06
2.3563191e-06
2.3329628e-06
9.7532635e-06
2.3978057e-06
2.3706489e-06
9.9704499e-06
2.3834953e-06
2.3834952e-06
1.0028621e-05
2.3427033e-06
2.3890298e-06
1.0057056e-05
2.2799783e-06
2.3906968e-06
1.0080621e-05
2.1752658e-06
2.3885838e-06
1.0124224e-05
1.997605e-06
2.3783739e-06
1.0197824e-05
1.5414986e-06
2.3422704e-06
1.0475864e-05
2.1090301e-06
1.1554072e-05
2.1074217e-06
2.0823331e-06
7.9117095e-06
2.3644492e-06
2.3018489e-06
9.7740863e-06
2.4052935e-06
2.3335347e-06
9.9962699e-06
2.3890299e-06
2.3427033e-06
1.0057056e-05
2.3456763e-06
2.3456763e-06
1.0086707e-05
2.280145e-06
2.3456762e-06
1.0110552e-05
2.1725242e-06
2.3427159e-06
1.0153489e-05
1.9928284e-06
2.3335799e-06
1.022449e-05
1.5364121e-06
2.3018521e-06
1.0496834e-05
2.0830652e-06
1.1562377e-05
2.1115714e-06
2.0498945e-06
7.920867e-06
2.3688889e-06
2.2512922e-06
9.7932392e-06
2.408593e-06
2.2751605e-06
1.001867e-05
2.3906969e-06
2.2799783e-06
1.0080621e-05
2.3456762e-06
2.2801451e-06
1.0110552e-05
2.2784784e-06
2.2784785e-06
1.0134396e-05
2.1692261e-06
2.2749151e-06
1.0177053e-05
1.9883949e-06
2.2675208e-06
1.024689e-05
1.5322674e-06
2.2419812e-06
1.0515998e-05
2.043777e-06
1.1571556e-05
2.1157348e-06
1.9871678e-06
7.9469918e-06
2.3708154e-06
2.1616717e-06
9.8345398e-06
2.408095e-06
2.1753957e-06
1.0062485e-05
2.3885838e-06
2.1752659e-06
1.0124224e-05
2.3427159e-06
2.1725243e-06
1.0153489e-05
2.274915e-06
2.1692262e-06
1.0177053e-05
2.1650005e-06
2.1650006e-06
1.0219829e-05
1.9831401e-06
2.1595104e-06
1.0289871e-05
1.526858e-06
2.1410711e-06
1.0557192e-05
1.9713265e-06
1.1599308e-05
2.1142226e-06
1.8703559e-06
8.0025891e-06
2.3643889e-06
1.9989109e-06
9.9125944e-06
2.3985372e-06
2.0018748e-06
1.0139373e-05
2.3783739e-06
1.9976051e-06
1.0197824e-05
2.3335799e-06
1.9928285e-06
1.022449e-05
2.2675207e-06
1.988395e-06
1.0246891e-05
2.1595103e-06
1.9831402e-06
1.0289871e-05
1.9786217e-06
1.9786218e-06
1.0361777e-05
1.5237814e-06
1.9645324e-06
1.0631379e-05
1.8377632e-06
1.1657345e-05
2.1043399e-06
1.4947729e-06
8.2712431e-06
2.3348189e-06
1.5560095e-06
1.0212422e-05
2.3620281e-06
1.5477928e-06
1.0426873e-05
2.3422705e-06
1.5414986e-06
1.0475864e-05
2.3018521e-06
1.5364122e-06
1.0496835e-05
2.2419811e-06
1.5322675e-06
1.0515999e-05
2.141071e-06
1.526858e-06
1.0557192e-05
1.9645323e-06
1.5237815e-06
1.0631379e-05
1.509325e-06
1.509325e-06
1.0910415e-05
1.4253869e-06
1.1921701e-05
1.9317553e-06
9.5630175e-06
2.104106e-06
1.1383659e-05
2.1216039e-06
1.1530295e-05
2.1090301e-06
1.1554072e-05
2.0830652e-06
1.1562377e-05
2.0437769e-06
1.1571556e-05
1.9713264e-06
1.1599309e-05
1.8377631e-06
1.1657345e-05
1.4253868e-06
1.1921701e-05
1.2850774e-05
1.1152753e-06
1.1152752e-06
4.0463139e-06
1.4455659e-06
1.4501131e-06
5.9530943e-06
1.5184093e-06
1.5233193e-06
6.27951e-06
1.5093568e-06
1.548654e-06
6.3622423e-06
1.461218e-06
1.5629797e-06
6.3968689e-06
1.3766272e-06
1.5718092e-06
6.433649e-06
1.2300756e-06
1.5796719e-06
6.5138718e-06
9.5742587e-07
1.5729434e-06
6.7022956e-06
4.5958476e-07
1.5444375e-06
7.2246468e-06
1.241294e-06
8.7813083e-06
1.4501132e-06
1.4455657e-06
5.9530941e-06
1.8892796e-06
1.8892794e-06
8.6362725e-06
1.9879682e-06
1.9938176e-06
9.1389754e-06
1.9652151e-06
2.0335578e-06
9.2911131e-06
1.8824597e-06
2.0542668e-06
9.3655548e-06
1.7435996e-06
2.0652418e-06
9.438667e-06
1.5201185e-06
2.0690752e-06
9.5686179e-06
1.12471e-06
2.0507185e-06
9.8302279e-06
4.926589e-07
1.9715256e-06
1.0417385e-05
1.5206626e-06
1.1596949e-05
1.5233194e-06
1.5184091e-06
6.2795097e-06
1.9938178e-06
1.987968e-06
9.1389752e-06
2.0978982e-06
2.097898e-06
9.7088257e-06
2.0668222e-06
2.1391433e-06
9.8959405e-06
1.967255e-06
2.1589995e-06
9.9911045e-06
1.8055248e-06
2.1674903e-06
1.0078152e-05
1.5540503e-06
2.1654669e-06
1.0217568e-05
1.1292302e-06
2.1386632e-06
1.0476248e-05
4.7538518e-07
2.0400736e-06
1.101217e-05
1.5591556e-06
1.1967187e-05
1.5486542e-06
1.5093567e-06
6.3622418e-06
2.033558e-06
1.965215e-06
9.2911127e-06
2.1391435e-06
2.0668221e-06
9.8959403e-06
2.1023089e-06
2.1023088e-06
1.010229e-05
1.9928137e-06
2.1173812e-06
1.0208169e-05
1.8189798e-06
2.1218135e-06
1.0300132e-05
1.5545235e-06
2.1157716e-06
1.0438375e-05
1.1192734e-06
2.0873011e-06
1.0684436e-05
4.6280263e-07
1.9898953e-06
1.1182513e-05
1.527816e-06
1.2048214e-05
1.5629798e-06
1.4612181e-06
6.3968684e-06
2.054267e-06
1.8824597e-06
9.3655544e-06
2.1589997e-06
1.967255e-06
9.9911042e-06
2.1173813e-06
1.9928137e-06
1.0208169e-05
2.0011185e-06
2.0011186e-06
1.0319233e-05
1.8197488e-06
2.0011418e-06
1.0412593e-05
1.5479285e-06
1.9929197e-06
1.0548161e-05
1.1078415e-06
1.9675169e-06
1.0784361e-05
4.5218729e-07
1.8829386e-06
1.1259445e-05
1.4627524e-06
1.2079628e-05
1.5718094e-06
1.3766273e-06
6.4336484e-06
2.065242e-06
1.7435997e-06
9.4386665e-06
2.1674905e-06
1.8055249e-06
1.0078152e-05
2.1218136e-06
1.81898e-06
1.0300132e-05
2.0011418e-06
1.819749e-06
1.0412593e-05
1.8153621e-06
1.8153622e-06
1.0505955e-05
1.5394802e-06
1.8057232e-06
1.0640132e-05
1.096908e-06
1.7855476e-06
1.0871432e-05
4.4339493e-07
1.7198419e-06
1.1332608e-05
1.3611907e-06
1.2116512e-05
1.5796721e-06
1.2300758e-06
6.5138713e-06
2.0690754e-06
1.5201187e-06
9.5686175e-06
2.1654671e-06
1.5540505e-06
1.0217568e-05
2.1157717e-06
1.5545237e-06
1.0438375e-05
1.9929197e-06
1.5479287e-06
1.0548161e-05
1.805723e-06
1.5394804e-06
1.0640132e-05
1.528386e-06
1.5283861e-06
1.0774503e-05
1.0839199e-06
1.5137177e-06
1.1006167e-05
4.3191765e-07
1.4688162e-06
1.146022e-05
1.1921877e-06
1.2200229e-05
1.5729435e-06
9.5742606e-07
6.7022954e-06
2.0507187e-06
1.1247102e-06
9.8302278e-06
2.1386633e-06
1.1292304e-06
1.0476248e-05
2.0873012e-06
1.1192736e-06
1.0684436e-05
1.9675169e-06
1.1078417e-06
1.0784361e-05
1.7855475e-06
1.0969082e-06
1.0871432e-05
1.5137175e-06
1.0839201e-06
1.1006167e-05
1.0726682e-06
1.0726683e-06
1.1243876e-05
4.2598396e-07
1.0430866e-06
1.1703793e-05
8.8477369e-07
1.2390743e-05
1.5444376e-06
4.5958488e-07
7.2246467e-06
1.9715257e-06
4.9265902e-07
1.0417385e-05
2.0400737e-06
4.7538529e-07
1.101217e-05
1.9898954e-06
4.6280274e-07
1.1182513e-05
1.8829386e-06
4.521874e-07
1.1259446e-05
1.7198418e-06
4.4339504e-07
1.1332609e-05
1.468816e-06
4.3191776e-07
1.1460221e-05
1.0430864e-06
4.2598407e-07
1.1703793e-05
3.9873657e-07
3.9873668e-07
1.2199114e-05
3.3523952e-07
1.2869972e-05
1.2412941e-06
8.7813084e-06
1.5206628e-06
1.1596949e-05
1.5591557e-06
1.1967187e-05
1.5278161e-06
1.2048215e-05
1.4627524e-06
1.2079628e-05
1.3611906e-06
1.2116513e-05
1.1921875e-06
1.2200229e-05
8.8477352e-07
1.2390743e-05
3.3523941e-07
1.2869972e-05
1.3521253e-05
6.861081e-07
6.8610797e-07
2.6740979e-06
1.0047286e-06
1.0316783e-06
4.6027955e-06
1.0907627e-06
1.1249301e-06
5.0685458e-06
1.0749333e-06
1.1592353e-06
5.2188363e-06
1.0041375e-06
1.1784655e-06
5.2891992e-06
8.805613e-07
1.1898632e-06
5.3673619e-06
6.8061643e-07
1.1990856e-06
5.514731e-06
3.4072514e-07
1.1876171e-06
5.8545698e-06
-8.1280646e-08
1.1450715e-06
6.5015811e-06
8.0592489e-07
7.8941029e-06
1.0316785e-06
1.0047284e-06
4.6027954e-06
1.5148686e-06
1.5148684e-06
7.6698922e-06
1.6454266e-06
1.6608951e-06
8.4724524e-06
1.6099665e-06
1.718646e-06
8.7671624e-06
1.4841183e-06
1.7485583e-06
8.9213102e-06
1.2737402e-06
1.7640362e-06
9.074872e-06
9.5584746e-07
1.7684102e-06
9.3171859e-06
4.4558667e-07
1.7400206e-06
9.7880853e-06
-1.1218017e-07
1.6265109e-06
1.0493713e-05
1.0975595e-06
1.1193134e-05
1.1249302e-06
1.0907625e-06
5.0685455e-06
1.6608953e-06
1.6454264e-06
8.4724522e-06
1.8035838e-06
1.8035836e-06
9.4234487e-06
1.7564221e-06
1.8653598e-06
9.7963883e-06
1.6041409e-06
1.8949998e-06
9.9969441e-06
1.3572317e-06
1.9074419e-06
1.0181655e-05
9.9637531e-07
1.9037607e-06
1.0443074e-05
4.4357874e-07
1.8628669e-06
1.0906198e-05
-1.3794241e-07
1.7201946e-06
1.1500007e-05
1.1458019e-06
1.1781002e-05
1.1592354e-06
1.0749332e-06
5.2188358e-06
1.7186462e-06
1.6099664e-06
8.767162e-06
1.86536e-06
1.756422e-06
9.7963881e-06
1.8101245e-06
1.8101244e-06
1.0212761e-05
1.6426486e-06
1.8330117e-06
1.0437633e-05
1.3769622e-06
1.8396674e-06
1.0633593e-05
9.9675533e-07
1.8302692e-06
1.0892074e-05
4.2942302e-07
1.7870486e-06
1.1327587e-05
-1.5396331e-07
1.6465792e-06
1.1839515e-05
1.1006797e-06
1.1939373e-05
1.1784656e-06
1.0041375e-06
5.2891986e-06
1.7485585e-06
1.4841183e-06
8.9213097e-06
1.895e-06
1.6041409e-06
9.9969438e-06
1.8330119e-06
1.6426486e-06
1.0437633e-05
1.6553692e-06
1.6553692e-06
1.0674518e-05
1.3782749e-06
1.6554331e-06
1.0873922e-05
9.8736591e-07
1.6428961e-06
1.1126443e-05
4.1357805e-07
1.6046967e-06
1.1540501e-05
-1.6755537e-07
1.4851235e-06
1.2002035e-05
1.0059122e-06
1.200684e-05
1.1898633e-06
8.8056142e-07
5.3673613e-06
1.7640364e-06
1.2737403e-06
9.0748715e-06
1.9074421e-06
1.3572319e-06
1.0181655e-05
1.8396675e-06
1.3769624e-06
1.0633593e-05
1.6554331e-06
1.378275e-06
1.0873922e-05
1.3717427e-06
1.3717428e-06
1.1073335e-05
9.7503383e-07
1.3572949e-06
1.1322442e-05
3.9818635e-07
1.3276711e-06
1.1725305e-05
-1.7894655e-07
1.2390689e-06
1.2155796e-05
8.5829195e-07
1.2085186e-05
1.1990858e-06
6.8061662e-07
5.5147305e-06
1.7684104e-06
9.5584766e-07
9.3171856e-06
1.9037609e-06
9.9637551e-07
1.0443074e-05
1.8302693e-06
9.9675552e-07
1.0892074e-05
1.6428961e-06
9.873661e-07
1.1126443e-05
1.3572948e-06
9.7503402e-07
1.1322442e-05
9.5877617e-07
9.5877637e-07
1.157154e-05
3.7997696e-07
9.3801711e-07
1.197462e-05
-1.9379218e-07
8.8279962e-07
1.2390259e-05
6.2880755e-07
1.2235921e-05
1.1876172e-06
3.4072533e-07
5.8545695e-06
1.7400208e-06
4.4558686e-07
9.7880851e-06
1.8628671e-06
4.4357893e-07
1.0906198e-05
1.7870487e-06
4.294232e-07
1.1327587e-05
1.6046967e-06
4.1357823e-07
1.1540501e-05
1.327671e-06
3.9818654e-07
1.1725305e-05
9.3801691e-07
3.7997715e-07
1.197462e-05
3.6511929e-07
3.6511948e-07
1.2389671e-05
-2.0055474e-07
3.352042e-07
1.2817062e-05
2.5043735e-07
1.2568558e-05
1.1450716e-06
-8.128053e-08
6.5015811e-06
1.6265111e-06
-1.1218005e-07
1.0493713e-05
1.7201948e-06
-1.3794229e-07
1.1500008e-05
1.6465793e-06
-1.539632e-07
1.1839515e-05
1.4851234e-06
-1.6755526e-07
1.2002035e-05
1.2390688e-06
-1.7894645e-07
1.2155796e-05
8.8279944e-07
-1.9379207e-07
1.2390259e-05
3.3520402e-07
-2.0055463e-07
1.2817062e-05
-2.2538973e-07
-2.2538961e-07
1.3320302e-05
-2.0012484e-07
1.3095145e-05
8.05925e-07
7.8941029e-06
1.0975596e-06
1.1193134e-05
1.145802e-06
1.1781003e-05
1.1006798e-06
1.1939374e-05
1.0059121e-06
1.2006841e-05
8.5829184e-07
1.2085187e-05
6.2880738e-07
1.2235922e-05
2.5043717e-07
1.2568558e-05
-2.0012495e-07
1.3095145e-05
1.3121003e-05
4.269967e-07
4.2699657e-07
1.8201048e-06
6.9642003e-07
7.3322188e-07
3.6001504e-06
7.7672623e-07
8.3198067e-07
4.1562589e-06
7.5302261e-07
8.7096699e-07
4.3715728e-06
6.6495911e-07
8.9292426e-07
4.4843383e-06
5.154795e-07
9.0561837e-07
4.6112229e-06
2.8779968e-07
9.1518898e-07
4.8272217e-06
-5.2080495e-08
9.0075763e-07
5.2936924e-06
-3.6733581e-07
8.5132508e-07
5.9655115e-06
5.2669242e-07
7.0000748e-06
7.3322203e-07
6.9641981e-07
3.6001503e-06
1.1909594e-06
1.1909592e-06
6.7544177e-06
1.327287e-06
1.3569969e-06
7.8111084e-06
1.2787533e-06
1.4261434e-06
8.2605196e-06
1.1182093e-06
1.4621429e-06
8.5126353e-06
8.5569462e-07
1.4804523e-06
8.7625525e-06
4.8146762e-07
1.4846876e-06
9.1219142e-06
-4.6528118e-08
1.4492701e-06
9.7675686e-06
-4.6572312e-07
1.3179028e-06
1.044633e-05
7.929548e-07
1.0461149e-05
8.3198082e-07
7.7672603e-07
4.1562587e-06
1.3569971e-06
1.3272868e-06
7.8111083e-06
1.5116113e-06
1.5116111e-06
9.1142204e-06
1.4488924e-06
1.5874726e-06
9.6977778e-06
1.2536564e-06
1.6241745e-06
1.0030148e-05
9.43129e-07
1.6394413e-06
1.0333194e-05
5.1459088e-07
1.6343989e-06
1.07219e-05
-6.2622112e-08
1.5837456e-06
1.1348936e-05
-5.00983e-07
1.4168129e-06
1.1839458e-05
8.3896534e-07
1.1234009e-05
8.7096714e-07
7.5302251e-07
4.3715724e-06
1.4261437e-06
1.2787532e-06
8.2605193e-06
1.5874728e-06
1.4488923e-06
9.6977776e-06
1.5151272e-06
1.515127e-06
1.0357452e-05
1.3003893e-06
1.5437868e-06
1.0732758e-05
9.6564999e-07
1.552131e-06
1.1055642e-05
5.1306531e-07
1.5403019e-06
1.1438755e-05
-8.0608179e-08
1.4870838e-06
1.2017922e-05
-5.1912486e-07
1.3238693e-06
1.2370975e-05
7.8310336e-07
1.1476111e-05
8.9292441e-07
6.6495913e-07
4.4843378e-06
1.4621432e-06
1.1182093e-06
8.5126349e-06
1.6241747e-06
1.2536564e-06
1.0030148e-05
1.5437869e-06
1.3003893e-06
1.0732758e-05
1.3162405e-06
1.3162405e-06
1.112961e-05
9.6708243e-07
1.3163539e-06
1.1458857e-05
5.0145658e-07
1.3007976e-06
1.1831573e-05
-9.9254142e-08
1.2545123e-06
1.2373783e-05
-5.3408581e-07
1.1196046e-06
1.2641131e-05
6.6662717e-07
1.1589231e-05
9.0561852e-07
5.1547964e-07
4.6112225e-06
1.4804526e-06
8.5569477e-07
8.7625522e-06
1.6394415e-06
9.4312915e-07
1.0333193e-05
1.5521311e-06
9.6565014e-07
1.1055642e-05
1.3163539e-06
9.6708257e-07
1.1458857e-05
9.5895509e-07
9.5895524e-07
1.1788133e-05
4.8637724e-07
9.4125637e-07
1.2154561e-05
-1.1739425e-07
9.0657215e-07
1.2677016e-05
-5.4670975e-07
8.1326045e-07
1.2891455e-05
4.8863836e-07
1.1716465e-05
9.1518912e-07
2.8779989e-07
4.8272214e-06
1.4846878e-06
4.8146785e-07
9.121914e-06
1.6343991e-06
5.1459111e-07
1.07219e-05
1.5403021e-06
5.1306554e-07
1.1438755e-05
1.3007975e-06
5.0145679e-07
1.1831573e-05
9.4125623e-07
4.8637746e-07
1.2154561e-05
4.6681334e-07
4.6681356e-07
1.2520426e-05
-1.3856311e-07
4.43857e-07
1.3042711e-05
-5.6311409e-07
3.9428274e-07
1.3233788e-05
2.2849095e-07
1.1932955e-05
9.0075777e-07
-5.2080288e-08
5.2936921e-06
1.4492703e-06
-4.6527901e-08
9.7675684e-06
1.5837458e-06
-6.2621896e-08
1.1348936e-05
1.4870839e-06
-8.0607969e-08
1.2017922e-05
1.2545123e-06
-9.9253934e-08
1.2373783e-05
9.0657201e-07
-1.1739404e-07
1.2677017e-05
4.4385678e-07
-1.385629e-07
1.3042712e-05
-1.5373553e-07
-1.5373531e-07
1.3584856e-05
-5.6931982e-07
-1.7154073e-07
1.379847e-05
-1.4628201e-07
1.2374011e-05
8.5132521e-07
-3.6733569e-07
5.9655114e-06
1.317903e-06
-4.6572299e-07
1.044633e-05
1.4168131e-06
-5.0098287e-07
1.1839458e-05
1.3238694e-06
-5.1912474e-07
1.2370976e-05
1.1196046e-06
-5.3408569e-07
1.2641131e-05
8.1326032e-07
-5.4670963e-07
1.2891456e-05
3.9428253e-07
-5.6311396e-07
1.3233788e-05
-1.7154093e-07
-5.6931969e-07
1.379847e-05
-5.8309069e-07
-5.8309056e-07
1.4143402e-05
-4.661397e-07
1.2831912e-05
5.2669254e-07
7.0000748e-06
7.9295498e-07
1.0461149e-05
8.3896551e-07
1.1234009e-05
7.8310346e-07
1.1476111e-05
6.6662716e-07
1.1589231e-05
4.8863824e-07
1.1716466e-05
2.2849076e-07
1.1932955e-05
-1.462822e-07
1.2374012e-05
-4.6613982e-07
1.2831912e-05
1.2188723e-05
2.6631828e-07
2.6631812e-07
1.2874686e-06
4.7868704e-07
5.1784079e-07
2.869941e-06
5.4416241e-07
6.1244229e-07
3.4783412e-06
5.1189816e-07
6.525992e-07
3.7512377e-06
4.1148373e-07
6.7556525e-07
3.9091872e-06
2.4751075e-07
6.8865817e-07
4.0865376e-06
1.2804278e-08
6.9809217e-07
4.3638359e-06
-2.9127607e-07
6.8249184e-07
4.9152809e-06
-4.989696e-07
6.328585e-07
5.5403467e-06
3.4745086e-07
6.1536545e-06
5.1784096e-07
4.786868e-07
2.8699409e-06
9.1623234e-07
9.1623208e-07
5.9576352e-06
1.0403952e-06
1.084824e-06
7.2145638e-06
9.7779919e-07
1.1592207e-06
7.8164939e-06
7.9090485e-07
1.1985245e-06
8.1765702e-06
4.9510082e-07
1.2183585e-06
8.528656e-06
9.8356629e-08
1.2223475e-06
8.9944029e-06
-3.8795585e-07
1.1834873e-06
9.7528856e-06
-6.5256024e-07
1.0488591e-06
1.0294934e-05
5.7223239e-07
9.5838073e-06
6.1244247e-07
5.4416218e-07
3.4783411e-06
1.0848243e-06
1.040395e-06
7.2145637e-06
1.2312051e-06
1.2312049e-06
8.8214586e-06
1.1522434e-06
1.314494e-06
9.621466e-06
9.2386531e-07
1.3555265e-06
1.0101524e-05
5.7119295e-07
1.3726347e-06
1.053159e-05
1.1288676e-07
1.3668874e-06
1.1035667e-05
-4.234972e-07
1.311363e-06
1.1757444e-05
-6.9763665e-07
1.1382883e-06
1.2024169e-05
6.0890985e-07
1.0499695e-05
6.5259937e-07
5.1189803e-07
3.7512375e-06
1.159221e-06
9.7779905e-07
7.8164937e-06
1.3144942e-06
1.1522433e-06
9.6214659e-06
1.2248119e-06
1.2248118e-06
1.0536816e-05
9.7353993e-07
1.2570154e-06
1.1082541e-05
5.9252435e-07
1.2665522e-06
1.154274e-05
1.0717462e-07
1.2534995e-06
1.2037493e-05
-4.4581523e-07
1.1956267e-06
1.2686648e-05
-7.1740896e-07
1.0283802e-06
1.2752477e-05
5.4415281e-07
1.0823459e-05
6.7556542e-07
4.1148375e-07
3.909187e-06
1.1985247e-06
7.9090487e-07
8.17657e-06
1.3555268e-06
9.2386533e-07
1.0101524e-05
1.2570155e-06
9.7353995e-07
1.1082541e-05
9.9098222e-07
9.9098224e-07
1.1661676e-05
5.9335881e-07
9.911444e-07
1.2131888e-05
9.3542878e-08
9.7409711e-07
1.2610791e-05
-4.66372e-07
9.2496242e-07
1.3204362e-05
-7.3286748e-07
7.9249387e-07
1.3143513e-05
4.1288437e-07
1.0987632e-05
6.8865834e-07
2.4751091e-07
4.0865373e-06
1.2183588e-06
4.9510099e-07
8.5286558e-06
1.372635e-06
5.7119312e-07
1.0531589e-05
1.2665523e-06
5.9252452e-07
1.154274e-05
9.9114438e-07
5.9335898e-07
1.2131888e-05
5.8412931e-07
5.8412948e-07
1.2602162e-05
7.6694413e-08
5.6489398e-07
1.3071199e-05
-4.8602565e-07
5.2988969e-07
1.3634809e-05
-7.4587788e-07
4.4755014e-07
1.3496251e-05
2.1794238e-07
1.116553e-05
6.9809234e-07
1.2804519e-08
4.3638357e-06
1.2223478e-06
9.8356889e-08
8.9944027e-06
1.3668877e-06
1.1288702e-07
1.1035666e-05
1.2534996e-06
1.0717488e-07
1.2037493e-05
9.7409709e-07
9.3543135e-08
1.2610791e-05
5.6489381e-07
7.6694671e-08
1.3071199e-05
5.5676171e-08
5.5676431e-08
1.3538861e-05
-5.0833006e-07
3.4487161e-08
1.410212e-05
-7.6264039e-07
3.1136091e-09
1.3932535e-05
-4.9660113e-08
1.1437917e-05
6.82492e-07
-2.9127583e-07
4.9152807e-06
1.1834876e-06
-3.879556e-07
9.7528855e-06
1.3113633e-06
-4.2349695e-07
1.1757444e-05
1.1956268e-06
-4.4581498e-07
1.2686649e-05
9.2496241e-07
-4.6637175e-07
1.3204362e-05
5.2988953e-07
-4.860254e-07
1.3634809e-05
3.4486903e-08
-5.0832981e-07
1.410212e-05
-5.2100532e-07
-5.2100507e-07
1.469584e-05
-7.6720702e-07
-5.1888466e-07
1.456667e-05
-3.8330532e-07
1.194045e-05
6.3285866e-07
-4.9896945e-07
5.5403466e-06
1.0488594e-06
-6.5256009e-07
1.0294934e-05
1.1382886e-06
-6.9763651e-07
1.2024169e-05
1.0283803e-06
-7.1740882e-07
1.2752478e-05
7.9249386e-07
-7.3286734e-07
1.3143513e-05
4.4754998e-07
-7.4587774e-07
1.3496252e-05
3.1133625e-09
-7.6264024e-07
1.3932535e-05
-5.1888491e-07
-7.6720687e-07
1.456667e-05
-7.6692081e-07
-7.6692066e-07
1.4639474e-05
-5.7964577e-07
1.2261331e-05
3.47451e-07
6.1536545e-06
5.722326e-07
9.5838074e-06
6.0891006e-07
1.0499695e-05
5.4415293e-07
1.0823459e-05
4.1288436e-07
1.0987632e-05
2.1794224e-07
1.116553e-05
-4.9660335e-08
1.1437917e-05
-3.8330555e-07
1.194045e-05
-5.7964591e-07
1.2261332e-05
1.1029432e-05
1.6483569e-07
1.6483551e-07
9.5779759e-07
3.2319603e-07
3.6111171e-07
2.350469e-06
3.7024284e-07
4.4578382e-07
2.9855106e-06
3.2947211e-07
4.84451e-07
3.3075573e-06
2.2116555e-07
5.0710949e-07
3.5103841e-06
5.2244455e-08
5.1998836e-07
3.7354701e-06
-1.7442126e-07
5.2913171e-07
4.0613698e-06
-4.2650065e-07
5.1399328e-07
4.653367e-06
-5.3862159e-07
4.692088e-07
5.1832589e-06
2.3192318e-07
5.3831099e-06
3.611119e-07
3.2319576e-07
2.350469e-06
6.8651958e-07
6.8651928e-07
5.30682e-06
7.8721169e-07
8.4489149e-07
6.714764e-06
7.0998369e-07
9.1924016e-07
7.4589326e-06
5.0475125e-07
9.5944276e-07
7.9294691e-06
1.9280855e-07
9.7980499e-07
8.3807818e-06
-1.9926593e-07
9.8380353e-07
8.9318055e-06
-6.1176238e-07
9.4506912e-07
9.7343062e-06
-7.3021309e-07
8.1856164e-07
1.0064032e-05
4.1105545e-07
8.6744622e-06
4.4578401e-07
3.7024258e-07
2.9855105e-06
8.4489179e-07
7.8721141e-07
6.7147639e-06
9.6884173e-07
9.6884144e-07
8.5735587e-06
8.7297703e-07
1.053314e-06
9.5832566e-06
6.2096626e-07
1.0960771e-06
1.02169e-05
2.4614232e-07
1.1141982e-06
1.077202e-05
-2.105958e-07
1.1086319e-06
1.1367576e-05
-6.6881856e-07
1.0530894e-06
1.2107646e-05
-7.8412086e-07
8.8861319e-07
1.206942e-05
4.3466781e-07
9.6919621e-06
4.844512e-07
3.2947198e-07
3.3075572e-06
9.1924046e-07
7.0998354e-07
7.4589325e-06
1.0533143e-06
8.7297687e-07
9.5832566e-06
9.4583841e-07
9.4583824e-07
1.0751768e-05
6.6839278e-07
9.7932474e-07
1.1476739e-05
2.6241433e-07
9.8961049e-07
1.2073306e-05
-2.2270238e-07
9.7669449e-07
1.2654547e-05
-6.9593955e-07
9.1947338e-07
1.3293502e-05
-8.0521969e-07
7.6352261e-07
1.2986848e-05
3.624187e-07
1.0090489e-05
5.0710968e-07
2.2116557e-07
3.510384e-06
9.5944306e-07
5.0475128e-07
7.929469e-06
1.0960774e-06
6.2096629e-07
1.02169e-05
9.793249e-07
6.683928e-07
1.1476739e-05
6.8577496e-07
6.8577498e-07
1.2248776e-05
2.6176693e-07
6.8597628e-07
1.285953e-05
-2.3842158e-07
6.6906019e-07
1.3418614e-05
-7.1779799e-07
6.2220385e-07
1.3981008e-05
-8.2062122e-07
5.0635242e-07
1.3503507e-05
2.2224724e-07
1.0307182e-05
5.1998855e-07
5.2244631e-08
3.73547e-06
9.7980529e-07
1.9280874e-07
8.3807817e-06
1.1141985e-06
2.4614251e-07
1.077202e-05
9.8961065e-07
2.6241453e-07
1.2073306e-05
6.8597626e-07
2.6176713e-07
1.285953e-05
2.5185831e-07
2.518585e-07
1.3470398e-05
-2.5623852e-07
2.3281035e-07
1.4015545e-05
-7.3796102e-07
2.0196657e-07
1.4536769e-05
-8.3341717e-07
1.4228295e-07
1.3955777e-05
2.1330222e-08
1.053303e-05
5.2913189e-07
-1.7442099e-07
4.0613697e-06
9.8380382e-07
-1.9926564e-07
8.9318053e-06
1.1086322e-06
-2.105955e-07
1.1367576e-05
9.7669465e-07
-2.2270209e-07
1.2654547e-05
6.6906017e-07
-2.3842129e-07
1.3418614e-05
2.3281016e-07
-2.5623823e-07
1.4015545e-05
-2.7700791e-07
-2.7700762e-07
1.4558497e-05
-7.5985167e-07
-2.9297413e-07
1.5079905e-05
-8.4964264e-07
-2.9822389e-07
1.4462833e-05
-2.3718817e-07
1.0846793e-05
5.1399346e-07
-4.2650038e-07
4.6533669e-06
9.450694e-07
-6.1176209e-07
9.7343061e-06
1.0530897e-06
-6.6881828e-07
1.2107646e-05
9.1947354e-07
-6.9593927e-07
1.3293502e-05
6.2220383e-07
-7.1779772e-07
1.3981008e-05
2.0196638e-07
-7.3796074e-07
1.4536769e-05
-2.9297442e-07
-7.5985139e-07
1.5079905e-05
-7.6783745e-07
-7.6783717e-07
1.5645566e-05
-8.5190533e-07
-7.4233166e-07
1.5094846e-05
-5.1345376e-07
1.136481e-05
4.6920897e-07
-5.3862142e-07
5.1832589e-06
8.1856191e-07
-7.3021292e-07
1.0064032e-05
8.8861345e-07
-7.8412069e-07
1.206942e-05
7.6352276e-07
-8.0521953e-07
1.2986848e-05
5.063524e-07
-8.2062105e-07
1.3503507e-05
1.4228278e-07
-8.3341701e-07
1.3955777e-05
-2.9822416e-07
-8.4964247e-07
1.4462833e-05
-7.4233193e-07
-8.5190516e-07
1.5094846e-05
-8.3784418e-07
-8.3784402e-07
1.4830499e-05
-6.056072e-07
1.1515641e-05
2.3192333e-07
5.3831099e-06
4.1105569e-07
8.6744622e-06
4.3466804e-07
9.6919621e-06
3.6241884e-07
1.0090489e-05
2.2224723e-07
1.0307183e-05
2.1330066e-08
1.053303e-05
-2.3718842e-07
1.0846793e-05
-5.1345401e-07
1.136481e-05
-6.0560736e-07
1.1515641e-05
9.8182175e-06
9.9468688e-08
9.9468498e-08
7.5886059e-07
2.1090806e-07
2.461022e-07
1.9929276e-06
2.3894403e-07
3.1795084e-07
2.6395237e-06
1.9037318e-07
3.5328272e-07
3.0028453e-06
7.8158366e-08
3.7467773e-07
3.247921e-06
-8.8075016e-08
3.869526e-07
3.5147507e-06
-2.9630222e-07
3.9583997e-07
3.873757e-06
-4.9149178e-07
3.8252763e-07
4.4660289e-06
-5.2565187e-07
3.457686e-07
4.8716505e-06
1.5678947e-07
4.7006688e-06
2.461024e-07
2.1090777e-07
1.9929276e-06
4.9666793e-07
4.9666761e-07
4.8056892e-06
5.676733e-07
6.3644626e-07
6.3252631e-06
4.760328e-07
7.0651712e-07
7.1973385e-06
2.5992132e-07
7.4563384e-07
7.7746243e-06
-5.3462527e-08
7.6579425e-07
8.3153238e-06
-4.206073e-07
7.7025006e-07
8.92454e-06
-7.4488487e-07
7.3478496e-07
9.7063264e-06
-7.3852037e-07
6.2429717e-07
9.7791393e-06
2.9245255e-07
7.8002789e-06
3.1795105e-07
2.3894376e-07
2.6395238e-06
6.3644659e-07
5.67673e-07
6.3252632e-06
7.2887253e-07
7.2887222e-07
8.3887068e-06
6.1604397e-07
8.0914985e-07
9.5934523e-06
3.493273e-07
8.5130514e-07
1.0377945e-05
-3.0122187e-08
8.6976774e-07
1.1047496e-05
-4.6119934e-07
8.6535767e-07
1.1703546e-05
-8.229644e-07
8.1415037e-07
1.2390046e-05
-7.9948812e-07
6.6909326e-07
1.2001147e-05
3.0151584e-07
8.8834109e-06
3.5328293e-07
1.9037303e-07
3.0028453e-06
7.0651745e-07
4.7603263e-07
7.1973385e-06
8.0915017e-07
6.1604379e-07
9.5934523e-06
6.8383628e-07
6.838361e-07
1.1002395e-05
3.8991639e-07
7.164671e-07
1.1905497e-05
-2.2223245e-08
7.2711968e-07
1.2628093e-05
-4.8146425e-07
7.1571517e-07
1.326343e-05
-8.5527959e-07
6.6392012e-07
1.3817547e-05
-8.2171841e-07
5.3057845e-07
1.3091802e-05
2.2306516e-07
9.3472212e-06
3.7467794e-07
7.8158391e-08
3.247921e-06
7.4563416e-07
2.5992134e-07
7.7746242e-06
8.5130546e-07
3.4932732e-07
1.0377945e-05
7.1646728e-07
3.8991641e-07
1.1905497e-05
4.0562408e-07
4.056241e-07
1.2870462e-05
-2.5267996e-08
4.0584791e-07
1.3611693e-05
-4.9946384e-07
3.9063657e-07
1.4217888e-05
-8.7814315e-07
3.5058888e-07
1.4673019e-05
-8.3676393e-07
2.6139113e-07
1.3731315e-05
7.8928035e-08
9.6145558e-06
3.869528e-07
-8.8074827e-08
3.5147507e-06
7.6579457e-07
-5.3462323e-08
8.3153238e-06
8.6976805e-07
-3.0121979e-08
1.1047496e-05
7.2711985e-07
-2.2223039e-08
1.2628093e-05
4.058479e-07
-2.5267792e-08
1.3611693e-05
-3.5503134e-08
-3.550293e-08
1.4353099e-05
-5.1760437e-07
-5.2760439e-08
1.4941043e-05
-8.9810947e-07
-7.5657898e-08
1.5343521e-05
-8.489657e-07
-1.0528368e-07
1.4273309e-05
-1.1935263e-07
9.882345e-06
3.9584017e-07
-2.9630193e-07
3.8737569e-06
7.7025038e-07
-4.2060699e-07
8.92454e-06
8.6535797e-07
-4.6119902e-07
1.1703546e-05
7.1571535e-07
-4.8146393e-07
1.326343e-05
3.9063655e-07
-4.9946353e-07
1.4217888e-05
-5.2760643e-08
-5.1760406e-07
1.4941043e-05
-5.3663223e-07
-5.3663191e-07
1.552624e-05
-9.1839844e-07
-5.4467006e-07
1.5930683e-05
-8.6405887e-07
-5.1993092e-07
1.482314e-05
-3.5783261e-07
1.0221215e-05
3.8252783e-07
-4.9149149e-07
4.4660289e-06
7.3478527e-07
-7.4488456e-07
9.7063264e-06
8.1415067e-07
-8.2296409e-07
1.2390046e-05
6.6392029e-07
-8.5527928e-07
1.3817547e-05
3.5058886e-07
-8.7814284e-07
1.4673019e-05
-7.5658098e-08
-8.9810917e-07
1.5343521e-05
-5.4467037e-07
-9.1839813e-07
1.5930683e-05
-9.2028459e-07
-9.2028428e-07
1.6396795e-05
-8.6375242e-07
-8.7141036e-07
1.5389793e-05
-5.7263808e-07
1.0715864e-05
3.4576878e-07
-5.2565169e-07
4.8716505e-06
6.2429747e-07
-7.3852018e-07
9.7791392e-06
6.6909355e-07
-7.9948794e-07
1.2001147e-05
5.3057862e-07
-8.2171823e-07
1.3091802e-05
2.6139112e-07
-8.3676375e-07
1.3731315e-05
-1.0528387e-07
-8.4896552e-07
1.4273309e-05
-5.1993122e-07
-8.6405868e-07
1.482314e-05
-8.7141066e-07
-8.6375223e-07
1.5389793e-05
-8.3794705e-07
-8.3794686e-07
1.4763572e-05
-5.8311552e-07
1.0688172e-05
1.5678964e-07
4.7006687e-06
2.9245281e-07
7.8002789e-06
3.0151609e-07
8.8834109e-06
2.2306531e-07
9.3472212e-06
7.8928023e-08
9.6145559e-06
-1.193528e-07
9.8823451e-06
-3.5783288e-07
1.0221215e-05
-5.7263836e-07
1.0715864e-05
-5.831157e-07
1.0688172e-05
8.6519864e-06
5.6355702e-08
5.63555e-08
6.4614957e-07
1.2891939e-07
1.6100778e-07
1.7593562e-06
1.3906652e-07
2.1912892e-07
2.4102477e-06
8.3877638e-08
2.499874e-07
2.8080466e-06
-2.8775112e-08
2.6947525e-07
3.0910983e-06
-1.8653944e-07
2.8092375e-07
3.3915911e-06
-3.6998258e-07
2.8967735e-07
3.7675227e-06
-5.1014858e-07
2.7919319e-07
4.3270018e-06
-4.8485472e-07
2.5202249e-07
4.5943343e-06
1.0729501e-07
4.1085192e-06
1.61008e-07
1.2891907e-07
1.7593562e-06
3.4133965e-07
3.4133932e-07
4.4450261e-06
3.8029842e-07
4.5784757e-07
6.0475857e-06
2.7530811e-07
5.2054852e-07
7.0317676e-06
5.5038636e-08
5.5703639e-07
7.7073324e-06
-2.478925e-07
5.7648917e-07
8.3226893e-06
-5.7636863e-07
5.8190624e-07
8.9607871e-06
-8.1023751e-07
5.5219656e-07
9.667192e-06
-7.0515139e-07
4.6245302e-07
9.4636228e-06
2.0454406e-07
6.9978787e-06
2.1912914e-07
1.3906623e-07
2.4102477e-06
4.5784792e-07
3.802981e-07
6.0475857e-06
5.1394452e-07
5.1394419e-07
8.2765135e-06
3.8491426e-07
5.8577765e-07
9.6572533e-06
1.1160424e-07
6.2535058e-07
1.0582941e-05
-2.5793432e-07
6.4363429e-07
1.1349889e-05
-6.463809e-07
6.4131923e-07
1.2032579e-05
-9.0695538e-07
5.9799522e-07
1.2604822e-05
-7.710446e-07
4.7938555e-07
1.1848304e-05
1.9910485e-07
8.1178058e-06
2.4998763e-07
8.3877477e-08
2.8080467e-06
5.2054887e-07
2.7530793e-07
7.0317676e-06
5.8577798e-07
3.8491407e-07
9.6572533e-06
4.432935e-07
4.4329331e-07
1.1287364e-05
1.4169864e-07
4.7318607e-07
1.2359256e-05
-2.6087476e-07
4.838898e-07
1.3190411e-05
-6.759288e-07
4.752602e-07
1.3844543e-05
-9.4456739e-07
4.3279733e-07
1.4251384e-05
-7.9422688e-07
3.2942715e-07
1.309142e-05
1.157657e-07
8.6363337e-06
2.6947547e-07
-2.8775088e-08
3.0910984e-06