/*--------------------------------*- C++ -*----------------------------------*\
| =========                 |                                                 |
| \\      /  F ield         | OpenFOAM: The Open Source CFD Toolbox           |
|  \\    /   O peration     | Version:  dev                                   |
|   \\  /    A nd           | Web:      www.OpenFOAM.org                      |
|    \\/     M anipulation  |                                                 |
\*---------------------------------------------------------------------------*/
FoamFile
{
    version     2.0;
    format      ascii;
    class       volVectorField;
    location    "3";
    object      U;
}
// * * * * * * * * * * * * * * * * * * * * * * * * * * * * * * * * * * * * * //

dimensions      [0 1 -1 0 0 0 0];

internalField   nonuniform List<vector> 
10000
(
(0.069651431 0.069651431 0.078660548)
(0.078823283 0.076121251 0.087571712)
(0.082505727 0.076882811 0.088116654)
(0.082682496 0.077076363 0.088136136)
(0.082198739 0.077201254 0.088149849)
(0.081265928 0.077282075 0.088150365)
(0.079375692 0.077392583 0.088225205)
(0.076872407 0.077320069 0.088237901)
(0.065137959 0.077376358 0.089630393)
(0.062474083 0.072578513 0.09458559)
(0.07612125 0.078823284 0.087571712)
(0.08748872 0.087488721 0.09844659)
(0.091900324 0.089058964 0.099169898)
(0.091957791 0.089640491 0.099235969)
(0.091105849 0.089963025 0.099281862)
(0.089608523 0.090162928 0.099307337)
(0.086819664 0.090310714 0.099428504)
(0.083135716 0.090187303 0.099481844)
(0.068685464 0.089278914 0.10102773)
(0.06427147 0.080696876 0.10533104)
(0.076882811 0.082505728 0.088116653)
(0.089058964 0.091900325 0.099169898)
(0.093562673 0.093562674 0.099898464)
(0.0935368 0.094188465 0.099973682)
(0.092487514 0.094510012 0.10002542)
(0.090721745 0.094667895 0.10005276)
(0.087561343 0.094689678 0.10017749)
(0.083489564 0.094347586 0.10022061)
(0.068472924 0.092967434 0.10175388)
(0.064034523 0.083456371 0.10586937)
(0.077076362 0.082682497 0.088136135)
(0.08964049 0.091957791 0.099235968)
(0.094188464 0.0935368 0.099973682)
(0.094105607 0.094105608 0.10005591)
(0.092928171 0.094370698 0.10011143)
(0.091003277 0.094471075 0.10014018)
(0.087649101 0.09441337 0.10026576)
(0.0833968 0.094006756 0.10030315)
(0.06820308 0.092532518 0.10182535)
(0.063904277 0.083143195 0.10588039)
(0.077201254 0.082198739 0.088149848)
(0.089963024 0.09110585 0.099281861)
(0.094510011 0.092487514 0.10002542)
(0.094370697 0.092928171 0.10011143)
(0.0930986 0.093098601 0.10016828)
(0.091067022 0.093131179 0.10019689)
(0.08759376 0.09302706 0.10032166)
(0.083240524 0.092636599 0.10035387)
(0.067972646 0.091280393 0.10186927)
(0.063792675 0.082351991 0.10588944)
(0.077282075 0.081265927 0.088150365)
(0.090162927 0.089608523 0.099307336)
(0.094667894 0.090721745 0.10005276)
(0.094471075 0.091003276 0.10014017)
(0.093131179 0.091067022 0.10019689)
(0.091034457 0.091034457 0.1002255)
(0.087493408 0.090905423 0.10035039)
(0.083082815 0.09057626 0.1003812)
(0.067773017 0.089434265 0.10189472)
(0.063711929 0.08117011 0.10589002)
(0.077392583 0.079375691 0.088225204)
(0.090310713 0.086819663 0.099428504)
(0.094689677 0.087561343 0.10017749)
(0.094413369 0.0876491 0.10026576)
(0.09302706 0.087593759 0.10032166)
(0.090905423 0.087493407 0.10035039)
(0.087342298 0.087342297 0.1004756)
(0.08289678 0.087094395 0.10050695)
(0.06753398 0.086244135 0.10201789)
(0.063588293 0.078970698 0.10596978)
(0.077320069 0.076872406 0.088237901)
(0.090187303 0.083135715 0.099481843)
(0.094347586 0.083489563 0.10022061)
(0.094006756 0.083396799 0.10030315)
(0.092636599 0.083240523 0.10035387)
(0.090576261 0.083082814 0.1003812)
(0.087094396 0.082896779 0.10050695)
(0.082707339 0.082707338 0.10054269)
(0.067345992 0.082066697 0.10206574)
(0.063597077 0.07597482 0.10599085)
(0.077376358 0.065137958 0.089630393)
(0.089278913 0.068685464 0.10102773)
(0.092967433 0.068472923 0.10175388)
(0.092532518 0.06820308 0.10182535)
(0.091280392 0.067972645 0.10186927)
(0.089434265 0.067773017 0.10189472)
(0.086244136 0.067533979 0.10201789)
(0.082066698 0.067345991 0.10206574)
(0.066891236 0.066891235 0.10360852)
(0.063009688 0.063306439 0.10738964)
(0.072578512 0.062474083 0.09458559)
(0.080696875 0.06427147 0.10533104)
(0.08345637 0.064034523 0.10586937)
(0.083143195 0.063904277 0.10588039)
(0.08235199 0.063792674 0.10588944)
(0.08117011 0.063711929 0.10589002)
(0.078970699 0.063588293 0.10596979)
(0.075974821 0.063597076 0.10599085)
(0.06330644 0.063009688 0.10738964)
(0.059576051 0.059576051 0.11051889)
(0.03578685 0.03578685 0.049578926)
(0.051822053 0.045814667 0.067359907)
(0.058020128 0.047464711 0.069791846)
(0.058426352 0.047901247 0.070318741)
(0.057215205 0.048170232 0.070517097)
(0.05486183 0.048334939 0.070720007)
(0.050314903 0.048562097 0.071221409)
(0.044468543 0.048373727 0.072432211)
(0.023680492 0.048503208 0.076608546)
(0.022960445 0.041181735 0.091284039)
(0.045814667 0.051822053 0.067359907)
(0.067577613 0.067577613 0.090919888)
(0.076099836 0.071342984 0.094426338)
(0.076408493 0.072764869 0.095345118)
(0.074200936 0.073536799 0.095766098)
(0.070204929 0.073997453 0.096173934)
(0.063079723 0.074292743 0.096975325)
(0.053973629 0.073875867 0.098643546)
(0.02672931 0.07147289 0.10336883)
(0.022965205 0.055541932 0.11561883)
(0.047464712 0.058020127 0.069791846)
(0.071342985 0.076099835 0.094426338)
(0.080386897 0.080386896 0.098284781)
(0.080565697 0.082022325 0.099385732)
(0.077837446 0.082844054 0.099914842)
(0.073082539 0.083235647 0.10039526)
(0.064924828 0.083254819 0.1012504)
(0.054767399 0.082311352 0.10290445)
(0.02617366 0.078666683 0.10735664)
(0.022393184 0.060117594 0.11823291)
(0.047901247 0.058426351 0.070318741)
(0.072764869 0.076408493 0.095345118)
(0.082022326 0.080565697 0.099385732)
(0.082091071 0.08209107 0.10058633)
(0.079034357 0.08278917 0.10117075)
(0.073849601 0.083046152 0.1016762)
(0.065177506 0.082874311 0.10252571)
(0.054562409 0.081761359 0.10411176)
(0.025580573 0.077861915 0.10835956)
(0.022124819 0.059507502 0.11872215)
(0.048170233 0.057215205 0.070517097)
(0.0735368 0.074200935 0.095766098)
(0.082844054 0.077837446 0.099914842)
(0.08278917 0.079034357 0.10117075)
(0.079493318 0.079493317 0.10178136)
(0.074028852 0.079578896 0.10229333)
(0.065050896 0.079292786 0.10312868)
(0.054190297 0.078228383 0.10466148)
(0.025061256 0.074664516 0.10878657)
(0.021895722 0.057576211 0.1188928)
(0.048334939 0.05486183 0.070720007)
(0.073997453 0.070204929 0.096173934)
(0.083235648 0.073082539 0.10039526)
(0.083046153 0.073849601 0.1016762)
(0.079578896 0.074028853 0.10229333)
(0.073945082 0.073945082 0.1028053)
(0.064795613 0.073599367 0.10363414)
(0.053800405 0.072711758 0.10514197)
(0.024602025 0.069778122 0.1091946)
(0.021731452 0.054618444 0.11909626)
(0.048562097 0.050314903 0.071221409)
(0.074292744 0.063079723 0.096975325)
(0.08325482 0.064924828 0.1012504)
(0.082874311 0.065177507 0.10252571)
(0.079292786 0.065050896 0.10312868)
(0.073599367 0.064795613 0.10363414)
(0.064401876 0.064401877 0.10446523)
(0.053337007 0.063747354 0.10597685)
(0.024057971 0.061659933 0.10999068)
(0.021465422 0.049347333 0.11962692)
(0.048373728 0.044468543 0.072432211)
(0.073875868 0.053973629 0.098643546)
(0.082311352 0.054767399 0.10290445)
(0.08176136 0.05456241 0.10411176)
(0.078228383 0.054190298 0.10466148)
(0.072711758 0.053800406 0.10514197)
(0.063747353 0.053337007 0.10597685)
(0.052858668 0.052858668 0.10752499)
(0.023650597 0.051435673 0.11157535)
(0.021486484 0.04247759 0.12087703)
(0.048503209 0.023680493 0.076608546)
(0.07147289 0.02672931 0.10336883)
(0.078666683 0.026173661 0.10735664)
(0.077861915 0.025580574 0.10835956)
(0.074664516 0.025061257 0.10878657)
(0.069778122 0.024602025 0.1091946)
(0.061659933 0.024057972 0.10999068)
(0.051435673 0.023650597 0.11157535)
(0.022852472 0.022852473 0.11581984)
(0.020279476 0.020039335 0.12487405)
(0.041181736 0.022960445 0.091284039)
(0.055541932 0.022965205 0.11561883)
(0.060117594 0.022393185 0.11823291)
(0.059507503 0.02212482 0.11872215)
(0.057576211 0.021895723 0.1188928)
(0.054618444 0.021731453 0.11909626)
(0.049347333 0.021465422 0.11962692)
(0.04247759 0.021486485 0.12087703)
(0.020039334 0.020279476 0.12487405)
(0.017607535 0.017607535 0.1330212)
(0.018421376 0.018421375 0.031567549)
(0.03410205 0.027443234 0.051688005)
(0.040642063 0.029355847 0.055766003)
(0.041095386 0.0299123 0.056929102)
(0.03932698 0.030251291 0.057435412)
(0.035929428 0.030451615 0.057989114)
(0.029631282 0.030728011 0.059112121)
(0.021935204 0.030475351 0.061781338)
(-0.00042261087 0.030534161 0.067864056)
(0.0029526857 0.022775401 0.083742768)
(0.027443235 0.034102049 0.051688005)
(0.051304991 0.05130499 0.081524256)
(0.061422091 0.056275989 0.08812799)
(0.061896992 0.058235319 0.0903165)
(0.058613453 0.05929406 0.091408648)
(0.052627742 0.059908373 0.092495613)
(0.042356153 0.060258161 0.094325007)
(0.029882569 0.059581906 0.098022998)
(-0.0006554922 0.056244048 0.10481604)
(0.0010717897 0.038395071 0.1154468)
(0.029355847 0.040642062 0.055766003)
(0.05627599 0.06142209 0.08812799)
(0.067402127 0.067402126 0.095760005)
(0.067773226 0.06977388 0.09848098)
(0.063709459 0.07095987 0.099887767)
(0.05653612 0.071513933 0.10118729)
(0.044677453 0.071507726 0.10315586)
(0.030645099 0.07009688 0.10681191)
(-0.0016635309 0.064947725 0.11283357)
(0.0002946622 0.043318306 0.12030543)
(0.029912301 0.041095385 0.056929102)
(0.05823532 0.061896991 0.0903165)
(0.069773881 0.067773225 0.09848098)
(0.070025403 0.070025402 0.10149405)
(0.06548091 0.071055832 0.10306364)
(0.057654195 0.071429674 0.10443831)
(0.045026218 0.071160262 0.10638819)
(0.030340479 0.069502713 0.10985584)
(-0.0024501367 0.063978082 0.11531022)
(-3.7520915e-05 0.042558394 0.12148092)
(0.030251292 0.039326979 0.057435412)
(0.059294061 0.058613453 0.091408647)
(0.070959871 0.063709459 0.099887766)
(0.071055833 0.065480909 0.10306364)
(0.066166049 0.066166049 0.10471269)
(0.057923705 0.066293123 0.10610949)
(0.044849096 0.065863347 0.108019)
(0.029823295 0.064288456 0.11133977)
(-0.003133568 0.059296745 0.1164481)
(-0.00031586053 0.039815837 0.12195102)
(0.030451615 0.035929428 0.057989113)
(0.059908374 0.052627743 0.092495613)
(0.071513934 0.05653612 0.10118729)
(0.071429675 0.057654195 0.10443831)
(0.066293123 0.057923706 0.10610949)
(0.057801445 0.057801445 0.10750633)
(0.044479702 0.057290374 0.10939386)
(0.029273137 0.055998849 0.11263977)
(-0.0037450315 0.05201981 0.11753619)
(-0.00051534977 0.035573525 0.12250604)
(0.030728012 0.029631283 0.059112121)
(0.060258162 0.042356154 0.094325007)
(0.071507727 0.044677454 0.10315586)
(0.071160263 0.045026219 0.10638819)
(0.065863347 0.044849097 0.108019)
(0.057290374 0.044479703 0.10939386)
(0.043908523 0.043908524 0.11128315)
(0.028621389 0.042986003 0.11453264)
(-0.0044628983 0.040344928 0.11932297)
(-0.00085052304 0.028295341 0.12366871)
(0.030475352 0.021935206 0.061781337)
(0.059581907 0.02988257 0.098022997)
(0.070096881 0.030645101 0.10681191)
(0.069502714 0.030340481 0.10985584)
(0.064288456 0.029823297 0.11133977)
(0.055998849 0.029273138 0.11263977)
(0.042986002 0.028621391 0.11453264)
(0.027982163 0.027982164 0.11786775)
(-0.0049497371 0.026416495 0.12273655)
(-0.00081983923 0.019374595 0.12633136)
(0.030534162 -0.00042260964 0.067864056)
(0.05624405 -0.00065549107 0.10481604)
(0.064947726 -0.0016635298 0.11283357)
(0.063978083 -0.0024501357 0.11531022)
(0.059296745 -0.003133567 0.1164481)
(0.05201981 -0.0037450304 0.11753619)
(0.040344927 -0.0044628973 0.11932297)
(0.026416494 -0.0049497361 0.12273655)
(-0.0055564481 -0.005556447 0.12812348)
(-0.0020102222 -0.0046391136 0.13164539)
(0.022775402 0.0029526863 0.083742768)
(0.038395072 0.0010717904 0.1154468)
(0.043318307 0.00029466268 0.12030543)
(0.042558395 -3.7520588e-05 0.12148092)
(0.039815837 -0.00031586028 0.12195102)
(0.035573524 -0.0005153495 0.12250604)
(0.02829534 -0.00085052267 0.12366871)
(0.019374594 -0.0008198387 0.12633136)
(-0.0046391148 -0.0020102215 0.13164539)
(-0.0013717542 -0.0013717536 0.13597827)
(0.0095121373 0.0095121368 0.021145105)
(0.022392579 0.016376541 0.040130789)
(0.028275984 0.018188956 0.045351298)
(0.028600974 0.018776936 0.047191459)
(0.026404076 0.019138059 0.048097811)
(0.022298907 0.019346658 0.049113936)
(0.015024158 0.01963666 0.05093968)
(0.0066835647 0.019369077 0.055040748)
(-0.013633927 0.01935319 0.061848143)
(-0.0064943108 0.012229886 0.074574618)
(0.016376541 0.022392578 0.040130789)
(0.038288915 0.038288914 0.071889088)
(0.048379409 0.0436643 0.081313308)
(0.048807748 0.045899507 0.085025013)
(0.044676569 0.047114445 0.087025447)
(0.037226195 0.047805282 0.089019253)
(0.024965879 0.04816174 0.092037642)
(0.010990935 0.0473144 0.097728129)
(-0.017605254 0.043600875 0.10496158)
(-0.0097059715 0.026646591 0.10912866)
(0.018188956 0.028275983 0.045351297)
(0.043664301 0.048379408 0.081313307)
(0.05515524 0.05515524 0.092688458)
(0.055525871 0.057981981 0.097438796)
(0.050409991 0.059404604 0.10005642)
(0.041419795 0.060061552 0.10246284)
(0.027147435 0.060028021 0.10572447)
(0.011287154 0.058317998 0.11129855)
(-0.019175508 0.052436289 0.11706285)
(-0.010617869 0.031154547 0.11603318)
(0.018776936 0.028600973 0.047191459)
(0.045899508 0.048807747 0.085025013)
(0.057981981 0.05552587 0.097438795)
(0.058246081 0.058246081 0.10276971)
(0.052537474 0.059504771 0.10571307)
(0.042717925 0.059959854 0.10827038)
(0.027487065 0.059622837 0.11149172)
(0.0108544 0.057618221 0.11669976)
(-0.020092673 0.051294616 0.12138954)
(-0.010975824 0.030265446 0.11803281)
(0.019138058 0.026404076 0.04809781)
(0.047114445 0.044676569 0.087025446)
(0.059404604 0.050409991 0.10005642)
(0.059504771 0.052537474 0.10571307)
(0.053377064 0.053377064 0.10881837)
(0.043040427 0.053534678 0.11142287)
(0.027263824 0.053010386 0.11456495)
(0.010238547 0.051125073 0.11948906)
(-0.020858251 0.045510543 0.12351395)
(-0.011264664 0.026960848 0.11892049)
(0.019346657 0.022298907 0.049113935)
(0.047805283 0.037226196 0.089019253)
(0.060061553 0.041419795 0.10246284)
(0.059959854 0.042717925 0.10827038)
(0.053534678 0.043040427 0.11142287)
(0.042891142 0.042891143 0.11402753)
(0.02681632 0.04227498 0.11712289)
(0.0095878085 0.040767474 0.12189674)
(-0.021545018 0.036494447 0.12551061)
(-0.011472248 0.021864246 0.11993919)
(0.01963666 0.015024159 0.05093968)
(0.048161741 0.024965879 0.092037641)
(0.060028022 0.027147435 0.10572447)
(0.059622837 0.027487065 0.11149172)
(0.053010386 0.027263824 0.11456495)
(0.04227498 0.026816321 0.11712289)
(0.02613761 0.026137611 0.12021607)
(0.0088305904 0.025112007 0.12499004)
(-0.022341053 0.022573058 0.1284123)
(-0.011832409 0.013474504 0.12179001)
(0.019369077 0.0066835657 0.055040747)
(0.0473144 0.010990936 0.097728129)
(0.058317999 0.011287155 0.11129855)
(0.057618222 0.010854401 0.11669976)
(0.051125073 0.010238548 0.11948906)
(0.040767473 0.0095878092 0.12189674)
(0.025112006 0.0088305911 0.12499004)
(0.0081702471 0.0081702478 0.12991742)
(-0.022799019 0.0070115113 0.13349653)
(-0.011792221 0.003904846 0.1257427)
(0.019353191 -0.013633926 0.061848143)
(0.043600875 -0.017605253 0.10496158)
(0.05243629 -0.019175508 0.11706285)
(0.051294617 -0.020092672 0.12138954)
(0.045510544 -0.02085825 0.12351395)
(0.036494447 -0.021545017 0.12551061)
(0.022573058 -0.022341052 0.1284123)
(0.0070115106 -0.022799018 0.13349653)
(-0.022872145 -0.022872144 0.13807268)
(-0.01267403 -0.017831734 0.13088939)
(0.012229886 -0.0064943103 0.074574618)
(0.026646591 -0.0097059711 0.10912866)
(0.031154548 -0.010617869 0.11603318)
(0.030265447 -0.010975824 0.11803281)
(0.026960848 -0.011264664 0.1189205)
(0.021864245 -0.011472248 0.11993919)
(0.013474503 -0.011832409 0.12179001)
(0.0039048451 -0.011792221 0.1257427)
(-0.017831735 -0.01267403 0.13088939)
(-0.0091982174 -0.0091982168 0.12808399)
(0.0048744641 0.0048744636 0.014785135)
(0.014596324 0.0097077952 0.031688605)
(0.019430809 0.011256665 0.037592882)
(0.019506914 0.011815656 0.040055284)
(0.016990564 0.012167913 0.041408567)
(0.012470182 0.012368538 0.042933221)
(0.004845216 0.012652587 0.045427011)
(-0.0032787417 0.012397209 0.050613964)
(-0.020064748 0.012360773 0.057244654)
(-0.010291933 0.0063420874 0.06563046)
(0.0097077956 0.014596324 0.031688605)
(0.028039282 0.028039281 0.063195476)
(0.037132884 0.03325115 0.074899338)
(0.037295516 0.035550736 0.080178166)
(0.032513764 0.036819255 0.083229663)
(0.024102665 0.037532573 0.086240918)
(0.010886464 0.037876629 0.090410854)
(-0.0031120173 0.036963107 0.097586208)
(-0.027190172 0.03332028 0.10391409)
(-0.014242073 0.018554697 0.10050088)
(0.011256665 0.019430808 0.037592882)
(0.033251151 0.037132883 0.074899338)
(0.043969943 0.043969943 0.089587366)
(0.044102943 0.046989227 0.096516548)
(0.038177997 0.048533122 0.10055977)
(0.027959707 0.049244913 0.10422299)
(0.012447262 0.049197039 0.10873683)
(-0.0035782855 0.047363717 0.11565321)
(-0.02935124 0.041404974 0.11967951)
(-0.015231444 0.022290743 0.10905341)
(0.011815655 0.019506913 0.040055283)
(0.035550736 0.037295516 0.080178166)
(0.046989228 0.044102943 0.096516548)
(0.047033326 0.047033325 0.10439183)
(0.040436152 0.048418164 0.10897055)
(0.029259097 0.04892369 0.1128808)
(0.012663278 0.048558015 0.11732284)
(-0.004182508 0.046412274 0.12364583)
(-0.030370186 0.040005446 0.12599191)
(-0.015591201 0.021247296 0.11189743)
(0.012167912 0.016990564 0.041408567)
(0.036819255 0.032513764 0.083229663)
(0.048533123 0.038177997 0.10055977)
(0.048418165 0.040436151 0.10897055)
(0.041354454 0.041354453 0.11381955)
(0.029590131 0.041532556 0.11781032)
(0.012386674 0.040968971 0.12212318)
(-0.0048693111 0.03898133 0.12798934)
(-0.031166634 0.033437128 0.12928244)
(-0.015868922 0.017573845 0.11327887)
(0.012368537 0.012470182 0.042933221)
(0.037532574 0.024102665 0.086240918)
(0.049244914 0.027959707 0.10422299)
(0.048923691 0.029259097 0.1128808)
(0.041532556 0.029590131 0.11781032)
(0.029423661 0.029423661 0.12180151)
(0.011891519 0.028766224 0.12603489)
(-0.0055730056 0.027234969 0.13165524)
(-0.031875177 0.023293108 0.13229885)
(-0.016068575 0.011987088 0.11480794)
(0.012652587 0.0048452167 0.045427011)
(0.037876629 0.010886464 0.090410853)
(0.049197039 0.012447263 0.10873683)
(0.048558015 0.012663278 0.11732284)
(0.040968972 0.012386674 0.12212318)
(0.028766224 0.01189152 0.12603489)
(0.011174309 0.011174309 0.1302588)
(-0.006362468 0.010208079 0.13587529)
(-0.032680405 0.0082792458 0.136242)
(-0.016425347 0.0031966631 0.11728425)
(0.012397209 -0.0032787409 0.050613964)
(0.036963107 -0.0031120167 0.097586208)
(0.047363717 -0.003578285 0.11565321)
(0.046412274 -0.0041825075 0.12364583)
(0.03898133 -0.0048693106 0.12798934)
(0.027234968 -0.0055730051 0.13165524)
(0.010208078 -0.0063624674 0.13587529)
(-0.0069177916 -0.0069177911 0.14173634)
(-0.033034573 -0.0073032105 0.14239948)
(-0.016367242 -0.0060635759 0.12210639)
(0.012360773 -0.020064747 0.057244654)
(0.033320281 -0.027190172 0.10391409)
(0.041404974 -0.02935124 0.11967951)
(0.040005446 -0.030370186 0.12599191)
(0.033437128 -0.031166633 0.12928244)
(0.023293108 -0.031875177 0.13229885)
(0.0082792454 -0.032680405 0.136242)
(-0.007303211 -0.033034572 0.14239948)
(-0.032430094 -0.032430094 0.14469486)
(-0.016890172 -0.023990146 0.12612038)
(0.006342088 -0.010291932 0.06563046)
(0.018554698 -0.014242073 0.10050088)
(0.022290744 -0.015231444 0.10905341)
(0.021247297 -0.015591202 0.11189743)
(0.017573845 -0.015868922 0.11327887)
(0.011987088 -0.016068575 0.11480794)
(0.0031966625 -0.016425347 0.11728425)
(-0.0060635767 -0.016367242 0.12210639)
(-0.023990147 -0.016890172 0.12612038)
(-0.011757541 -0.011757541 0.11656845)
(0.0024424953 0.0024424946 0.010780488)
(0.0093703226 0.0056847403 0.025607389)
(0.013062234 0.0069251656 0.031875297)
(0.012826685 0.0074207706 0.034873016)
(0.010089936 0.0077455154 0.036683405)
(0.0054002367 0.0079294414 0.038708623)
(-0.0020993266 0.0081980564 0.041761742)
(-0.0094503629 0.0079725455 0.047577996)
(-0.022344442 0.007966422 0.053438218)
(-0.011111919 0.0031324078 0.057468145)
(0.0056847408 0.0093703217 0.025607388)
(0.020069269 0.020069269 0.055921466)
(0.027647584 0.02476116 0.069361342)
(0.027374129 0.026965928 0.076130489)
(0.022119849 0.028210314 0.080291767)
(0.013204689 0.02890966 0.084329917)
(-0.00011339226 0.029239089 0.089478408)
(-0.013079966 0.028357006 0.097444464)
(-0.031687502 0.025092004 0.10193612)
(-0.015310727 0.012952915 0.091282196)
(0.0069251655 0.013062233 0.031875297)
(0.02476116 0.027647584 0.069361342)
(0.034011615 0.034011614 0.086824616)
(0.033697838 0.036999053 0.095911917)
(0.027179948 0.038564652 0.10148571)
(0.016276976 0.039293971 0.10643406)
(0.00051814523 0.039253388 0.11200574)
(-0.014448062 0.037458967 0.11949327)
(-0.034385971 0.031915787 0.12077196)
(-0.01632684 0.015789098 0.10104776)
(0.0074207702 0.012826685 0.034873015)
(0.026965929 0.027374128 0.076130489)
(0.036999054 0.033697837 0.095911917)
(0.036605599 0.036605598 0.10636496)
(0.029361382 0.038021998 0.11271958)
(0.017414408 0.038552294 0.11802489)
(0.00050822406 0.038200663 0.12348148)
(-0.015262852 0.036105266 0.13010682)
(-0.035491644 0.030166032 0.12904134)
(-0.016674095 0.014561551 0.10468399)
(0.0077455147 0.010089936 0.036683405)
(0.028210315 0.022119849 0.080291767)
(0.038564652 0.027179948 0.10148571)
(0.038021999 0.029361382 0.11271958)
(0.030284528 0.030284528 0.11947371)
(0.017707796 0.030474224 0.12489927)
(0.00016474749 0.02992727 0.1301674)
(-0.01600567 0.028029809 0.1361355)
(-0.036288713 0.023082727 0.13358511)
(-0.016929638 0.010672661 0.10659234)
(0.0079294407 0.0054002371 0.038708623)
(0.028909661 0.013204689 0.084329917)
(0.039293972 0.016276976 0.10643406)
(0.038552294 0.017414409 0.11802489)
(0.030474224 0.017707796 0.12489927)
(0.0175322 0.0175322 0.13032567)
(-0.00035325264 0.016895255 0.13547546)
(-0.016725865 0.01551372 0.14108879)
(-0.036983259 0.012353839 0.13763121)
(-0.01711277 0.0048931712 0.1086241)
(0.0081980561 -0.0020993259 0.041761742)
(0.02923909 -0.00011339177 0.089478408)
(0.039253389 0.00051814574 0.11200574)
(0.038200663 0.00050822461 0.12348148)
(0.02992727 0.00016474805 0.1301674)
(0.016895255 -0.00035325208 0.13547546)
(-0.001045952 -0.0010459515 0.140607)
(-0.017486869 -0.001813607 0.14621694)
(-0.037749561 -0.0028067218 0.14241533)
(-0.01744927 -0.0037674652 0.11159452)
(0.0079725456 -0.009450362 0.047577996)
(0.028357007 -0.013079966 0.097444464)
(0.037458967 -0.014448061 0.11949327)
(0.036105266 -0.015262852 0.13010682)
(0.028029809 -0.016005669 0.1361355)
(0.01551372 -0.016725865 0.14108879)
(-0.0018136075 -0.017486869 0.14621694)
(-0.017839759 -0.017839758 0.15219243)
(-0.037956048 -0.017275138 0.14890519)
(-0.017371474 -0.012127386 0.11679483)
(0.0079664226 -0.022344441 0.053438218)
(0.025092005 -0.031687502 0.10193612)
(0.031915787 -0.03438597 0.12077196)
(0.030166033 -0.035491644 0.12904134)
(0.023082727 -0.036288712 0.13358511)
(0.012353839 -0.036983258 0.13763121)
(-0.0028067223 -0.037749561 0.14241533)
(-0.017275139 -0.037956047 0.14890519)
(-0.036679633 -0.036679632 0.14803407)
(-0.017591711 -0.025913681 0.1191918)
(0.0031324084 -0.011111918 0.057468145)
(0.012952915 -0.015310726 0.091282196)
(0.015789099 -0.01632684 0.10104776)
(0.014561552 -0.016674095 0.10468399)
(0.010672661 -0.016929638 0.10659234)
(0.0048931709 -0.017112771 0.1086241)
(-0.0037674659 -0.017449271 0.11159452)
(-0.012127387 -0.017371474 0.11679483)
(-0.025913682 -0.017591711 0.1191918)
(-0.011806649 -0.011806648 0.10425392)
(0.0011631881 0.0011631874 0.0082983357)
(0.0058385702 0.0032514014 0.02134378)
(0.0084455065 0.0041986266 0.027778903)
(0.0078833015 0.0046161902 0.031226423)
(0.0050174969 0.0049037621 0.033477103)
(0.00035795209 0.0050673384 0.03595589)
(-0.0066785514 0.0053169129 0.039420664)
(-0.012947096 0.0051333275 0.045426658)
(-0.022179797 0.0051855669 0.050145724)
(-0.010455402 0.001431172 0.050192564)
(0.003251402 0.0058385692 0.02134378)
(0.013933669 0.013933668 0.050178302)
(0.019789701 0.017917849 0.064903112)
(0.018977016 0.019918469 0.073029091)
(0.013413986 0.021083209 0.078289787)
(0.0043880045 0.021745559 0.083285112)
(-0.0083739791 0.022066711 0.089159438)
(-0.01964394 0.021294484 0.0972223)
(-0.032800134 0.018586033 0.099295527)
(-0.014555469 0.0090507963 0.082234082)
(0.0041986267 0.0084455054 0.027778903)
(0.017917849 0.0197897 0.064903112)
(0.025338006 0.025338005 0.084629875)
(0.024429379 0.02811793 0.095755376)
(0.017514219 0.029624072 0.10287054)
(0.0064028807 0.030343276 0.10903453)
(-0.0088163709 0.030334614 0.1153766)
(-0.021919425 0.028713541 0.12266559)
(-0.035927894 0.023913108 0.12058353)
(-0.015556054 0.010992083 0.092818044)
(0.0046161898 0.0078833007 0.031226423)
(0.019918469 0.018977015 0.073029091)
(0.028117931 0.024429378 0.095755376)
(0.02712281 0.02712281 0.10869657)
(0.019446579 0.028488556 0.11686065)
(0.0072464209 0.029023089 0.12349801)
(-0.0091291156 0.028726861 0.12966822)
(-0.022968849 0.026842818 0.13579358)
(-0.03710832 0.021748412 0.13068003)
(-0.015883251 0.0095641511 0.097158573)
(0.0049037615 0.0050174966 0.033477103)
(0.02108321 0.013413986 0.078289787)
(0.029624073 0.017514219 0.10287054)
(0.028488557 0.019446579 0.11686065)
(0.020307966 0.020307966 0.12556826)
(0.0074593596 0.020501694 0.13236964)
(-0.009554441 0.020022934 0.13828442)
(-0.023760307 0.018376231 0.14353321)
(-0.037889604 0.014378447 0.13648284)
(-0.016112196 0.0055831998 0.099589791)
(0.0050673379 0.00035795247 0.03595589)
(0.021745559 0.0043880047 0.083285112)
(0.030343277 0.0064028809 0.10903453)
(0.029023089 0.0072464212 0.12349801)
(0.020501694 0.0074593599 0.13236964)
(0.0072809403 0.0072809406 0.13917243)
(-0.010075968 0.0067193243 0.1449263)
(-0.024470407 0.0056271219 0.14970504)
(-0.038547772 0.0035240297 0.14148938)
(-0.016275234 -0.00015511604 0.10207723)
(0.0053169126 -0.0066785505 0.039420664)
(0.022066711 -0.0083739785 0.089159438)
(0.030334614 -0.0088163703 0.1153766)
(0.028726861 -0.0091291149 0.12966822)
(0.020022934 -0.0095544403 0.13828442)
(0.006719324 -0.010075968 0.1449263)
(-0.010691188 -0.010691187 0.15065434)
(-0.02515621 -0.011156481 0.15544015)
(-0.039243799 -0.011059912 0.14684654)
(-0.016582766 -0.0083156592 0.10538091)
(0.0051333277 -0.012947095 0.045426658)
(0.021294485 -0.01964394 0.0972223)
(0.028713542 -0.021919424 0.12266559)
(0.026842818 -0.022968849 0.13579358)
(0.018376232 -0.023760307 0.14353321)
(0.0056271216 -0.024470406 0.14970504)
(-0.011156482 -0.025156209 0.15544015)
(-0.025244424 -0.025244423 0.16074731)
(-0.039285057 -0.023709104 0.15297034)
(-0.016490133 -0.015465649 0.1105211)
(0.0051855676 -0.022179796 0.050145723)
(0.018586033 -0.032800133 0.099295527)
(0.023913109 -0.035927893 0.12058353)
(0.021748413 -0.037108319 0.13068003)
(0.014378447 -0.037889603 0.13648284)
(0.0035240295 -0.038547772 0.14148938)
(-0.011059912 -0.039243798 0.14684654)
(-0.023709105 -0.039285056 0.15297034)
(-0.037434674 -0.037434674 0.14851492)
(-0.016492364 -0.025392959 0.11112501)
(0.0014311727 -0.010455401 0.050192564)
(0.0090507972 -0.014555469 0.082234082)
(0.010992084 -0.015556054 0.092818044)
(0.0095641518 -0.015883252 0.097158573)
(0.0055832001 -0.016112197 0.099589791)
(-0.00015511637 -0.016275234 0.10207723)
(-0.00831566 -0.016582766 0.10538091)
(-0.01546565 -0.016490133 0.1105211)
(-0.02539296 -0.016492363 0.11112501)
(-0.010731298 -0.010731297 0.092184231)
(0.00048529592 0.00048529516 0.0068365457)
(0.0034289017 0.0017716668 0.01847976)
(0.0050797098 0.0024666147 0.024978087)
(0.0042106519 0.0028042497 0.028801149)
(0.0012986974 0.0030511625 0.031455909)
(-0.0031759366 0.0031938787 0.034315072)
(-0.0095301605 0.0034237814 0.038028721)
(-0.014592601 0.0032883567 0.043852307)
(-0.020670138 0.003406942 0.047227363)
(-0.0091649124 0.00056650414 0.043826354)
(0.0017716675 0.0034289006 0.01847976)
(0.0092498905 0.0092498896 0.04590883)
(0.013382598 0.012461196 0.061580175)
(0.01199412 0.014192117 0.070906771)
(0.0062725256 0.015240953 0.077202009)
(-0.0025426682 0.015853302 0.083026354)
(-0.014281082 0.016175566 0.089336063)
(-0.023516185 0.015567673 0.096888055)
(-0.03177561 0.013491837 0.09624097)
(-0.012954446 0.0063120762 0.073786171)
(0.0024666149 0.0050797086 0.024978087)
(0.012461196 0.013382597 0.061580176)
(0.017933692 0.017933691 0.083134352)
(0.016353133 0.020382064 0.096121515)
(0.0092183621 0.021767161 0.10471114)
(-0.0017046921 0.02245698 0.11194631)
(-0.015808293 0.022503346 0.1187249)
(-0.026608496 0.021155178 0.12514068)
(-0.035199423 0.017279473 0.11940537)
(-0.013907629 0.0074378751 0.08486319)
(0.0028042495 0.004210651 0.028801149)
(0.014192118 0.011994119 0.070906771)
(0.020382065 0.016353133 0.096121515)
(0.018689462 0.018689462 0.11138199)
(0.010773466 0.019938138 0.12129805)
(-0.0012476782 0.020461266 0.12912207)
(-0.016469356 0.020256279 0.13565752)
(-0.027897529 0.018705267 0.14058556)
(-0.036441037 0.014675484 0.13113773)
(-0.014211302 0.0058121215 0.089804363)
(0.0030511621 0.0012986971 0.031455909)
(0.015240954 0.0062725253 0.077202009)
(0.021767162 0.0092183618 0.10471114)
(0.019938138 0.010773466 0.12129805)
(0.011517929 0.011517929 0.13190962)
(-0.0011505714 0.011709542 0.13994285)
(-0.016989117 0.011342168 0.14615006)
(-0.028733688 0.010065858 0.1499723)
(-0.037198662 0.0072115969 0.13813733)
(-0.014413155 0.0018384248 0.092724571)
(0.0031938782 -0.0031759362 0.034315072)
(0.015853303 -0.0025426679 0.083026355)
(0.022456981 -0.0017046918 0.11194631)
(0.020461267 -0.0012476778 0.12912207)
(0.011709542 -0.001150571 0.13994285)
(-0.00132712 -0.0013271197 0.14797819)
(-0.017499849 -0.0017691134 0.15398074)
(-0.029415442 -0.0024737414 0.1572187)
(-0.037807943 -0.0033989896 0.14397636)
(-0.014555621 -0.0036828506 0.095594285)
(0.0034237812 -0.0095301595 0.038028721)
(0.016175566 -0.014281081 0.089336064)
(0.022503347 -0.015808292 0.1187249)
(0.02025628 -0.016469355 0.13565752)
(0.011342168 -0.016989116 0.14615006)
(-0.0017691137 -0.017499849 0.15398074)
(-0.017997208 -0.017997207 0.15995399)
(-0.029993613 -0.018096108 0.16322443)
(-0.038415636 -0.016895308 0.14961356)