/*--------------------------------*- C++ -*----------------------------------*\
| =========                 |                                                 |
| \\      /  F ield         | OpenFOAM: The Open Source CFD Toolbox           |
|  \\    /   O peration     | Version:  dev                                   |
|   \\  /    A nd           | Web:      www.OpenFOAM.org                      |
|    \\/     M anipulation  |                                                 |
\*---------------------------------------------------------------------------*/
FoamFile
{
    version     2.0;
    format      ascii;
    class       volVectorField;
    location    "3";
    object      U_0;
}
// * * * * * * * * * * * * * * * * * * * * * * * * * * * * * * * * * * * * * //

dimensions      [0 1 -1 0 0 0 0];

internalField   nonuniform List<vector> 
10000
(
(0.069651433 0.069651431 0.078660547)
(0.078823287 0.07612125 0.087571712)
(0.082505732 0.076882811 0.088116654)
(0.0826825 0.077076363 0.088136136)
(0.08219874 0.077201254 0.08814985)
(0.081265926 0.077282075 0.088150366)
(0.079375688 0.077392583 0.088225205)
(0.076872402 0.077320069 0.088237901)
(0.065137955 0.077376358 0.089630393)
(0.062474081 0.072578512 0.09458559)
(0.076121252 0.078823283 0.087571712)
(0.087488725 0.087488721 0.09844659)
(0.09190033 0.089058964 0.099169898)
(0.091957795 0.089640491 0.099235969)
(0.091105851 0.089963025 0.099281862)
(0.089608521 0.090162928 0.099307337)
(0.086819659 0.090310714 0.099428505)
(0.083135711 0.090187303 0.099481843)
(0.06868546 0.089278914 0.10102773)
(0.064271469 0.080696876 0.10533104)
(0.076882813 0.082505727 0.088116653)
(0.089058968 0.091900325 0.099169898)
(0.093562679 0.093562674 0.099898464)
(0.093536804 0.094188466 0.099973682)
(0.092487515 0.094510012 0.10002542)
(0.090721743 0.094667895 0.10005277)
(0.087561339 0.094689678 0.10017749)
(0.083489558 0.094347586 0.10022061)
(0.06847292 0.092967434 0.10175388)
(0.064034522 0.08345637 0.10586937)
(0.077076364 0.082682497 0.088136134)
(0.089640495 0.091957791 0.099235968)
(0.09418847 0.0935368 0.099973682)
(0.094105612 0.094105608 0.10005591)
(0.092928172 0.094370698 0.10011143)
(0.091003274 0.094471075 0.10014018)
(0.087649096 0.09441337 0.10026576)
(0.083396794 0.094006756 0.10030315)
(0.068203076 0.092532518 0.10182535)
(0.063904275 0.083143195 0.10588039)
(0.077201256 0.082198739 0.088149848)
(0.089963029 0.09110585 0.099281861)
(0.094510017 0.092487514 0.10002542)
(0.094370701 0.092928171 0.10011143)
(0.093098602 0.0930986 0.10016828)
(0.09106702 0.093131179 0.10019689)
(0.087593755 0.09302706 0.10032166)
(0.083240519 0.092636599 0.10035387)
(0.067972641 0.091280393 0.10186927)
(0.063792673 0.082351991 0.10588944)
(0.077282077 0.081265928 0.088150364)
(0.090162932 0.089608523 0.099307336)
(0.0946679 0.090721745 0.10005276)
(0.094471079 0.091003276 0.10014018)
(0.09313118 0.091067022 0.10019689)
(0.091034455 0.091034457 0.1002255)
(0.087493403 0.090905423 0.10035039)
(0.083082809 0.09057626 0.1003812)
(0.067773013 0.089434265 0.10189472)
(0.063711928 0.08117011 0.10589002)
(0.077392584 0.079375691 0.088225204)
(0.090310718 0.086819663 0.099428504)
(0.094689683 0.087561343 0.10017749)
(0.094413374 0.0876491 0.10026576)
(0.093027061 0.087593759 0.10032166)
(0.090905422 0.087493407 0.10035039)
(0.087342293 0.087342297 0.1004756)
(0.082896774 0.087094395 0.10050695)
(0.067533975 0.086244135 0.10201789)
(0.063588292 0.078970698 0.10596978)
(0.077320071 0.076872407 0.0882379)
(0.090187307 0.083135715 0.099481843)
(0.094347591 0.083489563 0.10022061)
(0.09400676 0.083396799 0.10030315)
(0.0926366 0.083240523 0.10035387)
(0.090576259 0.083082814 0.1003812)
(0.087094391 0.082896779 0.10050695)
(0.082707334 0.082707338 0.10054269)
(0.067345988 0.082066697 0.10206574)
(0.063597075 0.07597482 0.10599085)
(0.077376359 0.065137959 0.089630393)
(0.089278917 0.068685464 0.10102773)
(0.092967438 0.068472923 0.10175388)
(0.092532522 0.068203079 0.10182535)
(0.091280394 0.067972645 0.10186927)
(0.089434263 0.067773016 0.10189472)
(0.086244132 0.067533979 0.10201789)
(0.082066693 0.067345991 0.10206574)
(0.066891232 0.066891235 0.10360852)
(0.063009687 0.06330644 0.10738964)
(0.072578514 0.062474083 0.09458559)
(0.080696879 0.06427147 0.10533104)
(0.083456374 0.064034523 0.10586937)
(0.083143198 0.063904277 0.10588039)
(0.082351992 0.063792674 0.10588944)
(0.081170108 0.063711929 0.10589002)
(0.078970695 0.063588293 0.10596979)
(0.075974816 0.063597077 0.10599085)
(0.063306436 0.063009688 0.10738964)
(0.059576049 0.059576051 0.11051889)
(0.035786852 0.03578685 0.049578924)
(0.051822058 0.045814667 0.067359906)
(0.058020134 0.047464711 0.069791846)
(0.058426356 0.047901247 0.070318743)
(0.057215206 0.048170232 0.070517099)
(0.054861828 0.048334939 0.070720009)
(0.050314898 0.048562097 0.07122141)
(0.044468537 0.048373727 0.072432211)
(0.023680488 0.048503208 0.076608544)
(0.022960443 0.041181735 0.091284037)
(0.045814669 0.051822053 0.067359905)
(0.067577618 0.067577612 0.090919887)
(0.076099842 0.071342984 0.094426339)
(0.076408498 0.072764869 0.09534512)
(0.074200937 0.073536799 0.095766101)
(0.070204927 0.073997453 0.096173936)
(0.063079717 0.074292743 0.096975326)
(0.053973622 0.073875867 0.098643545)
(0.026729305 0.071472889 0.10336883)
(0.022965203 0.055541932 0.11561883)
(0.047464713 0.058020127 0.069791843)
(0.07134299 0.076099835 0.094426337)
(0.080386904 0.080386896 0.098284781)
(0.080565702 0.082022325 0.099385734)
(0.077837448 0.082844054 0.099914845)
(0.073082537 0.083235647 0.10039527)
(0.064924822 0.08325482 0.1012504)
(0.054767392 0.082311352 0.10290445)
(0.026173655 0.078666682 0.10735664)
(0.022393183 0.060117593 0.1182329)
(0.047901249 0.058426351 0.070318738)
(0.072764875 0.076408493 0.095345116)
(0.082022332 0.080565697 0.099385733)
(0.082091076 0.08209107 0.10058633)
(0.079034359 0.08278917 0.10117076)
(0.073849598 0.083046152 0.10167621)
(0.065177501 0.082874311 0.10252572)
(0.054562403 0.08176136 0.10411176)
(0.025580568 0.077861915 0.10835956)
(0.022124818 0.059507502 0.11872215)
(0.048170235 0.057215205 0.070517094)
(0.073536805 0.074200935 0.095766097)
(0.082844061 0.077837446 0.099914843)
(0.082789175 0.079034357 0.10117075)
(0.079493319 0.079493317 0.10178136)
(0.07402885 0.079578896 0.10229334)
(0.06505089 0.079292786 0.10312868)
(0.05419029 0.078228383 0.10466148)
(0.025061251 0.074664516 0.10878657)
(0.021895721 0.057576211 0.1188928)
(0.048334941 0.05486183 0.070720004)
(0.073997459 0.070204929 0.096173932)
(0.083235654 0.073082539 0.10039526)
(0.083046158 0.073849601 0.10167621)
(0.079578897 0.074028852 0.10229334)
(0.073945079 0.073945082 0.1028053)
(0.064795607 0.073599367 0.10363414)
(0.053800398 0.072711758 0.10514197)
(0.024602019 0.069778123 0.1091946)
(0.02173145 0.054618444 0.11909626)
(0.048562099 0.050314904 0.071221406)
(0.074292749 0.063079723 0.096975324)
(0.083254827 0.064924828 0.1012504)
(0.082874316 0.065177507 0.10252572)
(0.079292788 0.065050896 0.10312868)
(0.073599365 0.064795613 0.10363414)
(0.064401871 0.064401877 0.10446523)
(0.053337 0.063747354 0.10597685)
(0.024057966 0.061659934 0.10999067)
(0.02146542 0.049347334 0.11962691)
(0.048373729 0.044468544 0.072432209)
(0.073875873 0.053973629 0.098643544)
(0.082311359 0.054767399 0.10290445)
(0.081761365 0.054562409 0.10411176)
(0.078228385 0.054190297 0.10466148)
(0.072711756 0.053800405 0.10514198)
(0.063747348 0.053337007 0.10597685)
(0.052858661 0.052858668 0.10752499)
(0.023650592 0.051435674 0.11157535)
(0.021486483 0.042477591 0.12087702)
(0.04850321 0.023680493 0.076608543)
(0.071472895 0.026729311 0.10336883)
(0.078666689 0.026173661 0.10735664)
(0.07786192 0.025580573 0.10835956)
(0.074664518 0.025061256 0.10878657)
(0.06977812 0.024602025 0.10919461)
(0.061659928 0.024057971 0.10999068)
(0.051435667 0.023650597 0.11157535)
(0.022852468 0.022852473 0.11581984)
(0.020279474 0.020039335 0.12487405)
(0.041181737 0.022960445 0.091284038)
(0.055541937 0.022965205 0.11561883)
(0.060117599 0.022393185 0.11823291)
(0.059507507 0.02212482 0.11872216)
(0.057576213 0.021895723 0.1188928)
(0.054618442 0.021731453 0.11909626)
(0.049347328 0.021465422 0.11962692)
(0.042477584 0.021486485 0.12087703)
(0.02003933 0.020279477 0.12487405)
(0.017607533 0.017607535 0.1330212)
(0.018421377 0.018421375 0.031567547)
(0.034102054 0.027443234 0.051688004)
(0.040642068 0.029355847 0.055766004)
(0.04109539 0.0299123 0.056929104)
(0.039326981 0.030251291 0.057435415)
(0.035929426 0.030451614 0.057989116)
(0.029631277 0.030728011 0.059112122)
(0.021935199 0.030475351 0.061781337)
(-0.00042261487 0.030534162 0.067864054)
(0.0029526843 0.022775401 0.083742766)
(0.027443236 0.034102048 0.051688003)
(0.051304995 0.051304989 0.081524255)
(0.061422097 0.056275989 0.08812799)
(0.061896996 0.058235319 0.090316502)
(0.058613454 0.05929406 0.09140865)
(0.05262774 0.059908373 0.092495615)
(0.042356149 0.060258161 0.094325008)
(0.029882563 0.059581906 0.098022997)
(-0.00065549659 0.056244048 0.10481604)
(0.0010717883 0.038395071 0.11544679)
(0.029355849 0.040642061 0.055766)
(0.056275995 0.06142209 0.088127988)
(0.067402134 0.067402126 0.095760006)
(0.06777323 0.06977388 0.098480982)
(0.06370946 0.07095987 0.09988777)
(0.056536117 0.071513933 0.10118729)
(0.044677448 0.071507726 0.10315586)
(0.030645093 0.07009688 0.10681191)
(-0.0016635355 0.064947724 0.11283356)
(0.00029466066 0.043318306 0.12030542)
(0.029912302 0.041095385 0.056929099)
(0.058235325 0.06189699 0.090316498)
(0.069773887 0.067773225 0.09848098)
(0.070025408 0.070025402 0.10149405)
(0.065480911 0.071055832 0.10306364)
(0.057654192 0.071429675 0.10443832)
(0.045026213 0.071160262 0.10638819)
(0.030340473 0.069502713 0.10985584)
(-0.0024501415 0.063978082 0.11531022)
(-3.7522476e-05 0.042558394 0.12148092)
(0.030251293 0.039326979 0.057435409)
(0.059294066 0.058613453 0.091408645)
(0.070959877 0.063709459 0.099887767)
(0.071055838 0.065480909 0.10306364)
(0.066166051 0.066166049 0.10471269)
(0.057923703 0.066293123 0.1061095)
(0.044849091 0.065863347 0.108019)
(0.029823289 0.064288456 0.11133977)
(-0.0031335728 0.059296745 0.1164481)
(-0.0003158621 0.039815837 0.12195102)
(0.030451617 0.035929428 0.05798911)
(0.059908379 0.052627743 0.092495611)
(0.07151394 0.05653612 0.10118729)
(0.07142968 0.057654195 0.10443832)
(0.066293124 0.057923706 0.1061095)
(0.057801443 0.057801445 0.10750633)
(0.044479697 0.057290374 0.10939386)
(0.029273131 0.055998849 0.11263977)
(-0.0037450362 0.05201981 0.11753619)
(-0.00051535132 0.035573525 0.12250603)
(0.030728013 0.029631283 0.059112118)
(0.060258167 0.042356155 0.094325005)
(0.071507733 0.044677454 0.10315586)
(0.071160268 0.045026219 0.10638819)
(0.065863349 0.044849097 0.10801901)
(0.057290372 0.044479703 0.10939386)
(0.043908518 0.043908524 0.11128315)
(0.028621383 0.042986003 0.11453264)
(-0.004462903 0.040344929 0.11932296)
(-0.00085052457 0.028295341 0.12366871)
(0.030475354 0.021935206 0.061781335)
(0.059581912 0.02988257 0.098022996)
(0.070096887 0.030645101 0.10681191)
(0.069502718 0.03034048 0.10985585)
(0.064288457 0.029823296 0.11133978)
(0.055998847 0.029273138 0.11263978)
(0.042985998 0.02862139 0.11453264)
(0.027982157 0.027982164 0.11786775)
(-0.0049497416 0.026416496 0.12273654)
(-0.0008198407 0.019374596 0.12633135)
(0.030534164 -0.00042260927 0.067864054)
(0.056244054 -0.00065549088 0.10481604)
(0.064947731 -0.0016635299 0.11283357)
(0.063978087 -0.002450136 0.11531022)
(0.059296746 -0.0031335674 0.1164481)
(0.052019808 -0.0037450308 0.1175362)
(0.040344923 -0.0044628975 0.11932297)
(0.026416489 -0.004949736 0.12273655)
(-0.0055564523 -0.0055564468 0.12812348)
(-0.0020102235 -0.0046391132 0.13164538)
(0.022775403 0.0029526863 0.083742766)
(0.038395076 0.0010717903 0.1154468)
(0.043318312 0.00029466268 0.12030543)
(0.042558399 -3.7520478e-05 0.12148093)
(0.039815838 -0.0003158601 0.12195102)
(0.035573523 -0.00051534932 0.12250604)
(0.028295336 -0.00085052256 0.12366871)
(0.019374589 -0.0008198387 0.12633136)
(-0.0046391184 -0.0020102216 0.13164539)
(-0.0013717554 -0.0013717535 0.13597827)
(0.0095121393 0.009512137 0.021145103)
(0.022392584 0.016376541 0.040130788)
(0.02827599 0.018188956 0.045351298)
(0.028600978 0.018776935 0.047191461)
(0.026404077 0.019138058 0.048097813)
(0.022298904 0.019346657 0.049113938)
(0.015024153 0.01963666 0.050939681)
(0.0066835588 0.019369077 0.055040747)
(-0.013633932 0.019353191 0.061848142)
(-0.0064943125 0.012229886 0.074574616)
(0.016376544 0.022392577 0.040130787)
(0.038288921 0.038288914 0.071889087)
(0.048379416 0.0436643 0.081313308)
(0.048807753 0.045899507 0.085025014)
(0.044676571 0.047114445 0.087025449)
(0.037226193 0.047805282 0.089019255)
(0.024965873 0.04816174 0.092037643)
(0.010990929 0.0473144 0.097728129)
(-0.017605259 0.043600874 0.10496158)
(-0.0097059735 0.02664659 0.10912866)
(0.018188959 0.028275983 0.045351295)
(0.043664307 0.048379408 0.081313306)
(0.055155248 0.05515524 0.092688458)
(0.055525877 0.057981981 0.097438797)
(0.050409993 0.059404604 0.10005642)
(0.041419792 0.060061552 0.10246285)
(0.027147429 0.060028022 0.10572447)
(0.011287147 0.058317998 0.11129855)
(-0.019175514 0.052436289 0.11706285)
(-0.010617871 0.031154547 0.11603318)
(0.018776938 0.028600973 0.047191456)
(0.045899514 0.048807747 0.085025011)
(0.057981989 0.05552587 0.097438796)
(0.058246087 0.058246081 0.10276971)
(0.052537476 0.059504771 0.10571307)
(0.042717922 0.059959854 0.10827038)
(0.027487058 0.059622837 0.11149172)
(0.010854393 0.057618221 0.11669976)
(-0.020092678 0.051294616 0.12138954)
(-0.010975826 0.030265446 0.11803281)
(0.019138061 0.026404076 0.048097808)
(0.047114452 0.044676569 0.087025445)
(0.059404612 0.050409991 0.10005642)
(0.059504777 0.052537474 0.10571307)
(0.053377066 0.053377064 0.10881838)
(0.043040424 0.053534678 0.11142287)
(0.027263817 0.053010386 0.11456495)
(0.01023854 0.051125073 0.11948906)
(-0.020858257 0.045510544 0.12351395)
(-0.011264666 0.026960848 0.11892049)
(0.01934666 0.022298907 0.049113933)
(0.047805289 0.037226196 0.089019251)
(0.06006156 0.041419795 0.10246284)
(0.05995986 0.042717925 0.10827038)
(0.05353468 0.043040427 0.11142287)
(0.04289114 0.042891143 0.11402753)
(0.026816314 0.04227498 0.1171229)
(0.009587801 0.040767474 0.12189674)
(-0.021545023 0.036494448 0.12551061)
(-0.01147225 0.021864246 0.11993918)
(0.019636662 0.015024159 0.050939677)
(0.048161747 0.024965879 0.09203764)
(0.06002803 0.027147435 0.10572447)
(0.059622843 0.027487065 0.11149172)
(0.053010388 0.027263824 0.11456496)
(0.042274977 0.02681632 0.1171229)
(0.026137604 0.026137611 0.12021607)
(0.0088305831 0.025112007 0.12499004)
(-0.022341058 0.022573059 0.1284123)
(-0.011832411 0.013474504 0.12179001)
(0.019369079 0.0066835663 0.055040745)
(0.047314406 0.010990936 0.097728127)
(0.058318006 0.011287155 0.11129855)
(0.057618227 0.010854401 0.11669976)
(0.051125075 0.010238547 0.11948906)
(0.040767471 0.0095878087 0.12189674)
(0.025112 0.0088305909 0.12499004)
(0.0081702401 0.008170248 0.12991742)
(-0.022799024 0.0070115117 0.13349653)
(-0.011792223 0.0039048466 0.1257427)
(0.019353193 -0.013633926 0.061848141)
(0.04360088 -0.017605253 0.10496158)
(0.052436296 -0.019175508 0.11706285)
(0.051294622 -0.020092672 0.12138954)
(0.045510545 -0.020858251 0.12351395)
(0.036494445 -0.021545018 0.12551062)
(0.022573052 -0.022341052 0.1284123)
(0.0070115042 -0.022799018 0.13349653)
(-0.02287215 -0.022872144 0.13807268)
(-0.012674032 -0.017831734 0.13088939)
(0.012229888 -0.0064943103 0.074574616)
(0.026646596 -0.0097059713 0.10912866)
(0.031154554 -0.010617869 0.11603318)
(0.030265451 -0.010975823 0.11803281)
(0.026960849 -0.011264664 0.1189205)
(0.021864243 -0.011472248 0.11993919)
(0.013474498 -0.011832409 0.12179001)
(0.0039048397 -0.011792221 0.1257427)
(-0.01783174 -0.01267403 0.13088939)
(-0.0091982189 -0.0091982169 0.12808399)
(0.0048744664 0.0048744638 0.014785134)
(0.01459633 0.0097077955 0.031688604)
(0.019430816 0.011256665 0.037592882)
(0.019506919 0.011815655 0.040055284)
(0.016990565 0.012167912 0.041408568)
(0.012470179 0.012368537 0.042933222)
(0.0048452101 0.012652587 0.045427012)
(-0.0032787486 0.012397209 0.050613964)
(-0.020064753 0.012360773 0.057244653)
(-0.010291935 0.0063420877 0.065630459)
(0.0097077983 0.014596323 0.031688604)
(0.028039288 0.028039281 0.063195475)
(0.037132892 0.03325115 0.074899338)
(0.037295523 0.035550736 0.080178167)
(0.032513766 0.036819255 0.083229665)
(0.024102662 0.037532574 0.086240919)
(0.010886457 0.037876629 0.090410854)
(-0.0031120255 0.036963107 0.097586208)
(-0.027190179 0.03332028 0.10391409)
(-0.014242076 0.018554697 0.10050088)
(0.011256668 0.019430808 0.03759288)
(0.033251158 0.037132883 0.074899337)
(0.043969952 0.043969943 0.089587365)
(0.04410295 0.046989227 0.096516549)
(0.038177999 0.048533122 0.10055977)
(0.027959704 0.049244913 0.10422299)
(0.012447255 0.049197039 0.10873683)
(-0.0035782943 0.047363717 0.11565321)
(-0.029351247 0.041404973 0.11967951)
(-0.015231447 0.022290742 0.1090534)
(0.011815659 0.019506913 0.040055281)
(0.035550744 0.037295516 0.080178165)
(0.046989237 0.044102943 0.096516548)
(0.047033332 0.047033325 0.10439183)
(0.040436154 0.048418165 0.10897055)
(0.029259093 0.04892369 0.1128808)
(0.01266327 0.048558015 0.11732284)
(-0.004182517 0.046412274 0.12364583)
(-0.030370193 0.040005446 0.1259919)
(-0.015591204 0.021247296 0.11189743)
(0.012167915 0.016990564 0.041408564)
(0.036819263 0.032513764 0.083229662)
(0.048533132 0.038177997 0.10055977)
(0.048418172 0.040436151 0.10897055)
(0.041354456 0.041354453 0.11381956)
(0.029590128 0.041532556 0.11781032)
(0.012386666 0.040968971 0.12212318)
(-0.0048693202 0.03898133 0.12798934)
(-0.031166641 0.033437128 0.12928244)
(-0.015868924 0.017573845 0.11327887)
(0.01236854 0.012470182 0.042933219)
(0.037532581 0.024102666 0.086240916)
(0.049244923 0.027959707 0.10422298)
(0.048923697 0.029259097 0.1128808)
(0.041532558 0.029590131 0.11781032)
(0.029423658 0.029423661 0.12180151)
(0.011891512 0.028766224 0.12603489)
(-0.0055730146 0.027234969 0.13165524)
(-0.031875184 0.023293108 0.13229885)
(-0.016068578 0.011987088 0.11480794)
(0.01265259 0.0048452172 0.045427009)
(0.037876636 0.010886464 0.090410852)
(0.049197048 0.012447263 0.10873683)
(0.048558022 0.012663278 0.11732284)
(0.040968974 0.012386673 0.12212318)
(0.028766221 0.011891519 0.12603489)
(0.011174302 0.011174309 0.1302588)
(-0.0063624767 0.010208079 0.13587529)
(-0.032680412 0.0082792462 0.136242)
(-0.01642535 0.0031966636 0.11728425)
(0.012397212 -0.0032787401 0.050613963)
(0.036963114 -0.0031120164 0.097586207)
(0.047363726 -0.0035782851 0.11565321)
(0.04641228 -0.0041825081 0.12364583)
(0.038981332 -0.0048693113 0.12798934)
(0.027234966 -0.0055730057 0.13165524)
(0.010208071 -0.0063624677 0.13587529)
(-0.0069178 -0.0069177909 0.14173634)
(-0.033034579 -0.00730321 0.14239948)
(-0.016367245 -0.0060635752 0.12210639)
(0.012360776 -0.020064746 0.057244653)
(0.033320287 -0.027190172 0.10391409)
(0.041404982 -0.02935124 0.11967951)
(0.040005452 -0.030370186 0.12599191)
(0.03343713 -0.031166634 0.12928244)
(0.023293105 -0.031875177 0.13229885)
(0.0082792391 -0.032680405 0.136242)
(-0.0073032187 -0.033034572 0.14239948)
(-0.0324301 -0.032430093 0.14469486)
(-0.016890174 -0.023990145 0.12612038)
(0.00634209 -0.010291932 0.065630459)
(0.018554703 -0.014242073 0.10050088)
(0.02229075 -0.015231444 0.10905341)
(0.021247302 -0.015591201 0.11189743)
(0.017573847 -0.015868922 0.11327887)
(0.011987086 -0.016068575 0.11480794)
(0.0031966573 -0.016425347 0.11728425)
(-0.006063583 -0.016367242 0.12210639)
(-0.023990152 -0.016890172 0.12612038)
(-0.011757543 -0.011757541 0.11656845)
(0.0024424978 0.0024424949 0.010780487)
(0.0093703289 0.0056847407 0.025607388)
(0.013062242 0.0069251655 0.031875297)
(0.012826691 0.0074207701 0.034873016)
(0.010089938 0.0077455147 0.036683405)
(0.0054002339 0.0079294407 0.038708624)
(-0.0020993329 0.008198056 0.041761743)
(-0.0094503704 0.0079725455 0.047577996)
(-0.022344447 0.0079664225 0.053438218)
(-0.011111921 0.0031324081 0.057468144)
(0.0056847437 0.0093703212 0.025607388)
(0.020069277 0.020069268 0.055921466)
(0.027647593 0.02476116 0.069361342)
(0.027374136 0.026965929 0.076130489)
(0.022119851 0.028210314 0.080291768)
(0.013204685 0.028909661 0.084329918)
(-0.00011339978 0.029239089 0.089478409)
(-0.013079975 0.028357006 0.097444464)
(-0.031687509 0.025092004 0.10193612)
(-0.015310729 0.012952914 0.091282195)
(0.0069251688 0.013062233 0.031875296)
(0.024761169 0.027647583 0.069361341)
(0.034011624 0.034011614 0.086824616)
(0.033697845 0.036999053 0.095911918)
(0.02717995 0.038564652 0.10148571)
(0.016276972 0.039293972 0.10643406)
(0.00051813718 0.039253389 0.11200574)
(-0.014448071 0.037458967 0.11949327)
(-0.034385978 0.031915786 0.12077196)
(-0.016326843 0.015789097 0.10104776)
(0.0074207736 0.012826684 0.034873014)
(0.026965937 0.027374128 0.076130488)
(0.036999063 0.033697837 0.095911917)
(0.036605606 0.036605598 0.10636496)
(0.029361385 0.038021998 0.11271958)
(0.017414405 0.038552294 0.11802489)
(0.00050821577 0.038200663 0.12348148)
(-0.015262862 0.036105266 0.13010682)
(-0.035491652 0.030166032 0.12904134)
(-0.016674098 0.014561551 0.10468399)
(0.0077455182 0.010089936 0.036683403)
(0.028210323 0.022119849 0.080291766)
(0.038564662 0.027179948 0.10148571)
(0.038022006 0.029361382 0.11271958)
(0.03028453 0.030284528 0.11947372)
(0.017707792 0.030474224 0.12489927)
(0.00016473915 0.02992727 0.1301674)
(-0.01600568 0.028029809 0.1361355)
(-0.03628872 0.023082727 0.13358511)
(-0.016929641 0.010672661 0.10659234)
(0.0079294441 0.0054002374 0.038708622)
(0.028909669 0.013204689 0.084329916)
(0.039293982 0.016276976 0.10643406)
(0.038552302 0.017414408 0.11802489)
(0.030474226 0.017707796 0.12489927)
(0.017532196 0.0175322 0.13032567)
(-0.00035326086 0.016895255 0.13547546)
(-0.016725875 0.015513721 0.14108879)
(-0.036983267 0.012353839 0.13763121)
(-0.017112773 0.0048931715 0.1086241)
(0.0081980593 -0.0020993252 0.041761741)
(0.029239098 -0.00011339145 0.089478407)
(0.039253399 0.0005181456 0.11200574)
(0.038200671 0.00050822409 0.12348148)
(0.029927273 0.00016474739 0.1301674)
(0.016895252 -0.00035325262 0.13547546)
(-0.00104596 -0.0010459517 0.140607)
(-0.017486879 -0.0018136068 0.14621694)
(-0.037749569 -0.0028067213 0.14241533)
(-0.017449273 -0.0037674645 0.11159452)
(0.0079725486 -0.0094503612 0.047577995)
(0.028357014 -0.013079965 0.097444463)
(0.037458976 -0.014448061 0.11949327)
(0.036105273 -0.015262852 0.13010683)
(0.028029812 -0.01600567 0.13613551)
(0.015513717 -0.016725866 0.14108879)
(-0.001813615 -0.017486869 0.14621694)
(-0.017839768 -0.017839758 0.15219243)
(-0.037956055 -0.017275138 0.14890519)
(-0.017371477 -0.012127385 0.11679483)
(0.0079664252 -0.02234444 0.053438217)
(0.025092012 -0.031687501 0.10193612)
(0.031915796 -0.03438597 0.12077196)
(0.030166039 -0.035491644 0.12904134)
(0.023082729 -0.036288713 0.13358511)
(0.012353836 -0.036983259 0.13763121)
(-0.0028067291 -0.037749561 0.14241533)
(-0.017275147 -0.037956047 0.14890519)
(-0.036679639 -0.036679632 0.14803407)
(-0.017591714 -0.025913681 0.1191918)
(0.0031324106 -0.011111918 0.057468144)
(0.012952921 -0.015310726 0.091282196)
(0.015789105 -0.01632684 0.10104776)
(0.014561557 -0.016674095 0.10468399)
(0.010672663 -0.016929638 0.10659234)
(0.0048931686 -0.01711277 0.1086241)
(-0.0037674715 -0.01744927 0.11159452)
(-0.012127394 -0.017371474 0.11679483)
(-0.025913688 -0.017591711 0.1191918)
(-0.011806651 -0.011806649 0.10425392)
(0.0011631906 0.0011631876 0.0082983355)
(0.0058385767 0.0032514018 0.02134378)
(0.0084455141 0.0041986266 0.027778902)
(0.0078833073 0.0046161897 0.031226422)
(0.0050174987 0.0049037614 0.033477102)
(0.00035794923 0.0050673378 0.03595589)
(-0.0066785579 0.0053169125 0.039420664)
(-0.012947103 0.0051333276 0.045426658)
(-0.022179803 0.0051855674 0.050145724)
(-0.010455404 0.0014311723 0.050192564)
(0.003251405 0.0058385686 0.02134378)
(0.013933677 0.013933668 0.050178302)
(0.01978971 0.017917849 0.064903111)
(0.018977023 0.019918469 0.073029091)
(0.013413988 0.02108321 0.078289787)
(0.004388001 0.021745559 0.083285112)
(-0.0083739869 0.022066711 0.089159438)
(-0.01964395 0.021294484 0.097222301)
(-0.032800141 0.018586032 0.099295527)
(-0.014555472 0.0090507958 0.082234081)
(0.00419863 0.0084455047 0.027778902)
(0.017917858 0.0197897 0.064903111)
(0.025338016 0.025338005 0.084629874)
(0.024429386 0.028117931 0.095755376)
(0.017514222 0.029624073 0.10287054)
(0.006402877 0.030343277 0.10903453)
(-0.0088163793 0.030334614 0.1153766)
(-0.021919435 0.028713541 0.12266559)
(-0.035927902 0.023913108 0.12058353)
(-0.015556057 0.010992082 0.092818043)
(0.0046161934 0.0078833002 0.031226422)
(0.019918478 0.018977015 0.07302909)
(0.028117941 0.024429378 0.095755376)
(0.027122818 0.02712281 0.10869657)
(0.019446582 0.028488556 0.11686065)
(0.0072464171 0.029023089 0.12349801)
(-0.0091291243 0.028726861 0.12966822)
(-0.02296886 0.026842818 0.13579358)
(-0.037108328 0.021748412 0.13068003)
(-0.015883255 0.0095641507 0.097158572)
(0.0049037651 0.0050174966 0.033477102)
(0.021083219 0.013413986 0.078289787)
(0.029624084 0.017514219 0.10287054)
(0.028488565 0.019446579 0.11686065)
(0.020307969 0.020307966 0.12556826)
(0.0074593558 0.020501694 0.13236964)
(-0.0095544497 0.020022934 0.13828443)
(-0.023760318 0.018376231 0.14353321)
(-0.037889612 0.014378447 0.13648284)
(-0.0161122 0.0055831998 0.09958979)
(0.0050673414 0.0003579528 0.035955889)
(0.021745568 0.0043880049 0.083285112)
(0.030343288 0.0064028808 0.10903453)
(0.029023097 0.0072464208 0.12349801)
(0.020501697 0.0074593595 0.13236964)
(0.0072809366 0.0072809404 0.13917243)
(-0.010075977 0.0067193242 0.1449263)
(-0.024470417 0.005627122 0.14970504)
(-0.03854778 0.00352403 0.14148938)
(-0.016275237 -0.00015511569 0.10207723)
(0.005316916 -0.0066785499 0.039420663)
(0.02206672 -0.0083739782 0.089159437)
(0.030334624 -0.0088163704 0.1153766)
(0.028726869 -0.0091291155 0.12966822)
(0.020022937 -0.009554441 0.13828443)
(0.0067193205 -0.010075968 0.1449263)
(-0.010691196 -0.010691187 0.15065434)
(-0.02515622 -0.011156481 0.15544015)
(-0.039243807 -0.011059911 0.14684654)
(-0.016582769 -0.0083156585 0.10538091)
(0.0051333308 -0.012947094 0.045426657)
(0.021294493 -0.019643939 0.0972223)
(0.028713551 -0.021919424 0.12266559)
(0.026842826 -0.022968849 0.13579358)
(0.018376234 -0.023760308 0.14353321)
(0.0056271184 -0.024470406 0.14970504)
(-0.01115649 -0.025156209 0.15544015)
(-0.025244433 -0.025244423 0.16074731)
(-0.039285065 -0.023709104 0.15297034)
(-0.016490136 -0.015465648 0.1105211)
(0.0051855703 -0.022179795 0.050145723)
(0.01858604 -0.032800133 0.099295526)
(0.023913118 -0.035927894 0.12058353)
(0.02174842 -0.037108319 0.13068003)
(0.01437845 -0.037889604 0.13648284)
(0.0035240265 -0.038547772 0.14148938)
(-0.011059919 -0.039243799 0.14684654)
(-0.023709114 -0.039285056 0.15297034)
(-0.037434681 -0.037434673 0.14851492)
(-0.016492366 -0.025392958 0.11112501)
(0.001431175 -0.010455401 0.050192564)
(0.0090508031 -0.014555469 0.082234081)
(0.010992091 -0.015556054 0.092818044)
(0.0095641574 -0.015883251 0.097158573)
(0.0055832021 -0.016112196 0.099589791)
(-0.00015511872 -0.016275234 0.10207723)
(-0.0083156658 -0.016582766 0.10538091)
(-0.015465657 -0.016490133 0.1105211)
(-0.025392965 -0.016492363 0.11112501)
(-0.0107313 -0.010731297 0.09218423)
(0.00048529847 0.00048529537 0.0068365458)
(0.0034289084 0.0017716672 0.01847976)
(0.0050797176 0.0024666147 0.024978086)
(0.0042106579 0.0028042493 0.028801149)
(0.0012986993 0.0030511619 0.031455909)
(-0.0031759395 0.0031938781 0.034315071)
(-0.0095301671 0.003423781 0.038028721)
(-0.014592609 0.0032883568 0.043852307)
(-0.020670145 0.0034069425 0.047227363)
(-0.0091649149 0.0005665044 0.043826354)
(0.0017716705 0.0034289 0.01847976)
(0.0092498984 0.0092498892 0.04590883)
(0.013382608 0.012461196 0.061580175)
(0.011994127 0.014192117 0.070906771)
(0.0062725278 0.015240954 0.077202008)
(-0.0025426717 0.015853303 0.083026354)
(-0.01428109 0.016175566 0.089336063)
(-0.023516195 0.015567673 0.096888056)
(-0.031775617 0.013491837 0.09624097)
(-0.012954449 0.0063120757 0.073786171)
(0.0024666182 0.0050797078 0.024978087)
(0.012461205 0.013382597 0.061580175)
(0.017933702 0.017933691 0.083134352)
(0.016353141 0.020382065 0.096121515)
(0.0092183645 0.021767162 0.10471114)
(-0.0017046959 0.022456981 0.11194631)
(-0.015808302 0.022503347 0.1187249)
(-0.026608506 0.021155178 0.12514069)
(-0.035199431 0.017279473 0.11940537)
(-0.013907632 0.0074378744 0.08486319)
(0.002804253 0.0042106505 0.028801149)
(0.014192127 0.011994119 0.070906771)
(0.020382076 0.016353133 0.096121515)
(0.018689471 0.018689462 0.11138199)
(0.010773468 0.019938138 0.12129805)
(-0.001247682 0.020461266 0.12912207)
(-0.016469365 0.020256279 0.13565752)
(-0.02789754 0.018705267 0.14058556)
(-0.036441046 0.014675484 0.13113773)
(-0.014211305 0.0058121211 0.089804362)
(0.0030511657 0.001298697 0.031455909)
(0.015240963 0.0062725252 0.077202008)
(0.021767173 0.0092183617 0.10471114)
(0.019938147 0.010773466 0.12129805)
(0.011517932 0.011517929 0.13190962)
(-0.0011505752 0.011709542 0.13994285)
(-0.016989126 0.011342168 0.14615006)
(-0.028733699 0.010065858 0.14997231)
(-0.037198671 0.007211597 0.13813733)
(-0.014413159 0.0018384248 0.09272457)
(0.0031938818 -0.0031759358 0.034315071)
(0.015853312 -0.0025426677 0.083026354)
(0.022456992 -0.0017046919 0.11194631)
(0.020461275 -0.0012476782 0.12912207)
(0.011709545 -0.0011505714 0.13994285)
(-0.0013271237 -0.00132712 0.14797819)
(-0.017499858 -0.0017691135 0.15398074)
(-0.029415453 -0.0024737413 0.1572187)
(-0.037807952 -0.0033989893 0.14397636)
(-0.014555624 -0.0036828502 0.095594285)
(0.0034237846 -0.0095301588 0.03802872)
(0.016175575 -0.014281081 0.089336063)
(0.022503358 -0.015808292 0.1187249)
(0.020256288 -0.016469356 0.13565752)
(0.011342171 -0.016989117 0.14615006)
(-0.0017691173 -0.017499849 0.15398074)
(-0.017997216 -0.017997207 0.159954)
(-0.029993624 -0.018096107 0.16322443)
(-0.038415644 -0.016895307 0.14961356)