/*--------------------------------*- C++ -*----------------------------------*\
| =========                 |                                                 |
| \\      /  F ield         | OpenFOAM: The Open Source CFD Toolbox           |
|  \\    /   O peration     | Version:  dev                                   |
|   \\  /    A nd           | Web:      www.OpenFOAM.org                      |
|    \\/     M anipulation  |                                                 |
\*---------------------------------------------------------------------------*/
FoamFile
{
    version     2.0;
    format      ascii;
    class       volScalarField;
    location    "25";
    object      A;
}
// * * * * * * * * * * * * * * * * * * * * * * * * * * * * * * * * * * * * * //

dimensions      [0 0 0 0 1 0 0];

internalField   nonuniform List<scalar> 
10000
(
3.6609174e-48
3.6606029e-48
3.6604519e-48
3.6603831e-48
3.6603547e-48
3.6603444e-48
3.6603417e-48
3.6603427e-48
3.6603481e-48
3.660364e-48
3.6606029e-48
3.6602886e-48
3.6601377e-48
3.6600688e-48
3.6600404e-48
3.6600302e-48
3.6600276e-48
3.6600291e-48
3.6600357e-48
3.6600556e-48
3.6604519e-48
3.6601377e-48
3.6599868e-48
3.6599179e-48
3.6598896e-48
3.6598794e-48
3.6598769e-48
3.6598788e-48
3.6598862e-48
3.6599073e-48
3.6603831e-48
3.6600688e-48
3.6599179e-48
3.6598491e-48
3.6598207e-48
3.6598106e-48
3.6598083e-48
3.6598103e-48
3.6598181e-48
3.6598396e-48
3.6603547e-48
3.6600404e-48
3.6598896e-48
3.6598207e-48
3.6597924e-48
3.6597823e-48
3.65978e-48
3.6597821e-48
3.6597901e-48
3.6598117e-48
3.6603444e-48
3.6600302e-48
3.6598794e-48
3.6598106e-48
3.6597823e-48
3.6597722e-48
3.6597699e-48
3.6597721e-48
3.6597801e-48
3.6598018e-48
3.6603417e-48
3.6600276e-48
3.6598769e-48
3.6598083e-48
3.65978e-48
3.6597699e-48
3.6597677e-48
3.6597699e-48
3.6597778e-48
3.6597995e-48
3.6603427e-48
3.6600291e-48
3.6598788e-48
3.6598103e-48
3.6597821e-48
3.6597721e-48
3.6597699e-48
3.6597721e-48
3.65978e-48
3.6598017e-48
3.6603481e-48
3.6600357e-48
3.6598862e-48
3.6598181e-48
3.6597901e-48
3.6597801e-48
3.6597778e-48
3.65978e-48
3.659788e-48
3.6598097e-48
3.660364e-48
3.6600556e-48
3.6599073e-48
3.6598396e-48
3.6598117e-48
3.6598018e-48
3.6597995e-48
3.6598017e-48
3.6598097e-48
3.6598314e-48
1.6367047e-47
1.6365683e-47
1.6365019e-47
1.6364716e-47
1.636459e-47
1.6364545e-47
1.6364533e-47
1.6364538e-47
1.6364561e-47
1.6364634e-47
1.6365683e-47
1.636432e-47
1.6363656e-47
1.6363353e-47
1.6363228e-47
1.6363183e-47
1.6363171e-47
1.6363178e-47
1.6363207e-47
1.6363297e-47
1.6365019e-47
1.6363656e-47
1.6362993e-47
1.6362689e-47
1.6362564e-47
1.6362519e-47
1.6362509e-47
1.6362517e-47
1.6362549e-47
1.6362645e-47
1.6364716e-47
1.6363353e-47
1.6362689e-47
1.6362386e-47
1.6362261e-47
1.6362216e-47
1.6362206e-47
1.6362215e-47
1.6362249e-47
1.6362347e-47
1.636459e-47
1.6363228e-47
1.6362564e-47
1.6362261e-47
1.6362136e-47
1.6362092e-47
1.6362081e-47
1.6362091e-47
1.6362126e-47
1.6362224e-47
1.6364545e-47
1.6363183e-47
1.6362519e-47
1.6362216e-47
1.6362092e-47
1.6362047e-47
1.6362037e-47
1.6362047e-47
1.6362082e-47
1.636218e-47
1.6364533e-47
1.6363171e-47
1.6362509e-47
1.6362206e-47
1.6362081e-47
1.6362037e-47
1.6362027e-47
1.6362037e-47
1.6362072e-47
1.636217e-47
1.6364538e-47
1.6363178e-47
1.6362517e-47
1.6362215e-47
1.6362091e-47
1.6362047e-47
1.6362037e-47
1.6362046e-47
1.6362082e-47
1.636218e-47
1.6364561e-47
1.6363207e-47
1.6362549e-47
1.6362249e-47
1.6362126e-47
1.6362082e-47
1.6362072e-47
1.6362082e-47
1.6362117e-47
1.6362215e-47
1.6364634e-47
1.6363297e-47
1.6362645e-47
1.6362347e-47
1.6362224e-47
1.636218e-47
1.636217e-47
1.636218e-47
1.6362215e-47
1.6362313e-47
5.4011426e-47
5.4007056e-47
5.4004915e-47
5.4003935e-47
5.4003531e-47
5.4003384e-47
5.4003346e-47
5.4003361e-47
5.4003436e-47
5.400367e-47
5.4007056e-47
5.4002688e-47
5.4000548e-47
5.3999568e-47
5.3999164e-47
5.3999018e-47
5.3998981e-47
5.3999002e-47
5.3999096e-47
5.3999386e-47
5.4004915e-47
5.4000548e-47
5.3998408e-47
5.3997428e-47
5.3997024e-47
5.3996879e-47
5.3996845e-47
5.3996871e-47
5.3996976e-47
5.3997284e-47
5.4003935e-47
5.3999568e-47
5.3997428e-47
5.3996449e-47
5.3996045e-47
5.3995901e-47
5.3995868e-47
5.3995897e-47
5.3996007e-47
5.3996321e-47
5.4003531e-47
5.3999164e-47
5.3997024e-47
5.3996045e-47
5.3995642e-47
5.3995498e-47
5.3995465e-47
5.3995496e-47
5.3995608e-47
5.3995924e-47
5.4003384e-47
5.3999018e-47
5.3996879e-47
5.3995901e-47
5.3995498e-47
5.3995354e-47
5.3995321e-47
5.3995353e-47
5.3995465e-47
5.3995783e-47
5.4003346e-47
5.3998981e-47
5.3996845e-47
5.3995868e-47
5.3995465e-47
5.3995321e-47
5.3995289e-47
5.3995321e-47
5.3995434e-47
5.3995751e-47
5.4003361e-47
5.3999002e-47
5.3996871e-47
5.3995897e-47
5.3995496e-47
5.3995353e-47
5.3995321e-47
5.3995352e-47
5.3995465e-47
5.3995783e-47
5.4003436e-47
5.3999096e-47
5.3996976e-47
5.3996007e-47
5.3995608e-47
5.3995465e-47
5.3995434e-47
5.3995465e-47
5.3995579e-47
5.3995896e-47
5.400367e-47
5.3999386e-47
5.3997284e-47
5.3996321e-47
5.3995924e-47
5.3995783e-47
5.3995751e-47
5.3995783e-47
5.3995896e-47
5.3996214e-47
1.7682437e-46
1.7681048e-46
1.7680365e-46
1.7680052e-46
1.7679922e-46
1.7679875e-46
1.7679863e-46
1.7679868e-46
1.7679891e-46
1.7679964e-46
1.7681048e-46
1.767966e-46
1.7678977e-46
1.7678664e-46
1.7678534e-46
1.7678488e-46
1.7678476e-46
1.7678483e-46
1.7678512e-46
1.7678604e-46
1.7680365e-46
1.7678977e-46
1.7678294e-46
1.7677981e-46
1.7677852e-46
1.7677805e-46
1.7677794e-46
1.7677803e-46
1.7677836e-46
1.7677933e-46
1.7680052e-46
1.7678664e-46
1.7677981e-46
1.7677668e-46
1.7677539e-46
1.7677493e-46
1.7677482e-46
1.7677491e-46
1.7677526e-46
1.7677625e-46
1.7679922e-46
1.7678534e-46
1.7677852e-46
1.7677539e-46
1.767741e-46
1.7677364e-46
1.7677353e-46
1.7677363e-46
1.7677399e-46
1.7677498e-46
1.7679875e-46
1.7678488e-46
1.7677805e-46
1.7677493e-46
1.7677364e-46
1.7677318e-46
1.7677307e-46
1.7677317e-46
1.7677353e-46
1.7677453e-46
1.7679863e-46
1.7678476e-46
1.7677794e-46
1.7677482e-46
1.7677353e-46
1.7677307e-46
1.7677297e-46
1.7677307e-46
1.7677343e-46
1.7677443e-46
1.7679868e-46
1.7678483e-46
1.7677803e-46
1.7677491e-46
1.7677363e-46
1.7677317e-46
1.7677307e-46
1.7677317e-46
1.7677353e-46
1.7677453e-46
1.7679891e-46
1.7678512e-46
1.7677836e-46
1.7677526e-46
1.7677399e-46
1.7677353e-46
1.7677343e-46
1.7677353e-46
1.7677389e-46
1.7677489e-46
1.7679964e-46
1.7678604e-46
1.7677933e-46
1.7677625e-46
1.7677498e-46
1.7677453e-46
1.7677443e-46
1.7677453e-46
1.7677489e-46
1.7677589e-46
5.8823936e-46
5.8819454e-46
5.8817241e-46
5.8816224e-46
5.8815803e-46
5.8815651e-46
5.8815611e-46
5.8815626e-46
5.8815703e-46
5.8815932e-46
5.8819454e-46
5.8814974e-46
5.8812761e-46
5.8811745e-46
5.8811325e-46
5.8811173e-46
5.8811135e-46
5.8811157e-46
5.8811253e-46
5.8811542e-46
5.8817241e-46
5.8812761e-46
5.8810549e-46
5.8809532e-46
5.8809113e-46
5.8808962e-46
5.8808926e-46
5.8808954e-46
5.8809061e-46
5.880937e-46
5.8816224e-46
5.8811745e-46
5.8809532e-46
5.8808516e-46
5.8808097e-46
5.8807947e-46
5.8807912e-46
5.8807943e-46
5.8808056e-46
5.8808372e-46
5.8815803e-46
5.8811325e-46
5.8809113e-46
5.8808097e-46
5.8807678e-46
5.8807528e-46
5.8807494e-46
5.8807526e-46
5.8807642e-46
5.8807959e-46
5.8815651e-46
5.8811173e-46
5.8808962e-46
5.8807947e-46
5.8807528e-46
5.8807378e-46
5.8807345e-46
5.8807378e-46
5.8807494e-46
5.8807812e-46
5.8815611e-46
5.8811135e-46
5.8808926e-46
5.8807912e-46
5.8807494e-46
5.8807345e-46
5.8807312e-46
5.8807345e-46
5.8807461e-46
5.880778e-46
5.8815626e-46
5.8811157e-46
5.8808954e-46
5.8807943e-46
5.8807526e-46
5.8807378e-46
5.8807345e-46
5.8807378e-46
5.8807494e-46
5.8807813e-46
5.8815703e-46
5.8811253e-46
5.8809061e-46
5.8808056e-46
5.8807642e-46
5.8807494e-46
5.8807461e-46
5.8807494e-46
5.8807611e-46
5.8807929e-46
5.8815932e-46
5.8811542e-46
5.880937e-46
5.8808372e-46
5.8807959e-46
5.8807812e-46
5.880778e-46
5.8807813e-46
5.8807929e-46
5.8808248e-46
1.9931108e-45
1.9929636e-45
1.9928906e-45
1.992857e-45
1.9928431e-45
1.992838e-45
1.9928367e-45
1.9928372e-45
1.9928397e-45
1.9928471e-45
1.9929636e-45
1.9928164e-45
1.9927434e-45
1.9927098e-45
1.9926959e-45
1.9926909e-45
1.9926896e-45
1.9926904e-45
1.9926935e-45
1.9927029e-45
1.9928906e-45
1.9927434e-45
1.9926704e-45
1.9926368e-45
1.992623e-45
1.992618e-45
1.9926168e-45
1.9926177e-45
1.9926212e-45
1.9926313e-45
1.992857e-45
1.9927098e-45
1.9926368e-45
1.9926033e-45
1.9925894e-45
1.9925844e-45
1.9925833e-45
1.9925843e-45
1.992588e-45
1.9925983e-45
1.9928431e-45
1.9926959e-45
1.992623e-45
1.9925894e-45
1.9925755e-45
1.9925706e-45
1.9925695e-45
1.9925705e-45
1.9925743e-45
1.9925846e-45
1.992838e-45
1.9926909e-45
1.992618e-45
1.9925844e-45
1.9925706e-45
1.9925656e-45
1.9925645e-45
1.9925656e-45
1.9925694e-45
1.9925798e-45
1.9928367e-45
1.9926896e-45
1.9926168e-45
1.9925833e-45
1.9925695e-45
1.9925645e-45
1.9925634e-45
1.9925645e-45
1.9925684e-45
1.9925787e-45
1.9928372e-45
1.9926904e-45
1.9926177e-45
1.9925843e-45
1.9925705e-45
1.9925656e-45
1.9925645e-45
1.9925656e-45
1.9925695e-45
1.9925798e-45
1.9928397e-45
1.9926935e-45
1.9926212e-45
1.992588e-45
1.9925743e-45
1.9925694e-45
1.9925684e-45
1.9925695e-45
1.9925733e-45
1.9925837e-45
1.9928471e-45
1.9927029e-45
1.9926313e-45
1.9925983e-45
1.9925846e-45
1.9925798e-45
1.9925787e-45
1.9925798e-45
1.9925837e-45
1.992594e-45
6.8800708e-45
6.879578e-45
6.8793328e-45
6.8792198e-45
6.879173e-45
6.879156e-45
6.8791516e-45
6.8791533e-45
6.8791616e-45
6.8791856e-45
6.879578e-45
6.8790854e-45
6.8788403e-45
6.8787273e-45
6.8786805e-45
6.8786637e-45
6.8786594e-45
6.8786619e-45
6.8786724e-45
6.8787033e-45
6.8793328e-45
6.8788403e-45
6.8785952e-45
6.8784822e-45
6.8784355e-45
6.8784187e-45
6.8784147e-45
6.8784178e-45
6.8784297e-45
6.8784628e-45
6.8792198e-45
6.8787273e-45
6.8784822e-45
6.8783693e-45
6.8783226e-45
6.8783059e-45
6.8783021e-45
6.8783055e-45
6.878318e-45
6.8783518e-45
6.879173e-45
6.8786805e-45
6.8784355e-45
6.8783226e-45
6.8782759e-45
6.8782592e-45
6.8782555e-45
6.8782591e-45
6.8782719e-45
6.8783059e-45
6.879156e-45
6.8786637e-45
6.8784187e-45
6.8783059e-45
6.8782592e-45
6.8782426e-45
6.8782389e-45
6.8782426e-45
6.8782554e-45
6.8782896e-45
6.8791516e-45
6.8786594e-45
6.8784147e-45
6.8783021e-45
6.8782555e-45
6.8782389e-45
6.8782352e-45
6.8782389e-45
6.8782518e-45
6.878286e-45
6.8791533e-45
6.8786619e-45
6.8784178e-45
6.8783055e-45
6.8782591e-45
6.8782426e-45
6.8782389e-45
6.8782427e-45
6.8782555e-45
6.8782897e-45
6.8791616e-45
6.8786724e-45
6.8784297e-45
6.878318e-45
6.8782719e-45
6.8782554e-45
6.8782518e-45
6.8782555e-45
6.8782684e-45
6.8783026e-45
6.8791856e-45
6.8787033e-45
6.8784628e-45
6.8783518e-45
6.8783059e-45
6.8782896e-45
6.878286e-45
6.8782897e-45
6.8783026e-45
6.8783368e-45
2.4197576e-44
2.4195896e-44
2.4195058e-44
2.419467e-44
2.419451e-44
2.4194452e-44
2.4194436e-44
2.4194442e-44
2.419447e-44
2.419455e-44
2.4195896e-44
2.4194218e-44
2.4193379e-44
2.4192992e-44
2.4192832e-44
2.4192774e-44
2.4192759e-44
2.4192768e-44
2.4192804e-44
2.4192907e-44
2.4195058e-44
2.4193379e-44
2.4192541e-44
2.4192154e-44
2.4191994e-44
2.4191936e-44
2.4191922e-44
2.4191933e-44
2.4191974e-44
2.4192085e-44
2.419467e-44
2.4192992e-44
2.4192154e-44
2.4191767e-44
2.4191607e-44
2.4191549e-44
2.4191536e-44
2.4191548e-44
2.4191591e-44
2.4191705e-44
2.419451e-44
2.4192832e-44
2.4191994e-44
2.4191607e-44
2.4191447e-44
2.4191389e-44
2.4191377e-44
2.4191389e-44
2.4191433e-44
2.4191548e-44
2.4194452e-44
2.4192774e-44
2.4191936e-44
2.4191549e-44
2.4191389e-44
2.4191332e-44
2.419132e-44
2.4191333e-44
2.4191376e-44
2.4191492e-44
2.4194436e-44
2.4192759e-44
2.4191922e-44
2.4191536e-44
2.4191377e-44
2.419132e-44
2.4191307e-44
2.419132e-44
2.4191364e-44
2.4191479e-44
2.4194442e-44
2.4192768e-44
2.4191933e-44
2.4191548e-44
2.4191389e-44
2.4191333e-44
2.419132e-44
2.4191333e-44
2.4191377e-44
2.4191492e-44
2.419447e-44
2.4192804e-44
2.4191974e-44
2.4191591e-44
2.4191433e-44
2.4191376e-44
2.4191364e-44
2.4191377e-44
2.4191421e-44
2.4191536e-44
2.419455e-44
2.4192907e-44
2.4192085e-44
2.4191705e-44
2.4191548e-44
2.4191492e-44
2.4191479e-44
2.4191492e-44
2.4191536e-44
2.4191652e-44
8.6714222e-44
8.6708393e-44
8.6705471e-44
8.670412e-44
8.670356e-44
8.6703357e-44
8.6703304e-44
8.6703324e-44
8.6703421e-44
8.6703693e-44
8.6708393e-44
8.6702566e-44
8.6699645e-44
8.6698295e-44
8.6697735e-44
8.6697533e-44
8.6697483e-44
8.6697512e-44
8.6697637e-44
8.6697992e-44
8.6705471e-44
8.6699645e-44
8.6696725e-44
8.6695375e-44
8.6694816e-44
8.6694615e-44
8.6694568e-44
8.6694605e-44
8.6694746e-44
8.6695129e-44
8.670412e-44
8.6698295e-44
8.6695375e-44
8.6694025e-44
8.6693466e-44
8.6693266e-44
8.6693221e-44
8.6693263e-44
8.6693412e-44
8.6693803e-44
8.670356e-44
8.6697735e-44
8.6694816e-44
8.6693466e-44
8.6692907e-44
8.6692707e-44
8.6692663e-44
8.6692707e-44
8.6692859e-44
8.6693254e-44
8.6703357e-44
8.6697533e-44
8.6694615e-44
8.6693266e-44
8.6692707e-44
8.6692508e-44
8.6692465e-44
8.6692509e-44
8.6692662e-44
8.6693058e-44
8.6703304e-44
8.6697483e-44
8.6694568e-44
8.6693221e-44
8.6692663e-44
8.6692465e-44
8.6692421e-44
8.6692466e-44
8.669262e-44
8.6693016e-44
8.6703324e-44
8.6697512e-44
8.6694605e-44
8.6693263e-44
8.6692707e-44
8.6692509e-44
8.6692466e-44
8.6692511e-44
8.6692665e-44
8.6693061e-44
8.6703421e-44
8.6697637e-44
8.6694746e-44
8.6693412e-44
8.6692859e-44
8.6692662e-44
8.669262e-44
8.6692665e-44
8.6692819e-44
8.6693215e-44
8.6703693e-44
8.6697992e-44
8.6695129e-44
8.6693803e-44
8.6693254e-44
8.6693058e-44
8.6693016e-44
8.6693061e-44
8.6693215e-44
8.6693611e-44
3.1663962e-43
3.1661902e-43
3.1660865e-43
3.1660385e-43
3.1660186e-43
3.1660114e-43
3.1660095e-43
3.1660102e-43
3.1660136e-43
3.166023e-43
3.1661902e-43
3.1659842e-43
3.1658806e-43
3.1658326e-43
3.1658127e-43
3.1658055e-43
3.1658037e-43
3.1658048e-43
3.1658092e-43
3.1658216e-43
3.1660865e-43
3.1658806e-43
3.165777e-43
3.165729e-43
3.1657091e-43
3.165702e-43
3.1657003e-43
3.1657016e-43
3.1657066e-43
3.16572e-43
3.1660385e-43
3.1658326e-43
3.165729e-43
3.165681e-43
3.1656612e-43
3.165654e-43
3.1656525e-43
3.165654e-43
3.1656592e-43
3.165673e-43
3.1660186e-43
3.1658127e-43
3.1657091e-43
3.1656612e-43
3.1656413e-43
3.1656342e-43
3.1656326e-43
3.1656342e-43
3.1656396e-43
3.1656534e-43
3.1660114e-43
3.1658055e-43
3.165702e-43
3.165654e-43
3.1656342e-43
3.1656271e-43
3.1656256e-43
3.1656272e-43
3.1656326e-43
3.1656465e-43
3.1660095e-43
3.1658037e-43
3.1657003e-43
3.1656525e-43
3.1656326e-43
3.1656256e-43
3.165624e-43
3.1656256e-43
3.1656311e-43
3.165645e-43
3.1660102e-43
3.1658048e-43
3.1657016e-43
3.165654e-43
3.1656342e-43
3.1656272e-43
3.1656256e-43
3.1656273e-43
3.1656327e-43
3.1656466e-43
3.1660136e-43
3.1658092e-43
3.1657066e-43
3.1656592e-43
3.1656396e-43
3.1656326e-43
3.1656311e-43
3.1656327e-43
3.1656382e-43
3.1656521e-43
3.166023e-43
3.1658216e-43
3.16572e-43
3.165673e-43
3.1656534e-43
3.1656465e-43
3.165645e-43
3.1656466e-43
3.1656521e-43
3.1656659e-43
1.1781723e-42
1.1780981e-42
1.1780607e-42
1.1780433e-42
1.1780361e-42
1.1780335e-42
1.1780328e-42
1.178033e-42
1.1780343e-42
1.1780376e-42
1.1780981e-42
1.1780239e-42
1.1779865e-42
1.1779691e-42
1.1779619e-42
1.1779593e-42
1.1779587e-42
1.1779591e-42
1.1779607e-42
1.1779651e-42
1.1780607e-42
1.1779865e-42
1.1779491e-42
1.1779317e-42
1.1779245e-42
1.1779219e-42
1.1779213e-42
1.1779218e-42
1.1779236e-42
1.1779284e-42
1.1780433e-42
1.1779691e-42
1.1779317e-42
1.1779144e-42
1.1779072e-42
1.1779046e-42
1.177904e-42
1.1779046e-42
1.1779065e-42
1.1779114e-42
1.1780361e-42
1.1779619e-42
1.1779245e-42
1.1779072e-42
1.1779e-42
1.1778974e-42
1.1778968e-42
1.1778974e-42
1.1778994e-42
1.1779043e-42
1.1780335e-42
1.1779593e-42
1.1779219e-42
1.1779046e-42
1.1778974e-42
1.1778948e-42
1.1778943e-42
1.1778949e-42
1.1778968e-42
1.1779018e-42
1.1780328e-42
1.1779587e-42
1.1779213e-42
1.177904e-42
1.1778968e-42
1.1778943e-42
1.1778937e-42
1.1778943e-42
1.1778963e-42
1.1779012e-42
1.178033e-42
1.1779591e-42
1.1779218e-42
1.1779046e-42
1.1778974e-42
1.1778949e-42
1.1778943e-42
1.1778949e-42
1.1778969e-42
1.1779018e-42
1.1780343e-42
1.1779607e-42
1.1779236e-42
1.1779065e-42
1.1778994e-42
1.1778968e-42
1.1778963e-42
1.1778969e-42
1.1778989e-42
1.1779038e-42
1.1780376e-42
1.1779651e-42
1.1779284e-42
1.1779114e-42
1.1779043e-42
1.1779018e-42
1.1779012e-42
1.1779018e-42
1.1779038e-42
1.1779088e-42
4.4671258e-42
4.4668538e-42
4.466716e-42
4.466652e-42
4.4666254e-42
4.4666157e-42
4.4666132e-42
4.4666142e-42
4.4666187e-42
4.4666306e-42
4.4668538e-42
4.4665818e-42
4.4664441e-42
4.4663801e-42
4.4663535e-42
4.4663439e-42
4.4663415e-42
4.466343e-42
4.4663488e-42
4.4663648e-42
4.466716e-42
4.4664441e-42
4.4663064e-42
4.4662424e-42
4.4662158e-42
4.4662063e-42
4.4662041e-42
4.4662059e-42
4.4662126e-42
4.4662299e-42
4.466652e-42
4.4663801e-42
4.4662424e-42
4.4661784e-42
4.4661519e-42
4.4661424e-42
4.4661403e-42
4.4661423e-42
4.4661494e-42
4.4661672e-42
4.4666254e-42
4.4663535e-42
4.4662158e-42
4.4661519e-42
4.4661254e-42
4.4661159e-42
4.4661138e-42
4.466116e-42
4.4661232e-42
4.4661412e-42
4.4666157e-42
4.4663439e-42
4.4662063e-42
4.4661424e-42
4.4661159e-42
4.4661064e-42
4.4661044e-42
4.4661066e-42
4.4661138e-42
4.4661319e-42
4.4666132e-42
4.4663415e-42
4.4662041e-42
4.4661403e-42
4.4661138e-42
4.4661044e-42
4.4661024e-42
4.4661046e-42
4.4661118e-42
4.4661299e-42
4.4666142e-42
4.466343e-42
4.4662059e-42
4.4661423e-42
4.466116e-42
4.4661066e-42
4.4661046e-42
4.4661068e-42
4.4661141e-42
4.4661321e-42
4.4666187e-42
4.4663488e-42
4.4662126e-42
4.4661494e-42
4.4661232e-42
4.4661138e-42
4.4661118e-42
4.4661141e-42
4.4661213e-42
4.4661394e-42
4.4666306e-42
4.4663648e-42
4.4662299e-42
4.4661672e-42
4.4661412e-42
4.4661319e-42
4.4661299e-42
4.4661321e-42
4.4661394e-42
4.4661574e-42
1.7259391e-41
1.7258375e-41
1.7257859e-41
1.7257619e-41
1.7257519e-41
1.7257483e-41
1.7257473e-41
1.7257477e-41
1.7257494e-41
1.7257537e-41
1.7258375e-41
1.7257359e-41
1.7256843e-41
1.7256603e-41
1.7256503e-41
1.7256467e-41
1.7256458e-41
1.7256464e-41
1.7256486e-41
1.7256545e-41
1.7257859e-41
1.7256843e-41
1.7256327e-41
1.7256087e-41
1.7255987e-41
1.7255952e-41
1.7255943e-41
1.725595e-41
1.7255975e-41
1.725604e-41
1.7257619e-41
1.7256603e-41
1.7256087e-41
1.7255847e-41
1.7255748e-41
1.7255712e-41
1.7255704e-41
1.7255712e-41
1.7255738e-41
1.7255804e-41
1.7257519e-41
1.7256503e-41
1.7255987e-41
1.7255748e-41
1.7255648e-41
1.7255612e-41
1.7255605e-41
1.7255613e-41
1.725564e-41
1.7255707e-41
1.7257483e-41
1.7256467e-41
1.7255952e-41
1.7255712e-41
1.7255612e-41
1.7255577e-41
1.7255569e-41
1.7255577e-41
1.7255605e-41
1.7255672e-41
1.7257473e-41
1.7256458e-41
1.7255943e-41
1.7255704e-41
1.7255605e-41
1.7255569e-41
1.7255562e-41
1.725557e-41
1.7255597e-41
1.7255664e-41
1.7257477e-41
1.7256464e-41
1.725595e-41
1.7255712e-41
1.7255613e-41
1.7255577e-41
1.725557e-41
1.7255578e-41
1.7255606e-41
1.7255673e-41
1.7257494e-41
1.7256486e-41
1.7255975e-41
1.7255738e-41
1.725564e-41
1.7255605e-41
1.7255597e-41
1.7255606e-41
1.7255633e-41
1.72557e-41
1.7257537e-41
1.7256545e-41
1.725604e-41
1.7255804e-41
1.7255707e-41
1.7255672e-41
1.7255664e-41
1.7255673e-41
1.72557e-41
1.7255767e-41
6.7951235e-41
6.7947369e-41
6.79454e-41
6.7944482e-41
6.79441e-41
6.7943961e-41
6.7943925e-41
6.794394e-41
6.7944003e-41
6.7944165e-41
6.7947369e-41
6.7943505e-41
6.7941536e-41
6.7940619e-41
6.7940237e-41
6.7940099e-41
6.7940065e-41
6.7940086e-41
6.794017e-41
6.7940393e-41
6.79454e-41
6.7941536e-41
6.7939567e-41
6.793865e-41
6.7938268e-41
6.7938131e-41
6.79381e-41
6.7938127e-41
6.7938222e-41
6.7938466e-41
6.7944482e-41
6.7940619e-41
6.793865e-41
6.7937733e-41
6.7937352e-41
6.7937215e-41
6.7937185e-41
6.7937215e-41
6.7937317e-41
6.7937567e-41
6.79441e-41
6.7940237e-41
6.7938268e-41
6.7937352e-41
6.7936971e-41
6.7936834e-41
6.7936805e-41
6.7936837e-41
6.793694e-41
6.7937193e-41
6.7943961e-41
6.7940099e-41
6.7938131e-41
6.7937215e-41
6.7936834e-41
6.7936699e-41
6.793667e-41
6.7936702e-41
6.7936806e-41
6.7937059e-41
6.7943925e-41
6.7940065e-41
6.79381e-41
6.7937185e-41
6.7936805e-41
6.793667e-41
6.7936641e-41
6.7936673e-41
6.7936778e-41
6.7937031e-41
6.794394e-41
6.7940086e-41
6.7938127e-41
6.7937215e-41
6.7936837e-41
6.7936702e-41
6.7936673e-41
6.7936706e-41
6.7936811e-41
6.7937064e-41
6.7944003e-41
6.794017e-41
6.7938222e-41
6.7937317e-41
6.793694e-41
6.7936806e-41
6.7936778e-41
6.7936811e-41
6.7936915e-41
6.7937169e-41
6.7944165e-41
6.7940393e-41
6.7938466e-41
6.7937567e-41
6.7937193e-41
6.7937059e-41
6.7937031e-41
6.7937064e-41
6.7937169e-41
6.7937422e-41
2.7260567e-40
2.7259069e-40
2.7258304e-40
2.7257947e-40
2.7257798e-40
2.7257744e-40
2.725773e-40
2.7257736e-40
2.725776e-40
2.7257822e-40
2.7259069e-40
2.7257572e-40
2.7256807e-40
2.725645e-40
2.7256302e-40
2.7256248e-40
2.7256235e-40
2.7256243e-40
2.7256275e-40
2.7256361e-40
2.7258304e-40
2.7256807e-40
2.7256042e-40
2.7255685e-40
2.7255537e-40
2.7255483e-40
2.7255471e-40
2.7255482e-40
2.7255519e-40
2.7255613e-40
2.7257947e-40
2.725645e-40
2.7255685e-40
2.7255328e-40
2.725518e-40
2.7255127e-40
2.7255115e-40
2.7255127e-40
2.7255166e-40
2.7255263e-40
2.7257798e-40
2.7256302e-40
2.7255537e-40
2.725518e-40
2.7255031e-40
2.7254978e-40
2.7254967e-40
2.725498e-40
2.725502e-40
2.7255117e-40
2.7257744e-40
2.7256248e-40
2.7255483e-40
2.7255127e-40
2.7254978e-40
2.7254926e-40
2.7254914e-40
2.7254927e-40
2.7254968e-40
2.7255065e-40
2.725773e-40
2.7256235e-40
2.7255471e-40
2.7255115e-40
2.7254967e-40
2.7254914e-40
2.7254903e-40
2.7254916e-40
2.7254957e-40
2.7255055e-40
2.7257736e-40
2.7256243e-40
2.7255482e-40
2.7255127e-40
2.725498e-40
2.7254927e-40
2.7254916e-40
2.7254929e-40
2.725497e-40
2.7255067e-40
2.725776e-40
2.7256275e-40
2.7255519e-40
2.7255166e-40
2.725502e-40
2.7254968e-40
2.7254957e-40
2.725497e-40
2.7255011e-40
2.7255108e-40
2.7257822e-40
2.7256361e-40
2.7255613e-40
2.7255263e-40
2.7255117e-40
2.7255065e-40
2.7255055e-40
2.7255067e-40
2.7255108e-40
2.7255206e-40
1.1143542e-39
1.1142951e-39
1.1142648e-39
1.1142507e-39
1.1142448e-39
1.1142426e-39
1.1142421e-39
1.1142423e-39
1.1142433e-39
1.1142457e-39
1.1142951e-39
1.114236e-39
1.1142058e-39
1.1141916e-39
1.1141857e-39
1.1141836e-39
1.1141831e-39
1.1141834e-39
1.1141847e-39
1.1141881e-39
1.1142648e-39
1.1142058e-39
1.1141755e-39
1.1141613e-39
1.1141555e-39
1.1141533e-39
1.1141529e-39
1.1141533e-39
1.1141548e-39
1.1141584e-39
1.1142507e-39
1.1141916e-39
1.1141613e-39
1.1141472e-39
1.1141413e-39
1.1141392e-39
1.1141387e-39
1.1141392e-39
1.1141408e-39
1.1141446e-39
1.1142448e-39
1.1141857e-39
1.1141555e-39
1.1141413e-39
1.1141354e-39
1.1141333e-39
1.1141329e-39
1.1141334e-39
1.114135e-39
1.1141388e-39
1.1142426e-39
1.1141836e-39
1.1141533e-39
1.1141392e-39
1.1141333e-39
1.1141312e-39
1.1141308e-39
1.1141313e-39
1.1141329e-39
1.1141368e-39
1.1142421e-39
1.1141831e-39
1.1141529e-39
1.1141387e-39
1.1141329e-39
1.1141308e-39
1.1141304e-39
1.1141309e-39
1.1141325e-39
1.1141363e-39
1.1142423e-39
1.1141834e-39
1.1141533e-39
1.1141392e-39
1.1141334e-39
1.1141313e-39
1.1141309e-39
1.1141314e-39
1.114133e-39
1.1141368e-39
1.1142433e-39
1.1141847e-39
1.1141548e-39
1.1141408e-39
1.114135e-39
1.1141329e-39
1.1141325e-39
1.114133e-39
1.1141346e-39
1.1141385e-39
1.1142457e-39
1.1141881e-39
1.1141584e-39
1.1141446e-39
1.1141388e-39
1.1141368e-39
1.1141363e-39
1.1141368e-39
1.1141385e-39
1.1141423e-39
4.6413198e-39
4.6410825e-39
4.6409605e-39
4.6409034e-39
4.6408795e-39
4.6408709e-39
4.6408687e-39
4.6408696e-39
4.6408735e-39
4.6408829e-39
4.6410825e-39
4.6408453e-39
4.6407233e-39
4.6406662e-39
4.6406424e-39
4.6406338e-39
4.6406317e-39
4.640633e-39
4.6406382e-39
4.6406517e-39
4.6409605e-39
4.6407233e-39
4.6406013e-39
4.6405442e-39
4.6405204e-39
4.6405119e-39
4.6405099e-39
4.6405117e-39
4.6405177e-39
4.6405324e-39
4.6409034e-39
4.6406662e-39
4.6405442e-39
4.6404871e-39
4.6404634e-39
4.6404549e-39
4.640453e-39
4.640455e-39
4.6404613e-39
4.6404765e-39
4.6408795e-39
4.6406424e-39
4.6405204e-39
4.6404634e-39
4.6404396e-39
4.6404311e-39
4.6404293e-39
4.6404314e-39
4.6404379e-39
4.6404532e-39
4.6408709e-39
4.6406338e-39
4.6405119e-39
4.6404549e-39
4.6404311e-39
4.6404227e-39
4.6404209e-39
4.640423e-39
4.6404296e-39
4.6404449e-39
4.6408687e-39
4.6406317e-39
4.6405099e-39
4.640453e-39
4.6404293e-39
4.6404209e-39
4.6404191e-39
4.6404212e-39
4.6404278e-39
4.6404432e-39
4.6408696e-39
4.640633e-39
4.6405117e-39
4.640455e-39
4.6404314e-39
4.640423e-39
4.6404212e-39
4.6404233e-39
4.6404299e-39
4.6404453e-39
4.6408735e-39
4.6406382e-39
4.6405177e-39
4.6404613e-39
4.6404379e-39
4.6404296e-39
4.6404278e-39
4.6404299e-39
4.6404365e-39
4.6404519e-39
4.6408829e-39
4.6406517e-39
4.6405324e-39
4.6404765e-39
4.6404532e-39
4.6404449e-39
4.6404432e-39
4.6404453e-39
4.6404519e-39
4.6404673e-39
1.9695285e-38
1.9694314e-38
1.9693813e-38
1.9693579e-38
1.9693481e-38
1.9693445e-38
1.9693436e-38
1.969344e-38
1.9693456e-38
1.9693494e-38
1.9694314e-38
1.9693344e-38
1.9692843e-38
1.9692609e-38
1.9692511e-38
1.9692475e-38
1.9692467e-38
1.9692473e-38
1.9692494e-38
1.9692549e-38
1.9693813e-38
1.9692843e-38
1.9692343e-38
1.9692108e-38
1.9692011e-38
1.9691975e-38
1.9691968e-38
1.9691975e-38
1.9692e-38
1.969206e-38
1.9693579e-38
1.9692609e-38
1.9692108e-38
1.9691874e-38
1.9691776e-38
1.9691741e-38
1.9691734e-38
1.9691742e-38
1.9691768e-38
1.969183e-38
1.9693481e-38
1.9692511e-38
1.9692011e-38
1.9691776e-38
1.9691679e-38
1.9691644e-38
1.9691636e-38
1.9691645e-38
1.9691672e-38
1.9691734e-38
1.9693445e-38
1.9692475e-38
1.9691975e-38
1.9691741e-38
1.9691644e-38
1.9691609e-38
1.9691602e-38
1.969161e-38
1.9691638e-38
1.96917e-38
1.9693436e-38
1.9692467e-38
1.9691968e-38
1.9691734e-38
1.9691636e-38
1.9691602e-38
1.9691595e-38
1.9691603e-38
1.9691631e-38
1.9691693e-38
1.969344e-38
1.9692473e-38
1.9691975e-38
1.9691742e-38
1.9691645e-38
1.969161e-38
1.9691603e-38
1.9691612e-38
1.9691639e-38
1.9691702e-38
1.9693456e-38
1.9692494e-38
1.9692e-38
1.9691768e-38
1.9691672e-38
1.9691638e-38
1.9691631e-38
1.9691639e-38
1.9691667e-38
1.9691729e-38
1.9693494e-38
1.9692549e-38
1.969206e-38
1.969183e-38
1.9691734e-38
1.96917e-38
1.9691693e-38
1.9691702e-38
1.9691729e-38
1.9691792e-38
8.5143499e-38
8.5139456e-38
8.5137365e-38
8.5136384e-38
8.5135974e-38
8.5135826e-38
8.5135788e-38
8.5135804e-38
8.5135871e-38
8.5136027e-38
8.5139456e-38
8.5135414e-38
8.5133324e-38
8.5132343e-38
8.5131934e-38
8.5131786e-38
8.5131751e-38
8.5131775e-38
8.5131865e-38
8.5132092e-38
8.5137365e-38
8.5133324e-38
8.5131234e-38
8.5130254e-38
8.5129845e-38
8.5129698e-38
8.5129665e-38
8.5129696e-38
8.51298e-38
8.513005e-38
8.5136384e-38
8.5132343e-38
8.5130254e-38
8.5129273e-38
8.5128865e-38
8.5128719e-38
8.5128688e-38
8.5128722e-38
8.5128833e-38
8.512909e-38
8.5135974e-38
8.5131934e-38
8.5129845e-38
8.5128865e-38
8.5128456e-38
8.5128311e-38
8.512828e-38
8.5128316e-38
8.512843e-38
8.512869e-38
8.5135826e-38
8.5131786e-38
8.5129698e-38
8.5128719e-38
8.5128311e-38
8.5128165e-38
8.5128135e-38
8.5128172e-38
8.5128286e-38
8.5128548e-38
8.5135788e-38
8.5131751e-38
8.5129665e-38
8.5128688e-38
8.512828e-38
8.5128135e-38
8.5128106e-38
8.5128143e-38
8.5128257e-38
8.5128519e-38
8.5135804e-38
8.5131775e-38
8.5129696e-38
8.5128722e-38
8.5128316e-38
8.5128172e-38
8.5128143e-38
8.512818e-38
8.5128295e-38
8.5128556e-38
8.5135871e-38
8.5131865e-38
8.51298e-38
8.5128833e-38
8.512843e-38
8.5128286e-38
8.5128257e-38
8.5128295e-38
8.5128409e-38
8.5128671e-38
8.5136027e-38
8.5132092e-38
8.513005e-38
8.512909e-38
8.512869e-38
8.5128548e-38
8.5128519e-38
8.5128556e-38
8.5128671e-38
8.5128932e-38
3.7494545e-37
3.7492831e-37
3.7491943e-37
3.7491525e-37
3.7491351e-37
3.7491287e-37
3.7491271e-37
3.7491278e-37
3.7491307e-37
3.7491372e-37
3.7492831e-37
3.7491118e-37
3.7490229e-37
3.7489812e-37
3.7489638e-37
3.7489575e-37
3.748956e-37
3.748957e-37
3.7489609e-37
3.7489705e-37
3.7491943e-37
3.7490229e-37
3.7489341e-37
3.7488924e-37
3.748875e-37
3.7488687e-37
3.7488673e-37
3.7488686e-37
3.7488731e-37
3.7488837e-37
3.7491525e-37
3.7489812e-37
3.7488924e-37
3.7488507e-37
3.7488332e-37
3.748827e-37
3.7488257e-37
3.7488272e-37
3.7488319e-37
3.7488429e-37
3.7491351e-37
3.7489638e-37
3.748875e-37
3.7488332e-37
3.7488159e-37
3.7488096e-37
3.7488084e-37
3.7488099e-37
3.7488148e-37
3.7488258e-37
3.7491287e-37
3.7489575e-37
3.7488687e-37
3.748827e-37
3.7488096e-37
3.7488035e-37
3.7488022e-37
3.7488038e-37
3.7488087e-37
3.7488198e-37
3.7491271e-37
3.748956e-37
3.7488673e-37
3.7488257e-37
3.7488084e-37
3.7488022e-37
3.7488009e-37
3.7488025e-37
3.7488075e-37
3.7488185e-37
3.7491278e-37
3.748957e-37
3.7488686e-37
3.7488272e-37
3.7488099e-37
3.7488038e-37
3.7488025e-37
3.7488042e-37
3.7488091e-37
3.7488202e-37
3.7491307e-37
3.7489609e-37
3.7488731e-37
3.7488319e-37
3.7488148e-37
3.7488087e-37
3.7488075e-37
3.7488091e-37
3.748814e-37
3.7488251e-37
3.7491372e-37
3.7489705e-37
3.7488837e-37
3.7488429e-37
3.7488258e-37
3.7488198e-37
3.7488185e-37
3.7488202e-37
3.7488251e-37
3.7488362e-37
1.6817586e-36
1.6816846e-36
1.6816462e-36
1.6816281e-36
1.6816205e-36
1.6816178e-36
1.6816171e-36
1.6816174e-36
1.6816186e-36
1.6816214e-36
1.6816846e-36
1.6816107e-36
1.6815722e-36
1.6815541e-36
1.6815466e-36
1.6815439e-36
1.6815432e-36
1.6815437e-36
1.6815453e-36
1.6815495e-36
1.6816462e-36
1.6815722e-36
1.6815338e-36
1.6815157e-36
1.6815082e-36
1.6815055e-36
1.6815049e-36
1.6815054e-36
1.6815074e-36
1.681512e-36
1.6816281e-36
1.6815541e-36
1.6815157e-36
1.6814976e-36
1.6814901e-36
1.6814874e-36
1.6814868e-36
1.6814875e-36
1.6814896e-36
1.6814943e-36
1.6816205e-36
1.6815466e-36
1.6815082e-36
1.6814901e-36
1.6814826e-36
1.6814799e-36
1.6814793e-36
1.68148e-36
1.6814821e-36
1.6814869e-36
1.6816178e-36
1.6815439e-36
1.6815055e-36
1.6814874e-36
1.6814799e-36
1.6814772e-36
1.6814766e-36
1.6814773e-36
1.6814795e-36
1.6814843e-36
1.6816171e-36
1.6815432e-36
1.6815049e-36
1.6814868e-36
1.6814793e-36
1.6814766e-36
1.6814761e-36
1.6814768e-36
1.681479e-36
1.6814837e-36
1.6816174e-36
1.6815437e-36
1.6815054e-36
1.6814875e-36
1.68148e-36
1.6814773e-36
1.6814768e-36
1.6814775e-36
1.6814797e-36
1.6814845e-36
1.6816186e-36
1.6815453e-36
1.6815074e-36
1.6814896e-36
1.6814821e-36
1.6814795e-36
1.681479e-36
1.6814797e-36
1.6814818e-36
1.6814866e-36
1.6816214e-36
1.6815495e-36
1.681512e-36
1.6814943e-36
1.6814869e-36
1.6814843e-36
1.6814837e-36