/*--------------------------------*- C++ -*----------------------------------*\
| =========                 |                                                 |
| \\      /  F ield         | OpenFOAM: The Open Source CFD Toolbox           |
|  \\    /   O peration     | Version:  dev                                   |
|   \\  /    A nd           | Web:      www.OpenFOAM.org                      |
|    \\/     M anipulation  |                                                 |
\*---------------------------------------------------------------------------*/
FoamFile
{
    version     2.0;
    format      ascii;
    class       volScalarField;
    location    "25";
    object      A_0;
}
// * * * * * * * * * * * * * * * * * * * * * * * * * * * * * * * * * * * * * //

dimensions      [0 0 0 0 1 0 0];

internalField   nonuniform List<scalar> 
10000
(
3.620802e-48
3.6204909e-48
3.6203415e-48
3.6202734e-48
3.6202453e-48
3.6202351e-48
3.6202324e-48
3.6202335e-48
3.6202388e-48
3.6202546e-48
3.6204909e-48
3.6201799e-48
3.6200306e-48
3.6199625e-48
3.6199344e-48
3.6199243e-48
3.6199217e-48
3.6199232e-48
3.6199298e-48
3.6199494e-48
3.6203415e-48
3.6200306e-48
3.6198813e-48
3.6198132e-48
3.6197852e-48
3.6197751e-48
3.6197727e-48
3.6197745e-48
3.6197818e-48
3.6198027e-48
3.6202734e-48
3.6199625e-48
3.6198132e-48
3.6197451e-48
3.6197171e-48
3.6197071e-48
3.6197047e-48
3.6197068e-48
3.6197145e-48
3.6197357e-48
3.6202453e-48
3.6199344e-48
3.6197852e-48
3.6197171e-48
3.6196891e-48
3.6196791e-48
3.6196768e-48
3.6196789e-48
3.6196867e-48
3.6197081e-48
3.6202351e-48
3.6199243e-48
3.6197751e-48
3.6197071e-48
3.6196791e-48
3.6196691e-48
3.6196668e-48
3.619669e-48
3.6196769e-48
3.6196983e-48
3.6202324e-48
3.6199217e-48
3.6197727e-48
3.6197047e-48
3.6196768e-48
3.6196668e-48
3.6196646e-48
3.6196667e-48
3.6196747e-48
3.6196961e-48
3.6202335e-48
3.6199232e-48
3.6197745e-48
3.6197068e-48
3.6196789e-48
3.619669e-48
3.6196667e-48
3.6196689e-48
3.6196768e-48
3.6196983e-48
3.6202388e-48
3.6199298e-48
3.6197818e-48
3.6197145e-48
3.6196867e-48
3.6196769e-48
3.6196747e-48
3.6196768e-48
3.6196847e-48
3.6197062e-48
3.6202546e-48
3.6199494e-48
3.6198027e-48
3.6197357e-48
3.6197081e-48
3.6196983e-48
3.6196961e-48
3.6196983e-48
3.6197062e-48
3.6197277e-48
1.6188968e-47
1.6187619e-47
1.6186962e-47
1.6186661e-47
1.6186538e-47
1.6186493e-47
1.6186481e-47
1.6186486e-47
1.6186509e-47
1.6186581e-47
1.6187619e-47
1.618627e-47
1.6185613e-47
1.6185313e-47
1.6185189e-47
1.6185145e-47
1.6185134e-47
1.618514e-47
1.6185169e-47
1.6185258e-47
1.6186962e-47
1.6185613e-47
1.6184956e-47
1.6184656e-47
1.6184533e-47
1.6184488e-47
1.6184478e-47
1.6184486e-47
1.6184518e-47
1.6184613e-47
1.6186661e-47
1.6185313e-47
1.6184656e-47
1.6184356e-47
1.6184233e-47
1.6184189e-47
1.6184178e-47
1.6184187e-47
1.6184221e-47
1.6184318e-47
1.6186538e-47
1.6185189e-47
1.6184533e-47
1.6184233e-47
1.6184109e-47
1.6184065e-47
1.6184055e-47
1.6184065e-47
1.6184099e-47
1.6184196e-47
1.6186493e-47
1.6185145e-47
1.6184488e-47
1.6184189e-47
1.6184065e-47
1.6184021e-47
1.6184011e-47
1.6184021e-47
1.6184055e-47
1.6184153e-47
1.6186481e-47
1.6185134e-47
1.6184478e-47
1.6184178e-47
1.6184055e-47
1.6184011e-47
1.6184001e-47
1.6184011e-47
1.6184046e-47
1.6184143e-47
1.6186486e-47
1.618514e-47
1.6184486e-47
1.6184187e-47
1.6184065e-47
1.6184021e-47
1.6184011e-47
1.6184021e-47
1.6184055e-47
1.6184153e-47
1.6186509e-47
1.6185169e-47
1.6184518e-47
1.6184221e-47
1.6184099e-47
1.6184055e-47
1.6184046e-47
1.6184055e-47
1.618409e-47
1.6184187e-47
1.6186581e-47
1.6185258e-47
1.6184613e-47
1.6184318e-47
1.6184196e-47
1.6184153e-47
1.6184143e-47
1.6184153e-47
1.6184187e-47
1.6184285e-47
5.342993e-47
5.3425605e-47
5.3423487e-47
5.3422517e-47
5.3422117e-47
5.3421972e-47
5.3421934e-47
5.3421949e-47
5.3422023e-47
5.3422255e-47
5.3425605e-47
5.3421282e-47
5.3419165e-47
5.3418195e-47
5.3417795e-47
5.3417651e-47
5.3417615e-47
5.3417636e-47
5.3417728e-47
5.3418015e-47
5.3423487e-47
5.3419165e-47
5.3417047e-47
5.3416078e-47
5.3415678e-47
5.3415535e-47
5.3415501e-47
5.3415527e-47
5.3415631e-47
5.3415936e-47
5.3422517e-47
5.3418195e-47
5.3416078e-47
5.3415109e-47
5.341471e-47
5.3414567e-47
5.3414534e-47
5.3414563e-47
5.3414672e-47
5.3414983e-47
5.3422117e-47
5.3417795e-47
5.3415678e-47
5.341471e-47
5.3414311e-47
5.3414168e-47
5.3414136e-47
5.3414166e-47
5.3414277e-47
5.341459e-47
5.3421972e-47
5.3417651e-47
5.3415535e-47
5.3414567e-47
5.3414168e-47
5.3414026e-47
5.3413994e-47
5.3414025e-47
5.3414136e-47
5.341445e-47
5.3421934e-47
5.3417615e-47
5.3415501e-47
5.3414534e-47
5.3414136e-47
5.3413994e-47
5.3413962e-47
5.3413993e-47
5.3414105e-47
5.3414419e-47
5.3421949e-47
5.3417636e-47
5.3415527e-47
5.3414563e-47
5.3414166e-47
5.3414025e-47
5.3413993e-47
5.3414024e-47
5.3414136e-47
5.341445e-47
5.3422023e-47
5.3417728e-47
5.3415631e-47
5.3414672e-47
5.3414277e-47
5.3414136e-47
5.3414105e-47
5.3414136e-47
5.3414248e-47
5.3414562e-47
5.3422255e-47
5.3418015e-47
5.3415936e-47
5.3414983e-47
5.341459e-47
5.341445e-47
5.3414419e-47
5.341445e-47
5.3414562e-47
5.3414877e-47
1.7494261e-46
1.7492887e-46
1.7492211e-46
1.7491901e-46
1.7491773e-46
1.7491726e-46
1.7491714e-46
1.7491719e-46
1.7491742e-46
1.7491814e-46
1.7492887e-46
1.7491513e-46
1.7490837e-46
1.7490527e-46
1.7490399e-46
1.7490353e-46
1.7490341e-46
1.7490348e-46
1.7490377e-46
1.7490468e-46
1.7492211e-46
1.7490837e-46
1.7490161e-46
1.7489851e-46
1.7489724e-46
1.7489678e-46
1.7489667e-46
1.7489675e-46
1.7489708e-46
1.7489804e-46
1.7491901e-46
1.7490527e-46
1.7489851e-46
1.7489542e-46
1.7489414e-46
1.7489368e-46
1.7489358e-46
1.7489367e-46
1.7489402e-46
1.74895e-46
1.7491773e-46
1.7490399e-46
1.7489724e-46
1.7489414e-46
1.7489286e-46
1.7489241e-46
1.748923e-46
1.748924e-46
1.7489275e-46
1.7489374e-46
1.7491726e-46
1.7490353e-46
1.7489678e-46
1.7489368e-46
1.7489241e-46
1.7489195e-46
1.7489185e-46
1.7489195e-46
1.748923e-46
1.7489329e-46
1.7491714e-46
1.7490341e-46
1.7489667e-46
1.7489358e-46
1.748923e-46
1.7489185e-46
1.7489175e-46
1.7489185e-46
1.748922e-46
1.7489319e-46
1.7491719e-46
1.7490348e-46
1.7489675e-46
1.7489367e-46
1.748924e-46
1.7489195e-46
1.7489185e-46
1.7489195e-46
1.748923e-46
1.7489329e-46
1.7491742e-46
1.7490377e-46
1.7489708e-46
1.7489402e-46
1.7489275e-46
1.748923e-46
1.748922e-46
1.748923e-46
1.7489266e-46
1.7489365e-46
1.7491814e-46
1.7490468e-46
1.7489804e-46
1.74895e-46
1.7489374e-46
1.7489329e-46
1.7489319e-46
1.7489329e-46
1.7489365e-46
1.7489464e-46
5.8205411e-46
5.8200975e-46
5.8198784e-46
5.8197778e-46
5.8197362e-46
5.8197211e-46
5.8197171e-46
5.8197186e-46
5.8197262e-46
5.8197489e-46
5.8200975e-46
5.819654e-46
5.819435e-46
5.8193344e-46
5.8192928e-46
5.8192779e-46
5.8192741e-46
5.8192763e-46
5.8192857e-46
5.8193144e-46
5.8198784e-46
5.819435e-46
5.819216e-46
5.8191155e-46
5.8190739e-46
5.819059e-46
5.8190555e-46
5.8190582e-46
5.8190688e-46
5.8190994e-46
5.8197778e-46
5.8193344e-46
5.8191155e-46
5.8190149e-46
5.8189734e-46
5.8189585e-46
5.8189551e-46
5.8189582e-46
5.8189694e-46
5.8190006e-46
5.8197362e-46
5.8192928e-46
5.8190739e-46
5.8189734e-46
5.8189319e-46
5.8189171e-46
5.8189137e-46
5.8189169e-46
5.8189283e-46
5.8189598e-46
5.8197211e-46
5.8192779e-46
5.819059e-46
5.8189585e-46
5.8189171e-46
5.8189023e-46
5.818899e-46
5.8189022e-46
5.8189137e-46
5.8189452e-46
5.8197171e-46
5.8192741e-46
5.8190555e-46
5.8189551e-46
5.8189137e-46
5.818899e-46
5.8188957e-46
5.818899e-46
5.8189105e-46
5.818942e-46
5.8197186e-46
5.8192763e-46
5.8190582e-46
5.8189582e-46
5.8189169e-46
5.8189022e-46
5.818899e-46
5.8189022e-46
5.8189138e-46
5.8189453e-46
5.8197262e-46
5.8192857e-46
5.8190688e-46
5.8189694e-46
5.8189283e-46
5.8189137e-46
5.8189105e-46
5.8189138e-46
5.8189253e-46
5.8189568e-46
5.8197489e-46
5.8193144e-46
5.8190994e-46
5.8190006e-46
5.8189598e-46
5.8189452e-46
5.818942e-46
5.8189453e-46
5.8189568e-46
5.8189883e-46
1.9724101e-45
1.9722644e-45
1.9721921e-45
1.9721588e-45
1.9721451e-45
1.9721401e-45
1.9721388e-45
1.9721393e-45
1.9721417e-45
1.972149e-45
1.9722644e-45
1.9721186e-45
1.9720464e-45
1.9720131e-45
1.9719994e-45
1.9719944e-45
1.9719932e-45
1.9719939e-45
1.971997e-45
1.9720063e-45
1.9721921e-45
1.9720464e-45
1.9719741e-45
1.9719409e-45
1.9719272e-45
1.9719222e-45
1.9719211e-45
1.971922e-45
1.9719255e-45
1.9719354e-45
1.9721588e-45
1.9720131e-45
1.9719409e-45
1.9719077e-45
1.971894e-45
1.971889e-45
1.9718879e-45
1.9718889e-45
1.9718926e-45
1.9719027e-45
1.9721451e-45
1.9719994e-45
1.9719272e-45
1.971894e-45
1.9718802e-45
1.9718753e-45
1.9718742e-45
1.9718753e-45
1.9718791e-45
1.9718892e-45
1.9721401e-45
1.9719944e-45
1.9719222e-45
1.971889e-45
1.9718753e-45
1.9718704e-45
1.9718693e-45
1.9718704e-45
1.9718742e-45
1.9718844e-45
1.9721388e-45
1.9719932e-45
1.9719211e-45
1.9718879e-45
1.9718742e-45
1.9718693e-45
1.9718683e-45
1.9718694e-45
1.9718732e-45
1.9718834e-45
1.9721393e-45
1.9719939e-45
1.971922e-45
1.9718889e-45
1.9718753e-45
1.9718704e-45
1.9718694e-45
1.9718704e-45
1.9718742e-45
1.9718845e-45
1.9721417e-45
1.971997e-45
1.9719255e-45
1.9718926e-45
1.9718791e-45
1.9718742e-45
1.9718732e-45
1.9718742e-45
1.971878e-45
1.9718883e-45
1.972149e-45
1.9720063e-45
1.9719354e-45
1.9719027e-45
1.9718892e-45
1.9718844e-45
1.9718834e-45
1.9718845e-45
1.9718883e-45
1.9718985e-45
6.8095091e-45
6.8090212e-45
6.8087784e-45
6.8086666e-45
6.8086202e-45
6.8086034e-45
6.808599e-45
6.8086007e-45
6.8086089e-45
6.8086327e-45
6.8090212e-45
6.8085335e-45
6.8082908e-45
6.808179e-45
6.8081327e-45
6.808116e-45
6.8081118e-45
6.8081142e-45
6.8081246e-45
6.8081552e-45
6.8087784e-45
6.8082908e-45
6.8080481e-45
6.8079363e-45
6.8078901e-45
6.8078734e-45
6.8078695e-45
6.8078726e-45
6.8078843e-45
6.8079171e-45
6.8086666e-45
6.808179e-45
6.8079363e-45
6.8078245e-45
6.8077783e-45
6.8077617e-45
6.807758e-45
6.8077614e-45
6.8077738e-45
6.8078073e-45
6.8086202e-45
6.8081327e-45
6.8078901e-45
6.8077783e-45
6.8077321e-45
6.8077156e-45
6.8077119e-45
6.8077155e-45
6.8077281e-45
6.8077618e-45
6.8086034e-45
6.808116e-45
6.8078734e-45
6.8077617e-45
6.8077156e-45
6.8076991e-45
6.8076954e-45
6.8076991e-45
6.8077118e-45
6.8077456e-45
6.808599e-45
6.8081118e-45
6.8078695e-45
6.807758e-45
6.8077119e-45
6.8076954e-45
6.8076918e-45
6.8076955e-45
6.8077082e-45
6.8077421e-45
6.8086007e-45
6.8081142e-45
6.8078726e-45
6.8077614e-45
6.8077155e-45
6.8076991e-45
6.8076955e-45
6.8076992e-45
6.8077119e-45
6.8077458e-45
6.8086089e-45
6.8081246e-45
6.8078843e-45
6.8077738e-45
6.8077281e-45
6.8077118e-45
6.8077082e-45
6.8077119e-45
6.8077247e-45
6.8077585e-45
6.8086327e-45
6.8081552e-45
6.8079171e-45
6.8078073e-45
6.8077618e-45
6.8077456e-45
6.8077421e-45
6.8077458e-45
6.8077585e-45
6.8077924e-45
2.3952591e-44
2.3950928e-44
2.3950097e-44
2.3949714e-44
2.3949555e-44
2.3949497e-44
2.3949482e-44
2.3949488e-44
2.3949516e-44
2.3949595e-44
2.3950928e-44
2.3949265e-44
2.3948435e-44
2.3948052e-44
2.3947893e-44
2.3947836e-44
2.3947822e-44
2.394783e-44
2.3947865e-44
2.3947968e-44
2.3950097e-44
2.3948435e-44
2.3947605e-44
2.3947222e-44
2.3947063e-44
2.3947006e-44
2.3946993e-44
2.3947003e-44
2.3947044e-44
2.3947154e-44
2.3949714e-44
2.3948052e-44
2.3947222e-44
2.3946839e-44
2.394668e-44
2.3946624e-44
2.3946611e-44
2.3946623e-44
2.3946665e-44
2.3946778e-44
2.3949555e-44
2.3947893e-44
2.3947063e-44
2.394668e-44
2.3946522e-44
2.3946465e-44
2.3946453e-44
2.3946465e-44
2.3946508e-44
2.3946622e-44
2.3949497e-44
2.3947836e-44
2.3947006e-44
2.3946624e-44
2.3946465e-44
2.3946409e-44
2.3946396e-44
2.3946409e-44
2.3946452e-44
2.3946566e-44
2.3949482e-44
2.3947822e-44
2.3946993e-44
2.3946611e-44
2.3946453e-44
2.3946396e-44
2.3946384e-44
2.3946397e-44
2.394644e-44
2.3946554e-44
2.3949488e-44
2.394783e-44
2.3947003e-44
2.3946623e-44
2.3946465e-44
2.3946409e-44
2.3946397e-44
2.3946409e-44
2.3946453e-44
2.3946567e-44
2.3949516e-44
2.3947865e-44
2.3947044e-44
2.3946665e-44
2.3946508e-44
2.3946452e-44
2.394644e-44
2.3946453e-44
2.3946497e-44
2.3946611e-44
2.3949595e-44
2.3947968e-44
2.3947154e-44
2.3946778e-44
2.3946622e-44
2.3946566e-44
2.3946554e-44
2.3946567e-44
2.3946611e-44
2.3946725e-44
8.5847828e-44
8.5842055e-44
8.5839162e-44
8.5837825e-44
8.583727e-44
8.5837069e-44
8.5837016e-44
8.5837037e-44
8.5837133e-44
8.5837401e-44
8.5842055e-44
8.5836285e-44
8.5833393e-44
8.5832056e-44
8.5831501e-44
8.5831301e-44
8.5831251e-44
8.5831281e-44
8.5831404e-44
8.5831756e-44
8.5839162e-44
8.5833393e-44
8.5830501e-44
8.5829164e-44
8.582861e-44
8.5828411e-44
8.5828364e-44
8.5828402e-44
8.5828541e-44
8.582892e-44
8.5837825e-44
8.5832056e-44
8.5829164e-44
8.5827827e-44
8.5827274e-44
8.5827076e-44
8.5827031e-44
8.5827072e-44
8.582722e-44
8.5827608e-44
8.583727e-44
8.5831501e-44
8.582861e-44
8.5827274e-44
8.582672e-44
8.5826523e-44
8.5826479e-44
8.5826523e-44
8.5826673e-44
8.5827064e-44
8.5837069e-44
8.5831301e-44
8.5828411e-44
8.5827076e-44
8.5826523e-44
8.5826325e-44
8.5826282e-44
8.5826327e-44
8.5826478e-44
8.582687e-44
8.5837016e-44
8.5831251e-44
8.5828364e-44
8.5827031e-44
8.5826479e-44
8.5826282e-44
8.5826239e-44
8.5826284e-44
8.5826436e-44
8.5826828e-44
8.5837037e-44
8.5831281e-44
8.5828402e-44
8.5827072e-44
8.5826523e-44
8.5826327e-44
8.5826284e-44
8.5826329e-44
8.5826481e-44
8.5826873e-44
8.5837133e-44
8.5831404e-44
8.5828541e-44
8.582722e-44
8.5826673e-44
8.5826478e-44
8.5826436e-44
8.5826481e-44
8.5826633e-44
8.5827025e-44
8.5837401e-44
8.5831756e-44
8.582892e-44
8.5827608e-44
8.5827064e-44
8.582687e-44
8.5826828e-44
8.5826873e-44
8.5827025e-44
8.5827418e-44
3.1351851e-43
3.134981e-43
3.1348784e-43
3.1348309e-43
3.1348111e-43
3.134804e-43
3.1348021e-43
3.1348028e-43
3.1348062e-43
3.1348155e-43
3.134981e-43
3.134777e-43
3.1346744e-43
3.1346269e-43
3.1346072e-43
3.1346e-43
3.1345983e-43
3.1345993e-43
3.1346037e-43
3.134616e-43
3.1348784e-43
3.1346744e-43
3.1345718e-43
3.1345243e-43
3.1345046e-43
3.1344975e-43
3.1344959e-43
3.1344972e-43
3.1345021e-43
3.1345154e-43
3.1348309e-43
3.1346269e-43
3.1345243e-43
3.1344768e-43
3.1344571e-43
3.1344501e-43
3.1344485e-43
3.13445e-43
3.1344552e-43
3.1344688e-43
3.1348111e-43
3.1346072e-43
3.1345046e-43
3.1344571e-43
3.1344374e-43
3.1344304e-43
3.1344289e-43
3.1344304e-43
3.1344358e-43
3.1344495e-43
3.134804e-43
3.1346e-43
3.1344975e-43
3.1344501e-43
3.1344304e-43
3.1344234e-43
3.1344219e-43
3.1344234e-43
3.1344288e-43
3.1344426e-43
3.1348021e-43
3.1345983e-43
3.1344959e-43
3.1344485e-43
3.1344289e-43
3.1344219e-43
3.1344203e-43
3.1344219e-43
3.1344273e-43
3.1344411e-43
3.1348028e-43
3.1345993e-43
3.1344972e-43
3.13445e-43
3.1344304e-43
3.1344234e-43
3.1344219e-43
3.1344235e-43
3.1344289e-43
3.1344427e-43
3.1348062e-43
3.1346037e-43
3.1345021e-43
3.1344552e-43
3.1344358e-43
3.1344288e-43
3.1344273e-43
3.1344289e-43
3.1344343e-43
3.1344481e-43
3.1348155e-43
3.134616e-43
3.1345154e-43
3.1344688e-43
3.1344495e-43
3.1344426e-43
3.1344411e-43
3.1344427e-43
3.1344481e-43
3.1344618e-43
1.166719e-42
1.1666455e-42
1.1666084e-42
1.1665912e-42
1.1665841e-42
1.1665815e-42
1.1665808e-42
1.1665811e-42
1.1665823e-42
1.1665856e-42
1.1666455e-42
1.1665721e-42
1.166535e-42
1.1665178e-42
1.1665107e-42
1.1665081e-42
1.1665074e-42
1.1665078e-42
1.1665094e-42
1.1665138e-42
1.1666084e-42
1.166535e-42
1.1664979e-42
1.1664807e-42
1.1664736e-42
1.166471e-42
1.1664704e-42
1.1664709e-42
1.1664727e-42
1.1664774e-42
1.1665912e-42
1.1665178e-42
1.1664807e-42
1.1664635e-42
1.1664564e-42
1.1664539e-42
1.1664533e-42
1.1664538e-42
1.1664557e-42
1.1664606e-42
1.1665841e-42
1.1665107e-42
1.1664736e-42
1.1664564e-42
1.1664493e-42
1.1664467e-42
1.1664462e-42
1.1664468e-42
1.1664487e-42
1.1664536e-42
1.1665815e-42
1.1665081e-42
1.166471e-42
1.1664539e-42
1.1664467e-42
1.1664442e-42
1.1664436e-42
1.1664442e-42
1.1664462e-42
1.1664511e-42
1.1665808e-42
1.1665074e-42
1.1664704e-42
1.1664533e-42
1.1664462e-42
1.1664436e-42
1.1664431e-42
1.1664437e-42
1.1664456e-42
1.1664505e-42
1.1665811e-42
1.1665078e-42
1.1664709e-42
1.1664538e-42
1.1664468e-42
1.1664442e-42
1.1664437e-42
1.1664443e-42
1.1664462e-42
1.1664511e-42
1.1665823e-42
1.1665094e-42
1.1664727e-42
1.1664557e-42
1.1664487e-42
1.1664462e-42
1.1664456e-42
1.1664462e-42
1.1664482e-42
1.1664531e-42
1.1665856e-42
1.1665138e-42
1.1664774e-42
1.1664606e-42
1.1664536e-42
1.1664511e-42
1.1664505e-42
1.1664511e-42
1.1664531e-42
1.166458e-42
4.4243126e-42
4.424043e-42
4.4239066e-42
4.4238432e-42
4.4238168e-42
4.4238073e-42
4.4238048e-42
4.4238057e-42
4.4238102e-42
4.4238219e-42
4.424043e-42
4.4237736e-42
4.4236371e-42
4.4235738e-42
4.4235474e-42
4.4235379e-42
4.4235356e-42
4.423537e-42
4.4235428e-42
4.4235587e-42
4.4239066e-42
4.4236371e-42
4.4235007e-42
4.4234374e-42
4.423411e-42
4.4234016e-42
4.4233994e-42
4.4234012e-42
4.4234078e-42
4.423425e-42
4.4238432e-42
4.4235738e-42
4.4234374e-42
4.423374e-42
4.4233477e-42
4.4233383e-42
4.4233362e-42
4.4233382e-42
4.4233452e-42
4.4233629e-42
4.4238168e-42
4.4235474e-42
4.423411e-42
4.4233477e-42
4.4233214e-42
4.423312e-42
4.42331e-42
4.4233121e-42
4.4233193e-42
4.4233371e-42
4.4238073e-42
4.4235379e-42
4.4234016e-42
4.4233383e-42
4.423312e-42
4.4233027e-42
4.4233007e-42
4.4233028e-42
4.42331e-42
4.4233279e-42
4.4238048e-42
4.4235356e-42
4.4233994e-42
4.4233362e-42
4.42331e-42
4.4233007e-42
4.4232986e-42
4.4233008e-42
4.423308e-42
4.4233259e-42
4.4238057e-42
4.423537e-42
4.4234012e-42
4.4233382e-42
4.4233121e-42
4.4233028e-42
4.4233008e-42
4.423303e-42
4.4233102e-42
4.4233281e-42
4.4238102e-42
4.4235428e-42
4.4234078e-42
4.4233452e-42
4.4233193e-42
4.42331e-42
4.423308e-42
4.4233102e-42
4.4233174e-42
4.4233353e-42
4.4238219e-42
4.4235587e-42
4.423425e-42
4.4233629e-42
4.4233371e-42
4.4233279e-42
4.4233259e-42
4.4233281e-42
4.4233353e-42
4.4233532e-42
1.7096366e-41
1.7095359e-41
1.7094848e-41
1.709461e-41
1.7094511e-41
1.7094475e-41
1.7094466e-41
1.7094469e-41
1.7094486e-41
1.7094529e-41
1.7095359e-41
1.7094353e-41
1.7093842e-41
1.7093604e-41
1.7093505e-41
1.7093469e-41
1.709346e-41
1.7093466e-41
1.7093487e-41
1.7093546e-41
1.7094848e-41
1.7093842e-41
1.709333e-41
1.7093092e-41
1.7092994e-41
1.7092958e-41
1.709295e-41
1.7092957e-41
1.7092982e-41
1.7093045e-41
1.709461e-41
1.7093604e-41
1.7093092e-41
1.7092855e-41
1.7092756e-41
1.7092721e-41
1.7092713e-41
1.709272e-41
1.7092747e-41
1.7092812e-41
1.7094511e-41
1.7093505e-41
1.7092994e-41
1.7092756e-41
1.7092657e-41
1.7092622e-41
1.7092614e-41
1.7092622e-41
1.7092649e-41
1.7092715e-41
1.7094475e-41
1.7093469e-41
1.7092958e-41
1.7092721e-41
1.7092622e-41
1.7092587e-41
1.7092579e-41
1.7092587e-41
1.7092614e-41
1.7092681e-41
1.7094466e-41
1.709346e-41
1.709295e-41
1.7092713e-41
1.7092614e-41
1.7092579e-41
1.7092572e-41
1.709258e-41
1.7092607e-41
1.7092673e-41
1.7094469e-41
1.7093466e-41
1.7092957e-41
1.709272e-41
1.7092622e-41
1.7092587e-41
1.709258e-41
1.7092588e-41
1.7092615e-41
1.7092682e-41
1.7094486e-41
1.7093487e-41
1.7092982e-41
1.7092747e-41
1.7092649e-41
1.7092614e-41
1.7092607e-41
1.7092615e-41
1.7092643e-41
1.7092709e-41
1.7094529e-41
1.7093546e-41
1.7093045e-41
1.7092812e-41
1.7092715e-41
1.7092681e-41
1.7092673e-41
1.7092682e-41
1.7092709e-41
1.7092775e-41
6.7318897e-41
6.7315066e-41
6.7313114e-41
6.7312205e-41
6.7311827e-41
6.7311689e-41
6.7311654e-41
6.7311668e-41
6.7311731e-41
6.7311891e-41
6.7315066e-41
6.7311237e-41
6.7309286e-41
6.7308376e-41
6.7307998e-41
6.7307862e-41
6.7307828e-41
6.7307849e-41
6.7307932e-41
6.7308153e-41
6.7313114e-41
6.7309286e-41
6.7307334e-41
6.7306425e-41
6.7306048e-41
6.7305912e-41
6.7305881e-41
6.7305907e-41
6.7306002e-41
6.7306243e-41
6.7312205e-41
6.7308376e-41
6.7306425e-41
6.7305517e-41
6.7305139e-41
6.7305004e-41
6.7304974e-41
6.7305004e-41
6.7305104e-41
6.7305352e-41
6.7311827e-41
6.7307998e-41
6.7306048e-41
6.7305139e-41
6.7304762e-41
6.7304627e-41
6.7304598e-41
6.7304629e-41
6.7304732e-41
6.7304982e-41
6.7311689e-41
6.7307862e-41
6.7305912e-41
6.7305004e-41
6.7304627e-41
6.7304492e-41
6.7304463e-41
6.7304495e-41
6.7304599e-41
6.730485e-41
6.7311654e-41
6.7307828e-41
6.7305881e-41
6.7304974e-41
6.7304598e-41
6.7304463e-41
6.7304435e-41
6.7304467e-41
6.7304571e-41
6.7304822e-41
6.7311668e-41
6.7307849e-41
6.7305907e-41
6.7305004e-41
6.7304629e-41
6.7304495e-41
6.7304467e-41
6.7304499e-41
6.7304603e-41
6.7304854e-41
6.7311731e-41
6.7307932e-41
6.7306002e-41
6.7305104e-41
6.7304732e-41
6.7304599e-41
6.7304571e-41
6.7304603e-41
6.7304707e-41
6.7304958e-41
6.7311891e-41
6.7308153e-41
6.7306243e-41
6.7305352e-41
6.7304982e-41
6.730485e-41
6.7304822e-41
6.7304854e-41
6.7304958e-41
6.7305209e-41
2.7010734e-40
2.700925e-40
2.7008491e-40
2.7008138e-40
2.700799e-40
2.7007937e-40
2.7007923e-40
2.7007928e-40
2.7007953e-40
2.7008014e-40
2.700925e-40
2.7007766e-40
2.7007008e-40
2.7006654e-40
2.7006507e-40
2.7006454e-40
2.7006441e-40
2.7006449e-40
2.7006481e-40
2.7006566e-40
2.7008491e-40
2.7007008e-40
2.700625e-40
2.7005896e-40
2.7005749e-40
2.7005696e-40
2.7005684e-40
2.7005694e-40
2.7005731e-40
2.7005824e-40
2.7008138e-40
2.7006654e-40
2.7005896e-40
2.7005542e-40
2.7005395e-40
2.7005342e-40
2.7005331e-40
2.7005343e-40
2.7005382e-40
2.7005477e-40
2.700799e-40
2.7006507e-40
2.7005749e-40
2.7005395e-40
2.7005248e-40
2.7005196e-40
2.7005184e-40
2.7005197e-40
2.7005237e-40
2.7005333e-40
2.7007937e-40
2.7006454e-40
2.7005696e-40
2.7005342e-40
2.7005196e-40
2.7005143e-40
2.7005132e-40
2.7005145e-40
2.7005185e-40
2.7005282e-40
2.7007923e-40
2.7006441e-40
2.7005684e-40
2.7005331e-40
2.7005184e-40
2.7005132e-40
2.7005121e-40
2.7005134e-40
2.7005174e-40
2.7005271e-40
2.7007928e-40
2.7006449e-40
2.7005694e-40
2.7005343e-40
2.7005197e-40
2.7005145e-40
2.7005134e-40
2.7005146e-40
2.7005187e-40
2.7005284e-40
2.7007953e-40
2.7006481e-40
2.7005731e-40
2.7005382e-40
2.7005237e-40
2.7005185e-40
2.7005174e-40
2.7005187e-40
2.7005227e-40
2.7005324e-40
2.7008014e-40
2.7006566e-40
2.7005824e-40
2.7005477e-40
2.7005333e-40
2.7005282e-40
2.7005271e-40
2.7005284e-40
2.7005324e-40
2.7005421e-40
1.1043003e-39
1.1042417e-39
1.1042117e-39
1.1041977e-39
1.1041918e-39
1.1041897e-39
1.1041892e-39
1.1041894e-39
1.1041904e-39
1.1041927e-39
1.1042417e-39
1.1041832e-39
1.1041532e-39
1.1041391e-39
1.1041333e-39
1.1041312e-39
1.1041307e-39
1.104131e-39
1.1041323e-39
1.1041356e-39
1.1042117e-39
1.1041532e-39
1.1041232e-39
1.1041091e-39
1.1041033e-39
1.1041012e-39
1.1041007e-39
1.1041011e-39
1.1041026e-39
1.1041063e-39
1.1041977e-39
1.1041391e-39
1.1041091e-39
1.1040951e-39
1.1040893e-39
1.1040872e-39
1.1040867e-39
1.1040872e-39
1.1040888e-39
1.1040925e-39
1.1041918e-39
1.1041333e-39
1.1041033e-39
1.1040893e-39
1.1040835e-39
1.1040814e-39
1.1040809e-39
1.1040814e-39
1.104083e-39
1.1040868e-39
1.1041897e-39
1.1041312e-39
1.1041012e-39
1.1040872e-39
1.1040814e-39
1.1040793e-39
1.1040789e-39
1.1040794e-39
1.104081e-39
1.1040848e-39
1.1041892e-39
1.1041307e-39
1.1041007e-39
1.1040867e-39
1.1040809e-39
1.1040789e-39
1.1040784e-39
1.1040789e-39
1.1040805e-39
1.1040844e-39
1.1041894e-39
1.104131e-39
1.1041011e-39
1.1040872e-39
1.1040814e-39
1.1040794e-39
1.1040789e-39
1.1040794e-39
1.1040811e-39
1.1040849e-39
1.1041904e-39
1.1041323e-39
1.1041026e-39
1.1040888e-39
1.104083e-39
1.104081e-39
1.1040805e-39
1.1040811e-39
1.1040827e-39
1.1040865e-39
1.1041927e-39
1.1041356e-39
1.1041063e-39
1.1040925e-39
1.1040868e-39
1.1040848e-39
1.1040844e-39
1.1040849e-39
1.1040865e-39
1.1040903e-39
4.6001122e-39
4.5998769e-39
4.5997559e-39
4.5996993e-39
4.5996757e-39
4.5996671e-39
4.5996649e-39
4.5996659e-39
4.5996697e-39
4.5996791e-39
4.5998769e-39
4.5996417e-39
4.5995207e-39
4.5994641e-39
4.5994406e-39
4.599432e-39
4.59943e-39
4.5994313e-39
4.5994365e-39
4.5994498e-39
4.5997559e-39
4.5995207e-39
4.5993998e-39
4.5993432e-39
4.5993196e-39
4.5993112e-39
4.5993093e-39
4.599311e-39
4.5993169e-39
4.5993315e-39
4.5996993e-39
4.5994641e-39
4.5993432e-39
4.5992866e-39
4.5992631e-39
4.5992547e-39
4.5992528e-39
4.5992548e-39
4.5992611e-39
4.5992761e-39
4.5996757e-39
4.5994406e-39
4.5993196e-39
4.5992631e-39
4.5992396e-39
4.5992311e-39
4.5992294e-39
4.5992314e-39
4.5992379e-39
4.5992531e-39
4.5996671e-39
4.599432e-39
4.5993112e-39
4.5992547e-39
4.5992311e-39
4.5992228e-39
4.599221e-39
4.5992231e-39
4.5992296e-39
4.5992448e-39
4.5996649e-39
4.59943e-39
4.5993093e-39
4.5992528e-39
4.5992294e-39
4.599221e-39
4.5992193e-39
4.5992213e-39
4.5992279e-39
4.5992431e-39
4.5996659e-39
4.5994313e-39
4.599311e-39
4.5992548e-39
4.5992314e-39
4.5992231e-39
4.5992213e-39
4.5992234e-39
4.59923e-39
4.5992452e-39
4.5996697e-39
4.5994365e-39
4.5993169e-39
4.5992611e-39
4.5992379e-39
4.5992296e-39
4.5992279e-39
4.59923e-39
4.5992365e-39
4.5992518e-39
4.5996791e-39
4.5994498e-39
4.5993315e-39
4.5992761e-39
4.5992531e-39
4.5992448e-39
4.5992431e-39
4.5992452e-39
4.5992518e-39
4.599267e-39
1.9523278e-38
1.9522315e-38
1.9521819e-38
1.9521586e-38
1.9521489e-38
1.9521454e-38
1.9521445e-38
1.9521449e-38
1.9521464e-38
1.9521502e-38
1.9522315e-38
1.9521353e-38
1.9520857e-38
1.9520624e-38
1.9520527e-38
1.9520492e-38
1.9520484e-38
1.9520489e-38
1.952051e-38
1.9520565e-38
1.9521819e-38
1.9520857e-38
1.952036e-38
1.9520128e-38
1.9520031e-38
1.9519996e-38
1.9519988e-38
1.9519996e-38
1.952002e-38
1.952008e-38
1.9521586e-38
1.9520624e-38
1.9520128e-38
1.9519895e-38
1.9519799e-38
1.9519764e-38
1.9519757e-38
1.9519765e-38
1.9519791e-38
1.9519852e-38
1.9521489e-38
1.9520527e-38
1.9520031e-38
1.9519799e-38
1.9519702e-38
1.9519667e-38
1.951966e-38
1.9519669e-38
1.9519695e-38
1.9519757e-38
1.9521454e-38
1.9520492e-38
1.9519996e-38
1.9519764e-38
1.9519667e-38
1.9519633e-38
1.9519626e-38
1.9519634e-38
1.9519661e-38
1.9519723e-38
1.9521445e-38
1.9520484e-38
1.9519988e-38
1.9519757e-38
1.951966e-38
1.9519626e-38
1.9519619e-38
1.9519627e-38
1.9519654e-38
1.9519717e-38
1.9521449e-38
1.9520489e-38
1.9519996e-38
1.9519765e-38
1.9519669e-38
1.9519634e-38
1.9519627e-38
1.9519636e-38
1.9519663e-38
1.9519725e-38
1.9521464e-38
1.952051e-38
1.952002e-38
1.9519791e-38
1.9519695e-38
1.9519661e-38
1.9519654e-38
1.9519663e-38
1.951969e-38
1.9519752e-38
1.9521502e-38
1.9520565e-38
1.952008e-38
1.9519852e-38
1.9519757e-38
1.9519723e-38
1.9519717e-38
1.9519725e-38
1.9519752e-38
1.9519815e-38
8.4412358e-38
8.4408348e-38
8.4406275e-38
8.4405302e-38
8.4404896e-38
8.4404749e-38
8.4404711e-38
8.4404727e-38
8.4404794e-38
8.4404948e-38
8.4408348e-38
8.440434e-38
8.4402267e-38
8.4401295e-38
8.4400889e-38
8.4400743e-38
8.4400707e-38
8.4400731e-38
8.440082e-38
8.4401046e-38
8.4406275e-38
8.4402267e-38
8.4400195e-38
8.4399223e-38
8.4398817e-38
8.4398672e-38
8.4398639e-38
8.439867e-38
8.4398773e-38
8.4399021e-38
8.4405302e-38
8.4401295e-38
8.4399223e-38
8.4398251e-38
8.4397846e-38
8.4397701e-38
8.439767e-38
8.4397704e-38
8.4397814e-38
8.4398069e-38
8.4404896e-38
8.4400889e-38
8.4398817e-38
8.4397846e-38
8.4397441e-38
8.4397296e-38
8.4397266e-38
8.4397302e-38
8.4397414e-38
8.4397672e-38
8.4404749e-38
8.4400743e-38
8.4398672e-38
8.4397701e-38
8.4397296e-38
8.4397152e-38
8.4397122e-38
8.4397159e-38
8.4397272e-38
8.4397531e-38
8.4404711e-38
8.4400707e-38
8.4398639e-38
8.439767e-38
8.4397266e-38
8.4397122e-38
8.4397093e-38
8.439713e-38
8.4397243e-38
8.4397502e-38
8.4404727e-38
8.4400731e-38
8.439867e-38
8.4397704e-38
8.4397302e-38
8.4397159e-38
8.439713e-38
8.4397166e-38
8.439728e-38
8.4397539e-38
8.4404794e-38
8.440082e-38
8.4398773e-38
8.4397814e-38
8.4397414e-38
8.4397272e-38
8.4397243e-38
8.439728e-38
8.4397394e-38
8.4397653e-38
8.4404948e-38
8.4401046e-38
8.4399021e-38
8.4398069e-38
8.4397672e-38
8.4397531e-38
8.4397502e-38
8.4397539e-38
8.4397653e-38
8.4397913e-38
3.7178104e-37
3.7176404e-37
3.7175522e-37
3.7175108e-37
3.7174935e-37
3.7174873e-37
3.7174857e-37
3.7174864e-37
3.7174892e-37
3.7174956e-37
3.7176404e-37
3.7174704e-37
3.7173823e-37
3.7173409e-37
3.7173236e-37
3.7173174e-37
3.7173159e-37
3.7173169e-37
3.7173207e-37
3.7173303e-37
3.7175522e-37
3.7173823e-37
3.7172942e-37
3.7172528e-37
3.7172355e-37
3.7172293e-37
3.717228e-37
3.7172293e-37
3.7172337e-37
3.7172442e-37
3.7175108e-37
3.7173409e-37
3.7172528e-37
3.7172114e-37
3.7171942e-37
3.717188e-37
3.7171867e-37
3.7171882e-37
3.7171929e-37
3.7172037e-37
3.7174935e-37
3.7173236e-37
3.7172355e-37
3.7171942e-37
3.7171769e-37
3.7171708e-37
3.7171695e-37
3.7171711e-37
3.7171759e-37
3.7171868e-37
3.7174873e-37
3.7173174e-37
3.7172293e-37
3.717188e-37
3.7171708e-37
3.7171646e-37
3.7171634e-37
3.717165e-37
3.7171698e-37
3.7171808e-37
3.7174857e-37
3.7173159e-37
3.717228e-37
3.7171867e-37
3.7171695e-37
3.7171634e-37
3.7171621e-37
3.7171637e-37
3.7171686e-37
3.7171796e-37
3.7174864e-37
3.7173169e-37
3.7172293e-37
3.7171882e-37
3.7171711e-37
3.717165e-37
3.7171637e-37
3.7171653e-37
3.7171702e-37
3.7171812e-37
3.7174892e-37
3.7173207e-37
3.7172337e-37
3.7171929e-37
3.7171759e-37
3.7171698e-37
3.7171686e-37
3.7171702e-37
3.7171751e-37
3.7171861e-37
3.7174956e-37
3.7173303e-37
3.7172442e-37
3.7172037e-37
3.7171868e-37
3.7171808e-37
3.7171796e-37
3.7171812e-37
3.7171861e-37
3.7171971e-37
1.6678152e-36
1.6677418e-36
1.6677037e-36
1.6676857e-36
1.6676782e-36
1.6676755e-36
1.6676748e-36
1.6676751e-36
1.6676763e-36
1.6676791e-36
1.6677418e-36
1.6676685e-36
1.6676303e-36
1.6676124e-36
1.6676049e-36
1.6676022e-36
1.6676016e-36
1.667602e-36
1.6676037e-36
1.6676078e-36
1.6677037e-36
1.6676303e-36
1.6675922e-36
1.6675743e-36
1.6675668e-36
1.6675641e-36
1.6675635e-36
1.6675641e-36
1.667566e-36
1.6675706e-36
1.6676857e-36
1.6676124e-36
1.6675743e-36
1.6675564e-36
1.6675489e-36
1.6675462e-36
1.6675456e-36
1.6675463e-36
1.6675483e-36
1.667553e-36
1.6676782e-36
1.6676049e-36
1.6675668e-36
1.6675489e-36
1.6675414e-36
1.6675387e-36
1.6675382e-36
1.6675389e-36
1.667541e-36
1.6675457e-36
1.6676755e-36
1.6676022e-36
1.6675641e-36
1.6675462e-36
1.6675387e-36
1.6675361e-36
1.6675355e-36
1.6675362e-36
1.6675383e-36
1.6675431e-36
1.6676748e-36
1.6676016e-36
1.6675635e-36
1.6675456e-36
1.6675382e-36
1.6675355e-36
1.667535e-36
1.6675357e-36
1.6675378e-36
1.6675426e-36
1.6676751e-36
1.667602e-36
1.6675641e-36
1.6675463e-36
1.6675389e-36
1.6675362e-36
1.6675357e-36
1.6675364e-36
1.6675385e-36
1.6675433e-36
1.6676763e-36
1.6676037e-36
1.667566e-36
1.6675483e-36
1.667541e-36
1.6675383e-36
1.6675378e-36
1.6675385e-36
1.6675407e-36
1.6675454e-36
1.6676791e-36
1.6676078e-36
1.6675706e-36
1.667553e-36
1.6675457e-36