/*--------------------------------*- C++ -*----------------------------------*\
| =========                 |                                                 |
| \\      /  F ield         | OpenFOAM: The Open Source CFD Toolbox           |
|  \\    /   O peration     | Version:  dev                                   |
|   \\  /    A nd           | Web:      www.OpenFOAM.org                      |
|    \\/     M anipulation  |                                                 |
\*---------------------------------------------------------------------------*/
FoamFile
{
    version     2.0;
    format      ascii;
    class       volScalarField;
    location    "8";
    object      A;
}
// * * * * * * * * * * * * * * * * * * * * * * * * * * * * * * * * * * * * * //

dimensions      [0 0 0 0 1 0 0];

internalField   nonuniform List<scalar> 
10000
(
4.7603924e-78
4.7579202e-78
4.7572162e-78
4.7570594e-78
4.7570313e-78
4.7570271e-78
4.7570267e-78
4.7570274e-78
4.7570311e-78
4.7570489e-78
4.7579202e-78
4.7554502e-78
4.7547468e-78
4.7545901e-78
4.754562e-78
4.7545579e-78
4.7545576e-78
4.754559e-78
4.7545664e-78
4.7545999e-78
4.7572162e-78
4.7547468e-78
4.7540437e-78
4.7538869e-78
4.7538589e-78
4.7538548e-78
4.7538546e-78
4.7538563e-78
4.7538651e-78
4.7539023e-78
4.7570594e-78
4.7545901e-78
4.7538869e-78
4.7537303e-78
4.7537022e-78
4.7536981e-78
4.7536979e-78
4.7536997e-78
4.7537089e-78
4.7537468e-78
4.7570313e-78
4.754562e-78
4.7538589e-78
4.7537022e-78
4.7536741e-78
4.75367e-78
4.7536698e-78
4.7536717e-78
4.7536809e-78
4.7537189e-78
4.7570271e-78
4.7545579e-78
4.7538548e-78
4.7536981e-78
4.75367e-78
4.7536659e-78
4.7536657e-78
4.7536676e-78
4.7536768e-78
4.7537149e-78
4.7570267e-78
4.7545576e-78
4.7538546e-78
4.7536979e-78
4.7536698e-78
4.7536657e-78
4.7536655e-78
4.7536674e-78
4.7536766e-78
4.7537147e-78
4.7570274e-78
4.754559e-78
4.7538563e-78
4.7536997e-78
4.7536717e-78
4.7536676e-78
4.7536674e-78
4.7536693e-78
4.7536785e-78
4.7537165e-78
4.7570311e-78
4.7545664e-78
4.7538651e-78
4.7537089e-78
4.7536809e-78
4.7536768e-78
4.7536766e-78
4.7536785e-78
4.7536877e-78
4.7537258e-78
4.7570489e-78
4.7545999e-78
4.7539023e-78
4.7537468e-78
4.7537189e-78
4.7537149e-78
4.7537147e-78
4.7537165e-78
4.7537258e-78
4.7537638e-78
3.9605648e-77
3.9585616e-77
3.9579886e-77
3.9578608e-77
3.9578379e-77
3.9578346e-77
3.9578342e-77
3.9578348e-77
3.9578378e-77
3.9578527e-77
3.9585616e-77
3.9565601e-77
3.9559876e-77
3.9558599e-77
3.9558371e-77
3.9558337e-77
3.9558335e-77
3.9558346e-77
3.9558407e-77
3.9558686e-77
3.9579886e-77
3.9559876e-77
3.9554152e-77
3.9552875e-77
3.9552647e-77
3.9552613e-77
3.9552612e-77
3.9552626e-77
3.9552698e-77
3.9553008e-77
3.9578608e-77
3.9558599e-77
3.9552875e-77
3.9551599e-77
3.9551371e-77
3.9551337e-77
3.9551336e-77
3.9551351e-77
3.9551426e-77
3.9551741e-77
3.9578379e-77
3.9558371e-77
3.9552647e-77
3.9551371e-77
3.9551142e-77
3.9551109e-77
3.9551107e-77
3.9551123e-77
3.9551198e-77
3.9551514e-77
3.9578346e-77
3.9558337e-77
3.9552613e-77
3.9551337e-77
3.9551109e-77
3.9551075e-77
3.9551074e-77
3.9551089e-77
3.9551165e-77
3.9551481e-77
3.9578342e-77
3.9558335e-77
3.9552612e-77
3.9551336e-77
3.9551107e-77
3.9551074e-77
3.9551072e-77
3.9551088e-77
3.9551163e-77
3.955148e-77
3.9578348e-77
3.9558346e-77
3.9552626e-77
3.9551351e-77
3.9551123e-77
3.9551089e-77
3.9551088e-77
3.9551103e-77
3.9551178e-77
3.9551495e-77
3.9578378e-77
3.9558407e-77
3.9552698e-77
3.9551426e-77
3.9551198e-77
3.9551165e-77
3.9551163e-77
3.9551178e-77
3.9551254e-77
3.9551571e-77
3.9578527e-77
3.9558686e-77
3.9553008e-77
3.9551741e-77
3.9551514e-77
3.9551481e-77
3.955148e-77
3.9551495e-77
3.9551571e-77
3.9551887e-77
2.9268624e-76
2.9254224e-76
2.9250098e-76
2.9249178e-76
2.9249013e-76
2.9248988e-76
2.9248986e-76
2.924899e-76
2.9249012e-76
2.9249117e-76
2.9254224e-76
2.9239836e-76
2.9235713e-76
2.9234793e-76
2.9234629e-76
2.9234604e-76
2.9234603e-76
2.9234611e-76
2.9234655e-76
2.9234856e-76
2.9250098e-76
2.9235713e-76
2.9231592e-76
2.9230672e-76
2.9230508e-76
2.9230483e-76
2.9230482e-76
2.9230493e-76
2.9230545e-76
2.9230768e-76
2.9249178e-76
2.9234793e-76
2.9230672e-76
2.9229753e-76
2.9229588e-76
2.9229564e-76
2.9229563e-76
2.9229574e-76
2.9229628e-76
2.9229855e-76
2.9249013e-76
2.9234629e-76
2.9230508e-76
2.9229588e-76
2.9229424e-76
2.9229399e-76
2.9229398e-76
2.922941e-76
2.9229464e-76
2.9229692e-76
2.9248988e-76
2.9234604e-76
2.9230483e-76
2.9229564e-76
2.9229399e-76
2.9229375e-76
2.9229374e-76
2.9229385e-76
2.922944e-76
2.9229668e-76
2.9248986e-76
2.9234603e-76
2.9230482e-76
2.9229563e-76
2.9229398e-76
2.9229374e-76
2.9229373e-76
2.9229384e-76
2.9229439e-76
2.9229667e-76
2.924899e-76
2.9234611e-76
2.9230493e-76
2.9229574e-76
2.922941e-76
2.9229385e-76
2.9229384e-76
2.9229396e-76
2.922945e-76
2.9229678e-76
2.9249012e-76
2.9234655e-76
2.9230545e-76
2.9229628e-76
2.9229464e-76
2.922944e-76
2.9229439e-76
2.922945e-76
2.9229505e-76
2.9229733e-76
2.9249117e-76
2.9234856e-76
2.9230768e-76
2.9229855e-76
2.9229692e-76
2.9229668e-76
2.9229667e-76
2.9229678e-76
2.9229733e-76
2.9229961e-76
2.2134946e-75
2.2124358e-75
2.212132e-75
2.2120642e-75
2.212052e-75
2.2120502e-75
2.2120501e-75
2.2120504e-75
2.212052e-75
2.2120595e-75
2.2124358e-75
2.2113778e-75
2.2110743e-75
2.2110065e-75
2.2109944e-75
2.2109926e-75
2.2109925e-75
2.2109931e-75
2.2109963e-75
2.211011e-75
2.212132e-75
2.2110743e-75
2.2107708e-75
2.210703e-75
2.2106909e-75
2.2106891e-75
2.210689e-75
2.2106898e-75
2.2106937e-75
2.21071e-75
2.2120642e-75
2.2110065e-75
2.210703e-75
2.2106353e-75
2.2106232e-75
2.2106214e-75
2.2106213e-75
2.2106221e-75
2.2106262e-75
2.2106428e-75
2.212052e-75
2.2109944e-75
2.2106909e-75
2.2106232e-75
2.210611e-75
2.2106093e-75
2.2106092e-75
2.21061e-75
2.2106141e-75
2.2106308e-75
2.2120502e-75
2.2109926e-75
2.2106891e-75
2.2106214e-75
2.2106093e-75
2.2106075e-75
2.2106074e-75
2.2106082e-75
2.2106123e-75
2.210629e-75
2.2120501e-75
2.2109925e-75
2.210689e-75
2.2106213e-75
2.2106092e-75
2.2106074e-75
2.2106073e-75
2.2106082e-75
2.2106122e-75
2.210629e-75
2.2120504e-75
2.2109931e-75
2.2106898e-75
2.2106221e-75
2.21061e-75
2.2106082e-75
2.2106082e-75
2.210609e-75
2.2106131e-75
2.2106298e-75
2.212052e-75
2.2109963e-75
2.2106937e-75
2.2106262e-75
2.2106141e-75
2.2106123e-75
2.2106122e-75
2.2106131e-75
2.2106171e-75
2.2106339e-75
2.2120595e-75
2.211011e-75
2.21071e-75
2.2106428e-75
2.2106308e-75
2.210629e-75
2.210629e-75
2.2106298e-75
2.2106339e-75
2.2106506e-75
1.7173239e-74
1.7165256e-74
1.7162962e-74
1.716245e-74
1.7162358e-74
1.7162344e-74
1.7162343e-74
1.7162345e-74
1.7162357e-74
1.7162413e-74
1.7165256e-74
1.7157279e-74
1.7154987e-74
1.7154475e-74
1.7154383e-74
1.715437e-74
1.7154369e-74
1.7154374e-74
1.7154398e-74
1.7154509e-74
1.7162962e-74
1.7154987e-74
1.7152695e-74
1.7152184e-74
1.7152092e-74
1.7152078e-74
1.7152078e-74
1.7152084e-74
1.7152113e-74
1.7152236e-74
1.716245e-74
1.7154475e-74
1.7152184e-74
1.7151672e-74
1.715158e-74
1.7151567e-74
1.7151566e-74
1.7151573e-74
1.7151603e-74
1.7151729e-74
1.7162358e-74
1.7154383e-74
1.7152092e-74
1.715158e-74
1.7151489e-74
1.7151475e-74
1.7151475e-74
1.7151481e-74
1.7151512e-74
1.7151638e-74
1.7162344e-74
1.715437e-74
1.7152078e-74
1.7151567e-74
1.7151475e-74
1.7151462e-74
1.7151461e-74
1.7151467e-74
1.7151498e-74
1.7151624e-74
1.7162343e-74
1.7154369e-74
1.7152078e-74
1.7151566e-74
1.7151475e-74
1.7151461e-74
1.7151461e-74
1.7151467e-74
1.7151498e-74
1.7151624e-74
1.7162345e-74
1.7154374e-74
1.7152084e-74
1.7151573e-74
1.7151481e-74
1.7151467e-74
1.7151467e-74
1.7151473e-74
1.7151504e-74
1.715163e-74
1.7162357e-74
1.7154398e-74
1.7152113e-74
1.7151603e-74
1.7151512e-74
1.7151498e-74
1.7151498e-74
1.7151504e-74
1.7151535e-74
1.7151661e-74
1.7162413e-74
1.7154509e-74
1.7152236e-74
1.7151729e-74
1.7151638e-74
1.7151624e-74
1.7151624e-74
1.715163e-74
1.7151661e-74
1.7151787e-74
1.3668837e-73
1.3662664e-73
1.3660889e-73
1.3660492e-73
1.3660421e-73
1.366041e-73
1.3660409e-73
1.3660411e-73
1.366042e-73
1.3660463e-73
1.3662664e-73
1.3656497e-73
1.3654723e-73
1.3654326e-73
1.3654255e-73
1.3654245e-73
1.3654244e-73
1.3654248e-73
1.3654267e-73
1.3654352e-73
1.3660889e-73
1.3654723e-73
1.3652948e-73
1.3652552e-73
1.3652481e-73
1.3652471e-73
1.365247e-73
1.3652475e-73
1.3652498e-73
1.3652593e-73
1.3660492e-73
1.3654326e-73
1.3652552e-73
1.3652156e-73
1.3652085e-73
1.3652074e-73
1.3652074e-73
1.3652079e-73
1.3652103e-73
1.36522e-73
1.3660421e-73
1.3654255e-73
1.3652481e-73
1.3652085e-73
1.3652014e-73
1.3652003e-73
1.3652003e-73
1.3652008e-73
1.3652032e-73
1.3652129e-73
1.366041e-73
1.3654245e-73
1.3652471e-73
1.3652074e-73
1.3652003e-73
1.3651993e-73
1.3651992e-73
1.3651998e-73
1.3652022e-73
1.3652119e-73
1.3660409e-73
1.3654244e-73
1.365247e-73
1.3652074e-73
1.3652003e-73
1.3651992e-73
1.3651992e-73
1.3651997e-73
1.3652021e-73
1.3652119e-73
1.3660411e-73
1.3654248e-73
1.3652475e-73
1.3652079e-73
1.3652008e-73
1.3651998e-73
1.3651997e-73
1.3652002e-73
1.3652026e-73
1.3652124e-73
1.366042e-73
1.3654267e-73
1.3652498e-73
1.3652103e-73
1.3652032e-73
1.3652022e-73
1.3652021e-73
1.3652026e-73
1.365205e-73
1.3652148e-73
1.3660463e-73
1.3654352e-73
1.3652593e-73
1.36522e-73
1.3652129e-73
1.3652119e-73
1.3652119e-73
1.3652124e-73
1.3652148e-73
1.3652245e-73
1.1160952e-72
1.1156059e-72
1.1154649e-72
1.1154334e-72
1.1154278e-72
1.1154269e-72
1.1154269e-72
1.115427e-72
1.1154277e-72
1.115431e-72
1.1156059e-72
1.115117e-72
1.1149761e-72
1.1149446e-72
1.114939e-72
1.1149381e-72
1.1149381e-72
1.1149384e-72
1.1149399e-72
1.1149467e-72
1.1154649e-72
1.1149761e-72
1.1148353e-72
1.1148038e-72
1.1147981e-72
1.1147973e-72
1.1147973e-72
1.1147977e-72
1.1147995e-72
1.114807e-72
1.1154334e-72
1.1149446e-72
1.1148038e-72
1.1147723e-72
1.1147667e-72
1.1147658e-72
1.1147658e-72
1.1147662e-72
1.1147681e-72
1.1147758e-72
1.1154278e-72
1.114939e-72
1.1147981e-72
1.1147667e-72
1.114761e-72
1.1147602e-72
1.1147602e-72
1.1147606e-72
1.1147625e-72
1.1147702e-72
1.1154269e-72
1.1149381e-72
1.1147973e-72
1.1147658e-72
1.1147602e-72
1.1147594e-72
1.1147593e-72
1.1147597e-72
1.1147617e-72
1.1147694e-72
1.1154269e-72
1.1149381e-72
1.1147973e-72
1.1147658e-72
1.1147602e-72
1.1147593e-72
1.1147593e-72
1.1147597e-72
1.1147616e-72
1.1147694e-72
1.115427e-72
1.1149384e-72
1.1147977e-72
1.1147662e-72
1.1147606e-72
1.1147597e-72
1.1147597e-72
1.1147601e-72
1.114762e-72
1.1147698e-72
1.1154277e-72
1.1149399e-72
1.1147995e-72
1.1147681e-72
1.1147625e-72
1.1147617e-72
1.1147616e-72
1.114762e-72
1.114764e-72
1.1147717e-72
1.115431e-72
1.1149467e-72
1.114807e-72
1.1147758e-72
1.1147702e-72
1.1147694e-72
1.1147694e-72
1.1147698e-72
1.1147717e-72
1.1147794e-72
9.3484761e-72
9.3444986e-72
9.3433511e-72
9.3430946e-72
9.3430486e-72
9.3430418e-72
9.3430412e-72
9.3430424e-72
9.3430483e-72
9.3430745e-72
9.3444986e-72
9.3405242e-72
9.3393777e-72
9.3391213e-72
9.3390753e-72
9.3390686e-72
9.3390681e-72
9.3390706e-72
9.3390832e-72
9.3391379e-72
9.3433511e-72
9.3393777e-72
9.3382313e-72
9.337975e-72
9.3379291e-72
9.3379223e-72
9.337922e-72
9.3379251e-72
9.3379403e-72
9.3380016e-72
9.3430946e-72
9.3391213e-72
9.337975e-72
9.3377187e-72
9.3376728e-72
9.3376661e-72
9.3376658e-72
9.3376691e-72
9.3376848e-72
9.3377474e-72
9.3430486e-72
9.3390753e-72
9.3379291e-72
9.3376728e-72
9.3376268e-72
9.3376201e-72
9.3376198e-72
9.3376232e-72
9.3376391e-72
9.3377018e-72
9.3430418e-72
9.3390686e-72
9.3379223e-72
9.3376661e-72
9.3376201e-72
9.3376134e-72
9.3376131e-72
9.3376164e-72
9.3376323e-72
9.3376951e-72
9.3430412e-72
9.3390681e-72
9.337922e-72
9.3376658e-72
9.3376198e-72
9.3376131e-72
9.3376129e-72
9.3376162e-72
9.3376321e-72
9.3376949e-72
9.3430424e-72
9.3390706e-72
9.3379251e-72
9.3376691e-72
9.3376232e-72
9.3376164e-72
9.3376162e-72
9.3376195e-72
9.3376354e-72
9.3376982e-72
9.3430483e-72
9.3390832e-72
9.3379403e-72
9.3376848e-72
9.3376391e-72
9.3376323e-72
9.3376321e-72
9.3376354e-72
9.3376513e-72
9.3377141e-72
9.3430745e-72
9.3391379e-72
9.3380016e-72
9.3377474e-72
9.3377018e-72
9.3376951e-72
9.3376949e-72
9.3376982e-72
9.3377141e-72
9.3377769e-72
8.032019e-71
8.0287043e-71
8.0277469e-71
8.0275327e-71
8.0274943e-71
8.0274886e-71
8.0274881e-71
8.0274891e-71
8.0274941e-71
8.0275155e-71
8.0287043e-71
8.0253922e-71
8.0244355e-71
8.0242215e-71
8.0241831e-71
8.0241774e-71
8.0241771e-71
8.0241792e-71
8.0241898e-71
8.0242354e-71
8.0277469e-71
8.0244355e-71
8.0234789e-71
8.023265e-71
8.0232266e-71
8.023221e-71
8.0232207e-71
8.0232234e-71
8.0232361e-71
8.0232873e-71
8.0275327e-71
8.0242215e-71
8.023265e-71
8.023051e-71
8.0230127e-71
8.023007e-71
8.0230068e-71
8.0230096e-71
8.0230229e-71
8.0230751e-71
8.0274943e-71
8.0241831e-71
8.0232266e-71
8.0230127e-71
8.0229743e-71
8.0229687e-71
8.0229685e-71
8.0229713e-71
8.0229847e-71
8.0230371e-71
8.0274886e-71
8.0241774e-71
8.023221e-71
8.023007e-71
8.0229687e-71
8.0229631e-71
8.0229628e-71
8.0229657e-71
8.0229791e-71
8.0230315e-71
8.0274881e-71
8.0241771e-71
8.0232207e-71
8.0230068e-71
8.0229685e-71
8.0229628e-71
8.0229626e-71
8.0229655e-71
8.0229789e-71
8.0230313e-71
8.0274891e-71
8.0241792e-71
8.0232234e-71
8.0230096e-71
8.0229713e-71
8.0229657e-71
8.0229655e-71
8.0229683e-71
8.0229817e-71
8.0230341e-71
8.0274941e-71
8.0241898e-71
8.0232361e-71
8.0230229e-71
8.0229847e-71
8.0229791e-71
8.0229789e-71
8.0229817e-71
8.0229951e-71
8.0230475e-71
8.0275155e-71
8.0242354e-71
8.0232873e-71
8.0230751e-71
8.0230371e-71
8.0230315e-71
8.0230313e-71
8.0230341e-71
8.0230475e-71
8.0231e-71
7.078191e-70
7.0753591e-70
7.0745402e-70
7.0743569e-70
7.0743241e-70
7.0743192e-70
7.0743187e-70
7.0743196e-70
7.0743239e-70
7.0743419e-70
7.0753591e-70
7.0725295e-70
7.0717111e-70
7.071528e-70
7.0714952e-70
7.0714903e-70
7.07149e-70
7.0714919e-70
7.071501e-70
7.07154e-70
7.0745402e-70
7.0717111e-70
7.0708929e-70
7.0707098e-70
7.070677e-70
7.0706722e-70
7.070672e-70
7.0706743e-70
7.0706853e-70
7.0707291e-70
7.0743569e-70
7.071528e-70
7.0707098e-70
7.0705268e-70
7.0704939e-70
7.0704891e-70
7.0704889e-70
7.0704913e-70
7.0705028e-70
7.0705476e-70
7.0743241e-70
7.0714952e-70
7.070677e-70
7.0704939e-70
7.0704611e-70
7.0704563e-70
7.0704561e-70
7.0704585e-70
7.0704701e-70
7.070515e-70
7.0743192e-70
7.0714903e-70
7.0706722e-70
7.0704891e-70
7.0704563e-70
7.0704515e-70
7.0704513e-70
7.0704537e-70
7.0704653e-70
7.0705103e-70
7.0743187e-70
7.07149e-70
7.070672e-70
7.0704889e-70
7.0704561e-70
7.0704513e-70
7.0704511e-70
7.0704536e-70
7.0704652e-70
7.0705101e-70
7.0743196e-70
7.0714919e-70
7.0706743e-70
7.0704913e-70
7.0704585e-70
7.0704537e-70
7.0704536e-70
7.070456e-70
7.0704676e-70
7.0705125e-70
7.0743239e-70
7.071501e-70
7.0706853e-70
7.0705028e-70
7.0704701e-70
7.0704653e-70
7.0704652e-70
7.0704676e-70
7.0704792e-70
7.0705241e-70
7.0743419e-70
7.07154e-70
7.0707291e-70
7.0705476e-70
7.070515e-70
7.0705103e-70
7.0705101e-70
7.0705125e-70
7.0705241e-70
7.0705691e-70
6.3973111e-69
6.3948311e-69
6.3941131e-69
6.3939523e-69
6.3939235e-69
6.3939192e-69
6.3939188e-69
6.3939196e-69
6.3939234e-69
6.3939389e-69
6.3948311e-69
6.3923531e-69
6.3916356e-69
6.3914749e-69
6.3914461e-69
6.3914419e-69
6.3914416e-69
6.3914433e-69
6.3914514e-69
6.3914856e-69
6.3941131e-69
6.3916356e-69
6.3909182e-69
6.3907576e-69
6.3907288e-69
6.3907246e-69
6.3907244e-69
6.3907264e-69
6.3907362e-69
6.3907747e-69
6.3939523e-69
6.3914749e-69
6.3907576e-69
6.390597e-69
6.3905682e-69
6.390564e-69
6.3905638e-69
6.390566e-69
6.3905762e-69
6.3906155e-69
6.3939235e-69
6.3914461e-69
6.3907288e-69
6.3905682e-69
6.3905394e-69
6.3905352e-69
6.390535e-69
6.3905372e-69
6.3905475e-69
6.390587e-69
6.3939192e-69
6.3914419e-69
6.3907246e-69
6.390564e-69
6.3905352e-69
6.3905309e-69
6.3905308e-69
6.390533e-69
6.3905433e-69
6.3905828e-69
6.3939188e-69
6.3914416e-69
6.3907244e-69
6.3905638e-69
6.390535e-69
6.3905308e-69
6.3905307e-69
6.3905328e-69
6.3905431e-69
6.3905826e-69
6.3939196e-69
6.3914433e-69
6.3907264e-69
6.390566e-69
6.3905372e-69
6.390533e-69
6.3905328e-69
6.390535e-69
6.3905453e-69
6.3905848e-69
6.3939234e-69
6.3914514e-69
6.3907362e-69
6.3905762e-69
6.3905475e-69
6.3905433e-69
6.3905431e-69
6.3905453e-69
6.3905556e-69
6.3905951e-69
6.3939389e-69
6.3914856e-69
6.3907747e-69
6.3906155e-69
6.390587e-69
6.3905828e-69
6.3905826e-69
6.3905848e-69
6.3905951e-69
6.3906346e-69
5.9293739e-68
5.9271481e-68
5.9265028e-68
5.9263583e-68
5.9263324e-68
5.9263286e-68
5.9263282e-68
5.9263289e-68
5.9263323e-68
5.926346e-68
5.9271481e-68
5.9249239e-68
5.9242791e-68
5.9241347e-68
5.9241088e-68
5.9241049e-68
5.9241047e-68
5.9241062e-68
5.9241136e-68
5.9241444e-68
5.9265028e-68
5.9242791e-68
5.9236344e-68
5.92349e-68
5.9234641e-68
5.9234603e-68
5.9234602e-68
5.923462e-68
5.9234709e-68
5.9235057e-68
5.9263583e-68
5.9241347e-68
5.92349e-68
5.9233457e-68
5.9233198e-68
5.923316e-68
5.9233158e-68
5.9233178e-68
5.9233271e-68
5.9233626e-68
5.9263324e-68
5.9241088e-68
5.9234641e-68
5.9233198e-68
5.9232939e-68
5.9232901e-68
5.9232899e-68
5.9232919e-68
5.9233013e-68
5.9233369e-68
5.9263286e-68
5.9241049e-68
5.9234603e-68
5.923316e-68
5.9232901e-68
5.9232863e-68
5.9232862e-68
5.9232881e-68
5.9232975e-68
5.9233331e-68
5.9263282e-68
5.9241047e-68
5.9234602e-68
5.9233158e-68
5.9232899e-68
5.9232862e-68
5.923286e-68
5.923288e-68
5.9232974e-68
5.923333e-68
5.9263289e-68
5.9241062e-68
5.923462e-68
5.9233178e-68
5.9232919e-68
5.9232881e-68
5.923288e-68
5.92329e-68
5.9232993e-68
5.923335e-68
5.9263323e-68
5.9241136e-68
5.9234709e-68
5.9233271e-68
5.9233013e-68
5.9232975e-68
5.9232974e-68
5.9232993e-68
5.9233087e-68
5.9233443e-68
5.926346e-68
5.9241444e-68
5.9235057e-68
5.9233626e-68
5.9233369e-68
5.9233331e-68
5.923333e-68
5.923335e-68
5.9233443e-68
5.92338e-68
5.6352e-67
5.6331526e-67
5.6325584e-67
5.6324253e-67
5.6324014e-67
5.6323979e-67
5.6323976e-67
5.6323982e-67
5.6324014e-67
5.6324138e-67
5.6331526e-67
5.6311067e-67
5.6305129e-67
5.6303799e-67
5.630356e-67
5.6303525e-67
5.6303523e-67
5.6303537e-67
5.6303606e-67
5.630389e-67
5.6325584e-67
5.6305129e-67
5.6299193e-67
5.6297863e-67
5.6297624e-67
5.6297589e-67
5.6297588e-67
5.6297605e-67
5.6297688e-67
5.6298009e-67
5.6324253e-67
5.6303799e-67
5.6297863e-67
5.6296533e-67
5.6296294e-67
5.6296259e-67
5.6296258e-67
5.6296276e-67
5.6296363e-67
5.6296691e-67
5.6324014e-67
5.630356e-67
5.6297624e-67
5.6296294e-67
5.6296056e-67
5.6296021e-67
5.6296019e-67
5.6296038e-67
5.6296125e-67
5.6296455e-67
5.6323979e-67
5.6303525e-67
5.6297589e-67
5.6296259e-67
5.6296021e-67
5.6295986e-67
5.6295984e-67
5.6296003e-67
5.629609e-67
5.629642e-67
5.6323976e-67
5.6303523e-67
5.6297588e-67
5.6296258e-67
5.6296019e-67
5.6295984e-67
5.6295983e-67
5.6296002e-67
5.6296089e-67
5.6296419e-67
5.6323982e-67
5.6303537e-67
5.6297605e-67
5.6296276e-67
5.6296038e-67
5.6296003e-67
5.6296002e-67
5.629602e-67
5.6296108e-67
5.6296437e-67
5.6324014e-67
5.6303606e-67
5.6297688e-67
5.6296363e-67
5.6296125e-67
5.629609e-67
5.6296089e-67
5.6296108e-67
5.6296195e-67
5.6296524e-67
5.6324138e-67
5.630389e-67
5.6298009e-67
5.6296691e-67
5.6296455e-67
5.629642e-67
5.6296419e-67
5.6296437e-67
5.6296524e-67
5.6296854e-67
5.4909328e-66
5.4890031e-66
5.4884425e-66
5.4883168e-66
5.4882943e-66
5.4882909e-66
5.4882906e-66
5.4882913e-66
5.4882943e-66
5.4883058e-66
5.4890031e-66
5.4870748e-66
5.4865146e-66
5.486389e-66
5.4863664e-66
5.4863631e-66
5.4863629e-66
5.4863643e-66
5.4863708e-66
5.4863977e-66
5.4884425e-66
5.4865146e-66
5.4859544e-66
5.4858289e-66
5.4858063e-66
5.485803e-66
5.4858029e-66
5.4858046e-66
5.4858125e-66
5.4858429e-66
5.4883168e-66
5.486389e-66
5.4858289e-66
5.4857033e-66
5.4856808e-66
5.4856775e-66
5.4856774e-66
5.4856791e-66
5.4856874e-66
5.4857185e-66
5.4882943e-66
5.4863664e-66
5.4858063e-66
5.4856808e-66
5.4856583e-66
5.485655e-66
5.4856549e-66
5.4856566e-66
5.4856649e-66
5.4856962e-66
5.4882909e-66
5.4863631e-66
5.485803e-66
5.4856775e-66
5.485655e-66
5.4856516e-66
5.4856515e-66
5.4856533e-66
5.4856617e-66
5.4856929e-66
5.4882906e-66
5.4863629e-66
5.4858029e-66
5.4856774e-66
5.4856549e-66
5.4856515e-66
5.4856514e-66
5.4856532e-66
5.4856616e-66
5.4856928e-66
5.4882913e-66
5.4863643e-66
5.4858046e-66
5.4856791e-66
5.4856566e-66
5.4856533e-66
5.4856532e-66
5.485655e-66
5.4856633e-66
5.4856946e-66
5.4882943e-66
5.4863708e-66
5.4858125e-66
5.4856874e-66
5.4856649e-66
5.4856617e-66
5.4856616e-66
5.4856633e-66
5.4856717e-66
5.4857029e-66
5.4883058e-66
5.4863977e-66
5.4858429e-66
5.4857185e-66
5.4856962e-66
5.4856929e-66
5.4856928e-66
5.4856946e-66
5.4857029e-66
5.4857342e-66
5.4847956e-65
5.4829323e-65
5.4823904e-65
5.4822689e-65
5.482247e-65
5.4822438e-65
5.4822435e-65
5.4822441e-65
5.4822471e-65
5.4822581e-65
5.4829323e-65
5.4810703e-65
5.4805287e-65
5.4804073e-65
5.4803855e-65
5.4803823e-65
5.4803821e-65
5.4803834e-65
5.4803898e-65
5.480416e-65
5.4823904e-65
5.4805287e-65
5.4799873e-65
5.4798659e-65
5.4798441e-65
5.4798409e-65
5.4798408e-65
5.4798424e-65
5.4798502e-65
5.4798798e-65
5.4822689e-65
5.4804073e-65
5.4798659e-65
5.4797445e-65
5.4797227e-65
5.4797195e-65
5.4797194e-65
5.4797211e-65
5.4797292e-65
5.4797595e-65
5.482247e-65
5.4803855e-65
5.4798441e-65
5.4797227e-65
5.4797009e-65
5.4796977e-65
5.4796976e-65
5.4796993e-65
5.4797075e-65
5.4797379e-65
5.4822438e-65
5.4803823e-65
5.4798409e-65
5.4797195e-65
5.4796977e-65
5.4796945e-65
5.4796944e-65
5.4796961e-65
5.4797043e-65
5.4797347e-65
5.4822435e-65
5.4803821e-65
5.4798408e-65
5.4797194e-65
5.4796976e-65
5.4796944e-65
5.4796943e-65
5.479696e-65
5.4797042e-65
5.4797346e-65
5.4822441e-65
5.4803834e-65
5.4798424e-65
5.4797211e-65
5.4796993e-65
5.4796961e-65
5.479696e-65
5.4796978e-65
5.479706e-65
5.4797364e-65
5.4822471e-65
5.4803898e-65
5.4798502e-65
5.4797292e-65
5.4797075e-65
5.4797043e-65
5.4797042e-65
5.479706e-65
5.4797141e-65
5.4797445e-65
5.4822581e-65
5.480416e-65
5.4798798e-65
5.4797595e-65
5.4797379e-65
5.4797347e-65
5.4797346e-65
5.4797364e-65
5.4797445e-65
5.479775e-65
5.6154866e-64
5.6136436e-64
5.613107e-64
5.6129866e-64
5.612965e-64
5.6129618e-64
5.6129615e-64
5.6129622e-64
5.6129651e-64
5.6129759e-64
5.6136436e-64
5.6118019e-64
5.6112656e-64
5.6111453e-64
5.6111238e-64
5.6111206e-64
5.6111204e-64
5.6111217e-64
5.6111282e-64
5.6111542e-64
5.613107e-64
5.6112656e-64
5.6107295e-64
5.6106092e-64
5.6105877e-64
5.6105845e-64
5.6105844e-64
5.610586e-64
5.6105938e-64
5.6106233e-64
5.6129866e-64
5.6111453e-64
5.6106092e-64
5.610489e-64
5.6104674e-64
5.6104642e-64
5.6104642e-64
5.6104659e-64
5.610474e-64
5.6105042e-64
5.612965e-64
5.6111238e-64
5.6105877e-64
5.6104674e-64
5.6104458e-64
5.6104427e-64
5.6104426e-64
5.6104443e-64
5.6104525e-64
5.6104828e-64
5.6129618e-64
5.6111206e-64
5.6105845e-64
5.6104642e-64
5.6104427e-64
5.6104395e-64
5.6104394e-64
5.6104412e-64
5.6104494e-64
5.6104797e-64
5.6129615e-64
5.6111204e-64
5.6105844e-64
5.6104642e-64
5.6104426e-64
5.6104394e-64
5.6104393e-64
5.6104411e-64
5.6104493e-64
5.6104796e-64
5.6129622e-64
5.6111217e-64
5.610586e-64
5.6104659e-64
5.6104443e-64
5.6104412e-64
5.6104411e-64
5.6104428e-64
5.610451e-64
5.6104814e-64
5.6129651e-64
5.6111282e-64
5.6105938e-64
5.610474e-64
5.6104525e-64
5.6104494e-64
5.6104493e-64
5.610451e-64
5.6104592e-64
5.6104896e-64
5.6129759e-64
5.6111542e-64
5.6106233e-64
5.6105042e-64
5.6104828e-64
5.6104797e-64
5.6104796e-64
5.6104814e-64
5.6104896e-64
5.6105199e-64
5.8919049e-63
5.890038e-63
5.8894939e-63
5.8893718e-63
5.8893499e-63
5.8893467e-63
5.8893464e-63
5.889347e-63
5.88935e-63
5.8893608e-63
5.890038e-63
5.8881724e-63
5.8876286e-63
5.8875066e-63
5.8874847e-63
5.8874815e-63
5.8874813e-63
5.8874827e-63
5.8874893e-63
5.8875158e-63
5.8894939e-63
5.8876286e-63
5.887085e-63
5.886963e-63
5.8869411e-63
5.8869379e-63
5.8869378e-63
5.8869395e-63
5.8869475e-63
5.8869777e-63
5.8893718e-63
5.8875066e-63
5.886963e-63
5.886841e-63
5.8868191e-63
5.8868159e-63
5.8868159e-63
5.8868176e-63
5.886826e-63
5.8868569e-63
5.8893499e-63
5.8874847e-63
5.8869411e-63
5.8868191e-63
5.8867972e-63
5.886794e-63
5.886794e-63
5.8867958e-63
5.8868042e-63
5.8868352e-63
5.8893467e-63
5.8874815e-63
5.8869379e-63
5.8868159e-63
5.886794e-63
5.8867908e-63
5.8867907e-63
5.8867926e-63
5.886801e-63
5.886832e-63
5.8893464e-63
5.8874813e-63
5.8869378e-63
5.8868159e-63
5.886794e-63
5.8867907e-63
5.8867907e-63
5.8867925e-63
5.8868009e-63
5.8868319e-63
5.889347e-63
5.8874827e-63
5.8869395e-63
5.8868176e-63
5.8867958e-63
5.8867926e-63
5.8867925e-63
5.8867943e-63
5.8868027e-63
5.8868337e-63
5.88935e-63
5.8874893e-63
5.8869475e-63
5.886826e-63
5.8868042e-63
5.886801e-63
5.8868009e-63
5.8868027e-63
5.8868111e-63
5.8868422e-63
5.8893608e-63
5.8875158e-63
5.8869777e-63
5.8868569e-63
5.8868352e-63
5.886832e-63
5.8868319e-63
5.8868337e-63
5.8868422e-63
5.8868732e-63
6.3341402e-62
6.3322038e-62
6.3316389e-62
6.3315121e-62
6.3314893e-62
6.331486e-62
6.3314857e-62
6.3314863e-62
6.3314895e-62
6.3315006e-62
6.3322038e-62
6.3302688e-62
6.3297042e-62
6.3295775e-62
6.3295547e-62
6.3295514e-62
6.3295512e-62
6.3295526e-62
6.3295596e-62
6.3295874e-62
6.3316389e-62
6.3297042e-62
6.3291398e-62
6.3290131e-62
6.3289903e-62
6.328987e-62
6.3289869e-62
6.3289887e-62
6.3289971e-62
6.3290287e-62
6.3315121e-62
6.3295775e-62
6.3290131e-62
6.3288864e-62
6.3288636e-62
6.3288603e-62
6.3288602e-62
6.3288621e-62
6.3288709e-62
6.3289033e-62
6.3314893e-62
6.3295547e-62
6.3289903e-62
6.3288636e-62
6.3288409e-62
6.3288376e-62
6.3288375e-62
6.3288394e-62
6.3288483e-62
6.3288807e-62
6.331486e-62
6.3295514e-62
6.328987e-62
6.3288603e-62
6.3288376e-62
6.3288342e-62
6.3288342e-62
6.3288361e-62
6.328845e-62
6.3288774e-62
6.3314857e-62
6.3295512e-62
6.3289869e-62
6.3288602e-62
6.3288375e-62
6.3288342e-62
6.3288341e-62
6.328836e-62
6.3288449e-62
6.3288774e-62
6.3314863e-62
6.3295526e-62
6.3289887e-62
6.3288621e-62
6.3288394e-62
6.3288361e-62
6.328836e-62
6.3288379e-62
6.3288468e-62
6.3288793e-62
6.3314895e-62
6.3295596e-62
6.3289971e-62
6.3288709e-62
6.3288483e-62
6.328845e-62
6.3288449e-62
6.3288468e-62
6.3288557e-62
6.3288882e-62
6.3315006e-62
6.3295874e-62
6.3290287e-62
6.3289033e-62
6.3288807e-62
6.3288774e-62
6.3288774e-62
6.3288793e-62
6.3288882e-62
6.3289206e-62
6.9758743e-61
6.9738183e-61
6.9732179e-61
6.9730831e-61
6.9730589e-61
6.9730553e-61
6.973055e-61
6.9730557e-61
6.9730591e-61
6.9730708e-61
6.9738183e-61
6.9717636e-61
6.9711636e-61
6.9710289e-61
6.9710047e-61
6.9710011e-61
6.971001e-61
6.9710025e-61
6.97101e-61
6.9710398e-61
6.9732179e-61
6.9711636e-61
6.9705637e-61
6.970429e-61
6.9704048e-61
6.9704013e-61
6.9704012e-61
6.9704031e-61
6.9704122e-61
6.9704461e-61
6.9730831e-61
6.9710289e-61
6.970429e-61
6.9702943e-61
6.9702702e-61
6.9702666e-61
6.9702665e-61
6.9702686e-61
6.9702781e-61
6.9703128e-61
6.9730589e-61
6.9710047e-61
6.9704048e-61
6.9702702e-61
6.970246e-61
6.9702424e-61
6.9702423e-61
6.9702444e-61
6.970254e-61
6.9702888e-61
6.9730553e-61
6.9710011e-61
6.9704013e-61
6.9702666e-61
6.9702424e-61
6.9702389e-61
6.9702388e-61
6.9702409e-61
6.9702505e-61
6.9702853e-61
6.973055e-61
6.971001e-61
6.9704012e-61
6.9702665e-61
6.9702423e-61
6.9702388e-61
6.9702387e-61
6.9702408e-61
6.9702504e-61
6.9702852e-61
6.9730557e-61
6.9710025e-61
6.9704031e-61
6.9702686e-61
6.9702444e-61
6.9702409e-61
6.9702408e-61
6.9702429e-61
6.9702525e-61
6.9702873e-61
6.9730591e-61
6.97101e-61
6.9704122e-61
6.9702781e-61
6.970254e-61
6.9702505e-61
6.9702504e-61
6.9702525e-61
6.970262e-61
6.9702969e-61
6.9730708e-61
6.9710398e-61
6.9704461e-61
6.9703128e-61
6.9702888e-61
6.9702853e-61
6.9702852e-61
6.9702873e-61
6.9702969e-61
6.9703318e-61
7.8685925e-60
7.8663581e-60
7.8657051e-60
7.8655584e-60
7.8655321e-60
7.8655282e-60
7.8655279e-60
7.8655287e-60
7.8655323e-60
7.8655451e-60
7.8663581e-60
7.8641253e-60
7.8634727e-60
7.8633261e-60
7.8632998e-60
7.8632959e-60
7.8632957e-60
7.8632974e-60
7.8633057e-60
7.8633384e-60
7.8657051e-60
7.8634727e-60
7.8628202e-60
7.8626736e-60
7.8626473e-60
7.8626434e-60
7.8626433e-60
7.8626455e-60
7.8626555e-60
7.8626928e-60
7.8655584e-60
7.8633261e-60
7.8626736e-60
7.8625271e-60
7.8625007e-60
7.8624969e-60
7.8624968e-60
7.8624991e-60
7.8625096e-60
7.8625477e-60
7.8655321e-60
7.8632998e-60
7.8626473e-60
7.8625007e-60
7.8624744e-60
7.8624706e-60
7.8624705e-60
7.8624728e-60
7.8624833e-60
7.8625216e-60
7.8655282e-60
7.8632959e-60
7.8626434e-60
7.8624969e-60
7.8624706e-60
7.8624667e-60
7.8624666e-60
7.8624689e-60
7.8624795e-60
7.8625178e-60
7.8655279e-60
7.8632957e-60
7.8626433e-60
7.8624968e-60
7.8624705e-60
7.8624666e-60
7.8624665e-60
7.8624688e-60
7.8624794e-60
7.8625178e-60
7.8655287e-60
7.8632974e-60
7.8626455e-60
7.8624991e-60
7.8624728e-60
7.8624689e-60
7.8624688e-60
7.8624711e-60
7.8624817e-60
7.86252e-60
7.8655323e-60
7.8633057e-60
7.8626555e-60
7.8625096e-60
7.8624833e-60
7.8624795e-60
7.8624794e-60
7.8624817e-60
7.8624923e-60
7.8625306e-60
7.8655451e-60
7.8633384e-60
7.8626928e-60
7.8625477e-60
7.8625216e-60
7.8625178e-60
7.8625178e-60
7.86252e-60
7.8625306e-60
7.862569e-60
9.0883274e-59
9.085843e-59
9.0851162e-59
9.0849529e-59
9.0849236e-59
9.0849193e-59
9.0849189e-59
9.0849198e-59
9.0849239e-59
9.084938e-59
9.085843e-59
9.0833603e-59
9.0826339e-59
9.0824707e-59
9.0824414e-59
9.0824371e-59
9.0824369e-59
9.0824388e-59
9.0824482e-59
9.0824849e-59
9.0851162e-59
9.0826339e-59
9.0819077e-59
9.0817445e-59
9.0817152e-59
9.0817109e-59
9.0817108e-59
9.0817133e-59
9.0817246e-59
9.0817666e-59
9.0849529e-59
9.0824707e-59
9.0817445e-59
9.0815814e-59
9.0815521e-59
9.0815478e-59
9.0815477e-59
9.0815503e-59
9.0815621e-59
9.0816051e-59
9.0849236e-59
9.0824414e-59
9.0817152e-59
9.0815521e-59
9.0815228e-59
9.0815185e-59
9.0815184e-59
9.081521e-59
9.081533e-59
9.0815761e-59
9.0849193e-59
9.0824371e-59
9.0817109e-59
9.0815478e-59
9.0815185e-59
9.0815142e-59
9.0815141e-59
9.0815167e-59
9.0815287e-59
9.0815718e-59
9.0849189e-59
9.0824369e-59
9.0817108e-59
9.0815477e-59
9.0815184e-59
9.0815141e-59
9.081514e-59
9.0815166e-59
9.0815286e-59
9.0815717e-59
9.0849198e-59
9.0824388e-59
9.0817133e-59
9.0815503e-59
9.081521e-59
9.0815167e-59
9.0815166e-59
9.0815192e-59
9.0815312e-59
9.0815743e-59
9.0849239e-59
9.0824482e-59
9.0817246e-59
9.0815621e-59
9.081533e-59
9.0815287e-59
9.0815286e-59
9.0815312e-59
9.0815432e-59
9.0815863e-59
9.084938e-59
9.0824849e-59
9.0817666e-59
9.0816051e-59
9.0815761e-59
9.0815718e-59
9.0815717e-59
9.0815743e-59
9.0815863e-59