/*--------------------------------*- C++ -*----------------------------------*\
| =========                 |                                                 |
| \\      /  F ield         | OpenFOAM: The Open Source CFD Toolbox           |
|  \\    /   O peration     | Version:  dev                                   |
|   \\  /    A nd           | Web:      www.OpenFOAM.org                      |
|    \\/     M anipulation  |                                                 |
\*---------------------------------------------------------------------------*/
FoamFile
{
    version     2.0;
    format      ascii;
    class       volScalarField;
    location    "8";
    object      A_0;
}
// * * * * * * * * * * * * * * * * * * * * * * * * * * * * * * * * * * * * * //

dimensions      [0 0 0 0 1 0 0];

internalField   nonuniform List<scalar> 
10000
(
4.5721345e-78
4.5697579e-78
4.5690814e-78
4.5689307e-78
4.5689038e-78
4.5688998e-78
4.5688994e-78
4.5689001e-78
4.5689036e-78
4.5689207e-78
4.5697579e-78
4.5673834e-78
4.5667075e-78
4.5665569e-78
4.56653e-78
4.566526e-78
4.5665258e-78
4.5665271e-78
4.5665342e-78
4.5665664e-78
4.5690814e-78
4.5667075e-78
4.5660318e-78
4.5658812e-78
4.5658543e-78
4.5658504e-78
4.5658502e-78
4.5658518e-78
4.5658603e-78
4.565896e-78
4.5689307e-78
4.5665569e-78
4.5658812e-78
4.5657307e-78
4.5657038e-78
4.5656999e-78
4.5656997e-78
4.5657015e-78
4.5657102e-78
4.5657467e-78
4.5689038e-78
4.56653e-78
4.5658543e-78
4.5657038e-78
4.5656769e-78
4.5656729e-78
4.5656728e-78
4.5656746e-78
4.5656834e-78
4.5657199e-78
4.5688998e-78
4.566526e-78
4.5658504e-78
4.5656999e-78
4.5656729e-78
4.565669e-78
4.5656688e-78
4.5656706e-78
4.5656794e-78
4.565716e-78
4.5688994e-78
4.5665258e-78
4.5658502e-78
4.5656997e-78
4.5656728e-78
4.5656688e-78
4.5656686e-78
4.5656704e-78
4.5656793e-78
4.5657158e-78
4.5689001e-78
4.5665271e-78
4.5658518e-78
4.5657015e-78
4.5656746e-78
4.5656706e-78
4.5656704e-78
4.5656722e-78
4.5656811e-78
4.5657176e-78
4.5689036e-78
4.5665342e-78
4.5658603e-78
4.5657102e-78
4.5656834e-78
4.5656794e-78
4.5656793e-78
4.5656811e-78
4.5656899e-78
4.5657265e-78
4.5689207e-78
4.5665664e-78
4.565896e-78
4.5657467e-78
4.5657199e-78
4.565716e-78
4.5657158e-78
4.5657176e-78
4.5657265e-78
4.565763e-78
3.8055767e-77
3.8036501e-77
3.8030992e-77
3.8029765e-77
3.8029545e-77
3.8029513e-77
3.802951e-77
3.8029515e-77
3.8029544e-77
3.8029687e-77
3.8036501e-77
3.8017252e-77
3.8011748e-77
3.8010521e-77
3.8010302e-77
3.8010269e-77
3.8010267e-77
3.8010278e-77
3.8010336e-77
3.8010605e-77
3.8030992e-77
3.8011748e-77
3.8006245e-77
3.8005019e-77
3.8004799e-77
3.8004767e-77
3.8004765e-77
3.8004779e-77
3.8004848e-77
3.8005146e-77
3.8029765e-77
3.8010521e-77
3.8005019e-77
3.8003792e-77
3.8003573e-77
3.8003541e-77
3.8003539e-77
3.8003554e-77
3.8003626e-77
3.8003929e-77
3.8029545e-77
3.8010302e-77
3.8004799e-77
3.8003573e-77
3.8003354e-77
3.8003321e-77
3.800332e-77
3.8003335e-77
3.8003407e-77
3.8003711e-77
3.8029513e-77
3.8010269e-77
3.8004767e-77
3.8003541e-77
3.8003321e-77
3.8003289e-77
3.8003288e-77
3.8003303e-77
3.8003375e-77
3.8003679e-77
3.802951e-77
3.8010267e-77
3.8004765e-77
3.8003539e-77
3.800332e-77
3.8003288e-77
3.8003286e-77
3.8003301e-77
3.8003374e-77
3.8003678e-77
3.8029515e-77
3.8010278e-77
3.8004779e-77
3.8003554e-77
3.8003335e-77
3.8003303e-77
3.8003301e-77
3.8003316e-77
3.8003388e-77
3.8003693e-77
3.8029544e-77
3.8010336e-77
3.8004848e-77
3.8003626e-77
3.8003407e-77
3.8003375e-77
3.8003374e-77
3.8003388e-77
3.8003461e-77
3.8003765e-77
3.8029687e-77
3.8010605e-77
3.8005146e-77
3.8003929e-77
3.8003711e-77
3.8003679e-77
3.8003678e-77
3.8003693e-77
3.8003765e-77
3.8004069e-77
2.8137571e-76
2.8123714e-76
2.8119746e-76
2.8118861e-76
2.8118702e-76
2.8118679e-76
2.8118677e-76
2.8118681e-76
2.8118701e-76
2.8118803e-76
2.8123714e-76
2.8109869e-76
2.8105904e-76
2.810502e-76
2.8104862e-76
2.8104838e-76
2.8104837e-76
2.8104845e-76
2.8104887e-76
2.810508e-76
2.8119746e-76
2.8105904e-76
2.810194e-76
2.8101056e-76
2.8100898e-76
2.8100874e-76
2.8100873e-76
2.8100883e-76
2.8100934e-76
2.8101148e-76
2.8118861e-76
2.810502e-76
2.8101056e-76
2.8100172e-76
2.8100014e-76
2.8099991e-76
2.809999e-76
2.81e-76
2.8100052e-76
2.8100271e-76
2.8118702e-76
2.8104862e-76
2.8100898e-76
2.8100014e-76
2.8099856e-76
2.8099832e-76
2.8099831e-76
2.8099842e-76
2.8099895e-76
2.8100114e-76
2.8118679e-76
2.8104838e-76
2.8100874e-76
2.8099991e-76
2.8099832e-76
2.8099809e-76
2.8099808e-76
2.8099819e-76
2.8099872e-76
2.8100091e-76
2.8118677e-76
2.8104837e-76
2.8100873e-76
2.809999e-76
2.8099831e-76
2.8099808e-76
2.8099807e-76
2.8099818e-76
2.8099871e-76
2.810009e-76
2.8118681e-76
2.8104845e-76
2.8100883e-76
2.81e-76
2.8099842e-76
2.8099819e-76
2.8099818e-76
2.8099829e-76
2.8099881e-76
2.8100101e-76
2.8118701e-76
2.8104887e-76
2.8100934e-76
2.8100052e-76
2.8099895e-76
2.8099872e-76
2.8099871e-76
2.8099881e-76
2.8099934e-76
2.8100153e-76
2.8118803e-76
2.810508e-76
2.8101148e-76
2.8100271e-76
2.8100114e-76
2.8100091e-76
2.810009e-76
2.8100101e-76
2.8100153e-76
2.8100372e-76
2.1290542e-75
2.1280348e-75
2.1277424e-75
2.1276772e-75
2.1276655e-75
2.1276638e-75
2.1276636e-75
2.1276639e-75
2.1276654e-75
2.1276727e-75
2.1280348e-75
2.1270162e-75
2.1267241e-75
2.1266589e-75
2.1266473e-75
2.1266456e-75
2.1266454e-75
2.126646e-75
2.1266492e-75
2.1266633e-75
2.1277424e-75
2.1267241e-75
2.126432e-75
2.1263669e-75
2.1263552e-75
2.1263535e-75
2.1263534e-75
2.1263542e-75
2.1263579e-75
2.1263736e-75
2.1276772e-75
2.1266589e-75
2.1263669e-75
2.1263018e-75
2.1262901e-75
2.1262884e-75
2.1262883e-75
2.1262891e-75
2.126293e-75
2.126309e-75
2.1276655e-75
2.1266473e-75
2.1263552e-75
2.1262901e-75
2.1262784e-75
2.1262767e-75
2.1262766e-75
2.1262774e-75
2.1262813e-75
2.1262974e-75
2.1276638e-75
2.1266456e-75
2.1263535e-75
2.1262884e-75
2.1262767e-75
2.126275e-75
2.1262749e-75
2.1262757e-75
2.1262796e-75
2.1262957e-75
2.1276636e-75
2.1266454e-75
2.1263534e-75
2.1262883e-75
2.1262766e-75
2.1262749e-75
2.1262749e-75
2.1262757e-75
2.1262796e-75
2.1262957e-75
2.1276639e-75
2.126646e-75
2.1263542e-75
2.1262891e-75
2.1262774e-75
2.1262757e-75
2.1262757e-75
2.1262765e-75
2.1262804e-75
2.1262965e-75
2.1276654e-75
2.1266492e-75
2.1263579e-75
2.126293e-75
2.1262813e-75
2.1262796e-75
2.1262796e-75
2.1262804e-75
2.1262843e-75
2.1263004e-75
2.1276727e-75
2.1266633e-75
2.1263736e-75
2.126309e-75
2.1262974e-75
2.1262957e-75
2.1262957e-75
2.1262965e-75
2.1263004e-75
2.1263165e-75
1.6526686e-74
1.6518996e-74
1.6516788e-74
1.6516295e-74
1.6516207e-74
1.6516193e-74
1.6516192e-74
1.6516194e-74
1.6516206e-74
1.651626e-74
1.6518996e-74
1.6511313e-74
1.6509106e-74
1.6508613e-74
1.6508525e-74
1.6508512e-74
1.6508511e-74
1.6508516e-74
1.650854e-74
1.6508646e-74
1.6516788e-74
1.6509106e-74
1.65069e-74
1.6506407e-74
1.6506319e-74
1.6506306e-74
1.6506305e-74
1.6506311e-74
1.650634e-74
1.6506458e-74
1.6516295e-74
1.6508613e-74
1.6506407e-74
1.6505915e-74
1.6505827e-74
1.6505814e-74
1.6505813e-74
1.6505819e-74
1.6505849e-74
1.6505969e-74
1.6516207e-74
1.6508525e-74
1.6506319e-74
1.6505827e-74
1.6505738e-74
1.6505725e-74
1.6505725e-74
1.6505731e-74
1.6505761e-74
1.6505882e-74
1.6516193e-74
1.6508512e-74
1.6506306e-74
1.6505814e-74
1.6505725e-74
1.6505713e-74
1.6505712e-74
1.6505718e-74
1.6505748e-74
1.6505869e-74
1.6516192e-74
1.6508511e-74
1.6506305e-74
1.6505813e-74
1.6505725e-74
1.6505712e-74
1.6505711e-74
1.6505718e-74
1.6505747e-74
1.6505869e-74
1.6516194e-74
1.6508516e-74
1.6506311e-74
1.6505819e-74
1.6505731e-74
1.6505718e-74
1.6505718e-74
1.6505724e-74
1.6505754e-74
1.6505875e-74
1.6516206e-74
1.650854e-74
1.650634e-74
1.6505849e-74
1.6505761e-74
1.6505748e-74
1.6505747e-74
1.6505754e-74
1.6505783e-74
1.6505904e-74
1.651626e-74
1.6508646e-74
1.6506458e-74
1.6505969e-74
1.6505882e-74
1.6505869e-74
1.6505869e-74
1.6505875e-74
1.6505904e-74
1.6506026e-74
1.3161087e-73
1.3155139e-73
1.3153428e-73
1.3153046e-73
1.3152978e-73
1.3152967e-73
1.3152966e-73
1.3152968e-73
1.3152977e-73
1.3153018e-73
1.3155139e-73
1.3149195e-73
1.3147486e-73
1.3147104e-73
1.3147035e-73
1.3147025e-73
1.3147025e-73
1.3147028e-73
1.3147047e-73
1.3147129e-73
1.3153428e-73
1.3147486e-73
1.3145776e-73
1.3145395e-73
1.3145326e-73
1.3145316e-73
1.3145316e-73
1.3145321e-73
1.3145343e-73
1.3145434e-73
1.3153046e-73
1.3147104e-73
1.3145395e-73
1.3145013e-73
1.3144945e-73
1.3144935e-73
1.3144934e-73
1.3144939e-73
1.3144962e-73
1.3145056e-73
1.3152978e-73
1.3147035e-73
1.3145326e-73
1.3144945e-73
1.3144877e-73
1.3144867e-73
1.3144866e-73
1.3144871e-73
1.3144894e-73
1.3144988e-73
1.3152967e-73
1.3147025e-73
1.3145316e-73
1.3144935e-73
1.3144867e-73
1.3144857e-73
1.3144856e-73
1.3144861e-73
1.3144884e-73
1.3144978e-73
1.3152966e-73
1.3147025e-73
1.3145316e-73
1.3144934e-73
1.3144866e-73
1.3144856e-73
1.3144856e-73
1.3144861e-73
1.3144884e-73
1.3144977e-73
1.3152968e-73
1.3147028e-73
1.3145321e-73
1.3144939e-73
1.3144871e-73
1.3144861e-73
1.3144861e-73
1.3144865e-73
1.3144889e-73
1.3144982e-73
1.3152977e-73
1.3147047e-73
1.3145343e-73
1.3144962e-73
1.3144894e-73
1.3144884e-73
1.3144884e-73
1.3144889e-73
1.3144912e-73
1.3145006e-73
1.3153018e-73
1.3147129e-73
1.3145434e-73
1.3145056e-73
1.3144988e-73
1.3144978e-73
1.3144977e-73
1.3144982e-73
1.3145006e-73
1.3145099e-73
1.0752003e-72
1.0747285e-72
1.0745926e-72
1.0745623e-72
1.0745568e-72
1.074556e-72
1.0745559e-72
1.0745561e-72
1.0745568e-72
1.07456e-72
1.0747285e-72
1.074257e-72
1.0741213e-72
1.0740909e-72
1.0740855e-72
1.0740847e-72
1.0740846e-72
1.0740849e-72
1.0740864e-72
1.0740929e-72
1.0745926e-72
1.0741213e-72
1.0739855e-72
1.0739552e-72
1.0739498e-72
1.073949e-72
1.0739489e-72
1.0739493e-72
1.0739511e-72
1.0739583e-72
1.0745623e-72
1.0740909e-72
1.0739552e-72
1.0739249e-72
1.0739194e-72
1.0739186e-72
1.0739186e-72
1.073919e-72
1.0739208e-72
1.0739282e-72
1.0745568e-72
1.0740855e-72
1.0739498e-72
1.0739194e-72
1.073914e-72
1.0739132e-72
1.0739132e-72
1.0739136e-72
1.0739154e-72
1.0739229e-72
1.074556e-72
1.0740847e-72
1.073949e-72
1.0739186e-72
1.0739132e-72
1.0739124e-72
1.0739124e-72
1.0739128e-72
1.0739146e-72
1.0739221e-72
1.0745559e-72
1.0740846e-72
1.0739489e-72
1.0739186e-72
1.0739132e-72
1.0739124e-72
1.0739123e-72
1.0739127e-72
1.0739146e-72
1.073922e-72
1.0745561e-72
1.0740849e-72
1.0739493e-72
1.073919e-72
1.0739136e-72
1.0739128e-72
1.0739127e-72
1.0739131e-72
1.073915e-72
1.0739224e-72
1.0745568e-72
1.0740864e-72
1.0739511e-72
1.0739208e-72
1.0739154e-72
1.0739146e-72
1.0739146e-72
1.073915e-72
1.0739169e-72
1.0739243e-72
1.07456e-72
1.0740929e-72
1.0739583e-72
1.0739282e-72
1.0739229e-72
1.0739221e-72
1.073922e-72
1.0739224e-72
1.0739243e-72
1.0739317e-72
9.0106917e-72
9.0068543e-72
9.0057478e-72
9.0055005e-72
9.0054562e-72
9.0054497e-72
9.0054491e-72
9.0054502e-72
9.005456e-72
9.0054812e-72
9.0068543e-72
9.0030201e-72
9.0019144e-72
9.0016673e-72
9.001623e-72
9.0016165e-72
9.0016161e-72
9.0016185e-72
9.0016306e-72
9.0016833e-72
9.0057478e-72
9.0019144e-72
9.0008089e-72
9.0005619e-72
9.0005176e-72
9.0005111e-72
9.0005108e-72
9.0005138e-72
9.0005284e-72
9.0005875e-72
9.0055005e-72
9.0016673e-72
9.0005619e-72
9.0003148e-72
9.0002706e-72
9.0002641e-72
9.0002638e-72
9.000267e-72
9.0002822e-72
9.0003425e-72
9.0054562e-72
9.001623e-72
9.0005176e-72
9.0002706e-72
9.0002263e-72
9.0002198e-72
9.0002196e-72
9.0002228e-72
9.0002381e-72
9.0002986e-72
9.0054497e-72
9.0016165e-72
9.0005111e-72
9.0002641e-72
9.0002198e-72
9.0002133e-72
9.0002131e-72
9.0002163e-72
9.0002316e-72
9.0002922e-72
9.0054491e-72
9.0016161e-72
9.0005108e-72
9.0002638e-72
9.0002196e-72
9.0002131e-72
9.0002128e-72
9.000216e-72
9.0002314e-72
9.0002919e-72
9.0054502e-72
9.0016185e-72
9.0005138e-72
9.000267e-72
9.0002228e-72
9.0002163e-72
9.000216e-72
9.0002193e-72
9.0002346e-72
9.0002951e-72
9.005456e-72
9.0016306e-72
9.0005284e-72
9.0002822e-72
9.0002381e-72
9.0002316e-72
9.0002314e-72
9.0002346e-72
9.0002499e-72
9.0003105e-72
9.0054812e-72
9.0016833e-72
9.0005875e-72
9.0003425e-72
9.0002986e-72
9.0002922e-72
9.0002919e-72
9.0002951e-72
9.0003105e-72
9.000371e-72
7.7459097e-71
7.7427101e-71
7.7417863e-71
7.7415798e-71
7.7415428e-71
7.7415373e-71
7.7415368e-71
7.7415378e-71
7.7415426e-71
7.7415633e-71
7.7427101e-71
7.7395131e-71
7.73859e-71
7.7383836e-71
7.7383466e-71
7.7383411e-71
7.7383408e-71
7.7383428e-71
7.7383531e-71
7.738397e-71
7.7417863e-71
7.73859e-71
7.7376671e-71
7.7374607e-71
7.7374237e-71
7.7374183e-71
7.7374181e-71
7.7374206e-71
7.7374329e-71
7.7374823e-71
7.7415798e-71
7.7383836e-71
7.7374607e-71
7.7372544e-71
7.7372174e-71
7.737212e-71
7.7372118e-71
7.7372145e-71
7.7372273e-71
7.7372777e-71
7.7415428e-71
7.7383466e-71
7.7374237e-71
7.7372174e-71
7.7371804e-71
7.737175e-71
7.7371748e-71
7.7371775e-71
7.7371904e-71
7.737241e-71
7.7415373e-71
7.7383411e-71
7.7374183e-71
7.737212e-71
7.737175e-71
7.7371696e-71
7.7371694e-71
7.7371721e-71
7.737185e-71
7.7372356e-71
7.7415368e-71
7.7383408e-71
7.7374181e-71
7.7372118e-71
7.7371748e-71
7.7371694e-71
7.7371692e-71
7.7371719e-71
7.7371848e-71
7.7372354e-71
7.7415378e-71
7.7383428e-71
7.7374206e-71
7.7372145e-71
7.7371775e-71
7.7371721e-71
7.7371719e-71
7.7371746e-71
7.7371875e-71
7.7372381e-71
7.7415426e-71
7.7383531e-71
7.7374329e-71
7.7372273e-71
7.7371904e-71
7.737185e-71
7.7371848e-71
7.7371875e-71
7.7372005e-71
7.7372511e-71
7.7415633e-71
7.738397e-71
7.7374823e-71
7.7372777e-71
7.737241e-71
7.7372356e-71
7.7372354e-71
7.7372381e-71
7.7372511e-71
7.7373017e-71
6.8296991e-70
6.8269641e-70
6.8261735e-70
6.8259967e-70
6.825965e-70
6.8259603e-70
6.8259599e-70
6.8259607e-70
6.8259649e-70
6.8259822e-70
6.8269641e-70
6.8242313e-70
6.8234413e-70
6.8232646e-70
6.8232329e-70
6.8232283e-70
6.823228e-70
6.8232297e-70
6.8232386e-70
6.8232762e-70
6.8261735e-70
6.8234413e-70
6.8226514e-70
6.8224748e-70
6.8224431e-70
6.8224384e-70
6.8224383e-70
6.8224405e-70
6.8224511e-70
6.8224934e-70
6.8259967e-70
6.8232646e-70
6.8224748e-70
6.8222981e-70
6.8222664e-70
6.8222618e-70
6.8222616e-70
6.822264e-70
6.822275e-70
6.8223182e-70
6.825965e-70
6.8232329e-70
6.8224431e-70
6.8222664e-70
6.8222348e-70
6.8222301e-70
6.82223e-70
6.8222323e-70
6.8222435e-70
6.8222868e-70
6.8259603e-70
6.8232283e-70
6.8224384e-70
6.8222618e-70
6.8222301e-70
6.8222255e-70
6.8222253e-70
6.8222277e-70
6.8222389e-70
6.8222822e-70
6.8259599e-70
6.823228e-70
6.8224383e-70
6.8222616e-70
6.82223e-70
6.8222253e-70
6.8222252e-70
6.8222275e-70
6.8222387e-70
6.8222821e-70
6.8259607e-70
6.8232297e-70
6.8224405e-70
6.822264e-70
6.8222323e-70
6.8222277e-70
6.8222275e-70
6.8222299e-70
6.8222411e-70
6.8222844e-70
6.8259649e-70
6.8232386e-70
6.8224511e-70
6.822275e-70
6.8222435e-70
6.8222389e-70
6.8222387e-70
6.8222411e-70
6.8222522e-70
6.8222956e-70
6.8259822e-70
6.8232762e-70
6.8224934e-70
6.8223182e-70
6.8222868e-70
6.8222822e-70
6.8222821e-70
6.8222844e-70
6.8222956e-70
6.822339e-70
6.1760317e-69
6.1736353e-69
6.1729418e-69
6.1727866e-69
6.1727588e-69
6.1727546e-69
6.1727543e-69
6.172755e-69
6.1727587e-69
6.1727736e-69
6.1736353e-69
6.1712408e-69
6.1705478e-69
6.1703927e-69
6.1703649e-69
6.1703608e-69
6.1703605e-69
6.1703621e-69
6.1703699e-69
6.170403e-69
6.1729418e-69
6.1705478e-69
6.1698548e-69
6.1696998e-69
6.169672e-69
6.1696679e-69
6.1696677e-69
6.1696697e-69
6.1696792e-69
6.1697163e-69
6.1727866e-69
6.1703927e-69
6.1696998e-69
6.1695448e-69
6.169517e-69
6.1695129e-69
6.1695127e-69
6.1695148e-69
6.1695246e-69
6.1695626e-69
6.1727588e-69
6.1703649e-69
6.169672e-69
6.169517e-69
6.1694892e-69
6.1694851e-69
6.1694849e-69
6.169487e-69
6.169497e-69
6.1695351e-69
6.1727546e-69
6.1703608e-69
6.1696679e-69
6.1695129e-69
6.1694851e-69
6.169481e-69
6.1694809e-69
6.169483e-69
6.1694929e-69
6.1695311e-69
6.1727543e-69
6.1703605e-69
6.1696677e-69
6.1695127e-69
6.1694849e-69
6.1694809e-69
6.1694807e-69
6.1694828e-69
6.1694928e-69
6.1695309e-69
6.172755e-69
6.1703621e-69
6.1696697e-69
6.1695148e-69
6.169487e-69
6.169483e-69
6.1694828e-69
6.1694849e-69
6.1694949e-69
6.169533e-69
6.1727587e-69
6.1703699e-69
6.1696792e-69
6.1695246e-69
6.169497e-69
6.1694929e-69
6.1694928e-69
6.1694949e-69
6.1695048e-69
6.1695429e-69
6.1727736e-69
6.170403e-69
6.1697163e-69
6.1695626e-69
6.1695351e-69
6.1695311e-69
6.1695309e-69
6.169533e-69
6.1695429e-69
6.1695811e-69
5.7273639e-68
5.7252119e-68
5.7245883e-68
5.7244487e-68
5.7244237e-68
5.72442e-68
5.7244197e-68
5.7244203e-68
5.7244236e-68
5.7244368e-68
5.7252119e-68
5.7230615e-68
5.7224383e-68
5.7222988e-68
5.7222738e-68
5.7222702e-68
5.7222699e-68
5.7222714e-68
5.7222785e-68
5.7223082e-68
5.7245883e-68
5.7224383e-68
5.7218153e-68
5.7216759e-68
5.7216509e-68
5.7216472e-68
5.7216471e-68
5.7216488e-68
5.7216574e-68
5.721691e-68
5.7244487e-68
5.7222988e-68
5.7216759e-68
5.7215364e-68
5.7215114e-68
5.7215078e-68
5.7215076e-68
5.7215095e-68
5.7215185e-68
5.7215528e-68
5.7244237e-68
5.7222738e-68
5.7216509e-68
5.7215114e-68
5.7214864e-68
5.7214828e-68
5.7214826e-68
5.7214845e-68
5.7214936e-68
5.721528e-68
5.72442e-68
5.7222702e-68
5.7216472e-68
5.7215078e-68
5.7214828e-68
5.7214791e-68
5.721479e-68
5.7214809e-68
5.7214899e-68
5.7215243e-68
5.7244197e-68
5.7222699e-68
5.7216471e-68
5.7215076e-68
5.7214826e-68
5.721479e-68
5.7214788e-68
5.7214808e-68
5.7214898e-68
5.7215242e-68
5.7244203e-68
5.7222714e-68
5.7216488e-68
5.7215095e-68
5.7214845e-68
5.7214809e-68
5.7214808e-68
5.7214827e-68
5.7214917e-68
5.7215261e-68
5.7244236e-68
5.7222785e-68
5.7216574e-68
5.7215185e-68
5.7214936e-68
5.7214899e-68
5.7214898e-68
5.7214917e-68
5.7215007e-68
5.7215352e-68
5.7244368e-68
5.7223082e-68
5.721691e-68
5.7215528e-68
5.721528e-68
5.7215243e-68
5.7215242e-68
5.7215261e-68
5.7215352e-68
5.7215696e-68
5.4461585e-67
5.4441779e-67
5.4436034e-67
5.4434747e-67
5.4434516e-67
5.4434482e-67
5.4434479e-67
5.4434485e-67
5.4434516e-67
5.4434636e-67
5.4441779e-67
5.4421988e-67
5.4416247e-67
5.4414961e-67
5.441473e-67
5.4414696e-67
5.4414694e-67
5.4414708e-67
5.4414774e-67
5.4415049e-67
5.4436034e-67
5.4416247e-67
5.4410506e-67
5.4409221e-67
5.440899e-67
5.4408957e-67
5.4408955e-67
5.4408972e-67
5.4409052e-67
5.4409363e-67
5.4434747e-67
5.4414961e-67
5.4409221e-67
5.4407936e-67
5.4407705e-67
5.4407671e-67
5.440767e-67
5.4407688e-67
5.4407771e-67
5.4408089e-67
5.4434516e-67
5.441473e-67
5.440899e-67
5.4407705e-67
5.4407475e-67
5.4407441e-67
5.440744e-67
5.4407458e-67
5.4407542e-67
5.440786e-67
5.4434482e-67
5.4414696e-67
5.4408957e-67
5.4407671e-67
5.4407441e-67
5.4407407e-67
5.4407406e-67
5.4407424e-67
5.4407508e-67
5.4407827e-67
5.4434479e-67
5.4414694e-67
5.4408955e-67
5.440767e-67
5.440744e-67
5.4407406e-67
5.4407405e-67
5.4407423e-67
5.4407507e-67
5.4407826e-67
5.4434485e-67
5.4414708e-67
5.4408972e-67
5.4407688e-67
5.4407458e-67
5.4407424e-67
5.4407423e-67
5.4407441e-67
5.4407525e-67
5.4407844e-67
5.4434516e-67
5.4414774e-67
5.4409052e-67
5.4407771e-67
5.4407542e-67
5.4407508e-67
5.4407507e-67
5.4407525e-67
5.4407609e-67
5.4407928e-67
5.4434636e-67
5.4415049e-67
5.4409363e-67
5.4408089e-67
5.440786e-67
5.4407827e-67
5.4407826e-67
5.4407844e-67
5.4407928e-67
5.4408247e-67
5.3096164e-66
5.3077487e-66
5.3072063e-66
5.3070848e-66
5.307063e-66
5.3070598e-66
5.3070595e-66
5.3070601e-66
5.307063e-66
5.3070742e-66
5.3077487e-66
5.3058824e-66
5.3053403e-66
5.3052189e-66
5.3051971e-66
5.3051939e-66
5.3051937e-66
5.305195e-66
5.3052013e-66
5.3052274e-66
5.3072063e-66
5.3053403e-66
5.3047984e-66
5.304677e-66
5.3046552e-66
5.304652e-66
5.3046519e-66
5.3046535e-66
5.3046612e-66
5.3046906e-66
5.3070848e-66
5.3052189e-66
5.304677e-66
5.3045556e-66
5.3045338e-66
5.3045306e-66
5.3045305e-66
5.3045322e-66
5.3045402e-66
5.3045703e-66
5.307063e-66
5.3051971e-66
5.3046552e-66
5.3045338e-66
5.304512e-66
5.3045089e-66
5.3045088e-66
5.3045105e-66
5.3045185e-66
5.3045488e-66
5.3070598e-66
5.3051939e-66
5.304652e-66
5.3045306e-66
5.3045089e-66
5.3045057e-66
5.3045056e-66
5.3045073e-66
5.3045153e-66
5.3045456e-66
5.3070595e-66
5.3051937e-66
5.3046519e-66
5.3045305e-66
5.3045088e-66
5.3045056e-66
5.3045055e-66
5.3045072e-66
5.3045152e-66
5.3045455e-66
5.3070601e-66
5.305195e-66
5.3046535e-66
5.3045322e-66
5.3045105e-66
5.3045073e-66
5.3045072e-66
5.3045089e-66
5.304517e-66
5.3045472e-66
5.307063e-66
5.3052013e-66
5.3046612e-66
5.3045402e-66
5.3045185e-66
5.3045153e-66
5.3045152e-66
5.304517e-66
5.304525e-66
5.3045553e-66
5.3070742e-66
5.3052274e-66
5.3046906e-66
5.3045703e-66
5.3045488e-66
5.3045456e-66
5.3045455e-66
5.3045472e-66
5.3045553e-66
5.3045855e-66
5.3065786e-65
5.3047741e-65
5.3042495e-65
5.304132e-65
5.3041109e-65
5.3041078e-65
5.3041075e-65
5.3041081e-65
5.3041109e-65
5.3041216e-65
5.3047741e-65
5.302971e-65
5.3024467e-65
5.3023292e-65
5.3023082e-65
5.3023051e-65
5.3023049e-65
5.3023061e-65
5.3023124e-65
5.3023376e-65
5.3042495e-65
5.3024467e-65
5.3019226e-65
5.3018051e-65
5.3017841e-65
5.301781e-65
5.3017809e-65
5.3017824e-65
5.3017899e-65
5.3018186e-65
5.304132e-65
5.3023292e-65
5.3018051e-65
5.3016877e-65
5.3016666e-65
5.3016635e-65
5.3016634e-65
5.3016651e-65
5.3016729e-65
5.3017022e-65
5.3041109e-65
5.3023082e-65
5.3017841e-65
5.3016666e-65
5.3016455e-65
5.3016424e-65
5.3016424e-65
5.301644e-65
5.3016519e-65
5.3016813e-65
5.3041078e-65
5.3023051e-65
5.301781e-65
5.3016635e-65
5.3016424e-65
5.3016394e-65
5.3016393e-65
5.301641e-65
5.3016488e-65
5.3016783e-65
5.3041075e-65
5.3023049e-65
5.3017809e-65
5.3016634e-65
5.3016424e-65
5.3016393e-65
5.3016392e-65
5.3016409e-65
5.3016488e-65
5.3016782e-65
5.3041081e-65
5.3023061e-65
5.3017824e-65
5.3016651e-65
5.301644e-65
5.301641e-65
5.3016409e-65
5.3016425e-65
5.3016504e-65
5.3016799e-65
5.3041109e-65
5.3023124e-65
5.3017899e-65
5.3016729e-65
5.3016519e-65
5.3016488e-65
5.3016488e-65
5.3016504e-65
5.3016583e-65
5.3016878e-65
5.3041216e-65
5.3023376e-65
5.3018186e-65
5.3017022e-65
5.3016813e-65
5.3016783e-65
5.3016782e-65
5.3016799e-65
5.3016878e-65
5.3017172e-65
5.4360032e-64
5.4342174e-64
5.4336977e-64
5.4335812e-64
5.4335603e-64
5.4335572e-64
5.4335569e-64
5.4335575e-64
5.4335604e-64
5.4335708e-64
5.4342174e-64
5.4324329e-64
5.4319136e-64
5.4317971e-64
5.4317762e-64
5.4317732e-64
5.431773e-64
5.4317743e-64
5.4317805e-64
5.4318057e-64
5.4336977e-64
5.4319136e-64
5.4313943e-64
5.4312779e-64
5.431257e-64
5.431254e-64
5.4312539e-64
5.4312554e-64
5.431263e-64
5.4312916e-64
5.4335812e-64
5.4317971e-64
5.4312779e-64
5.4311615e-64
5.4311406e-64
5.4311376e-64
5.4311375e-64
5.4311391e-64
5.431147e-64
5.4311763e-64
5.4335603e-64
5.4317762e-64
5.431257e-64
5.4311406e-64
5.4311197e-64
5.4311167e-64
5.4311166e-64
5.4311183e-64
5.4311262e-64
5.4311556e-64
5.4335572e-64
5.4317732e-64
5.431254e-64
5.4311376e-64
5.4311167e-64
5.4311136e-64
5.4311135e-64
5.4311152e-64
5.4311232e-64
5.4311525e-64
5.4335569e-64
5.431773e-64
5.4312539e-64
5.4311375e-64
5.4311166e-64
5.4311135e-64
5.4311135e-64
5.4311152e-64
5.4311231e-64
5.4311525e-64
5.4335575e-64
5.4317743e-64
5.4312554e-64
5.4311391e-64
5.4311183e-64
5.4311152e-64
5.4311152e-64
5.4311168e-64
5.4311248e-64
5.4311542e-64
5.4335604e-64
5.4317805e-64
5.431263e-64
5.431147e-64
5.4311262e-64
5.4311232e-64
5.4311231e-64
5.4311248e-64
5.4311327e-64
5.4311621e-64
5.4335708e-64
5.4318057e-64
5.4312916e-64
5.4311763e-64
5.4311556e-64
5.4311525e-64
5.4311525e-64
5.4311542e-64
5.4311621e-64
5.4311915e-64
5.7067283e-63
5.7049184e-63
5.7043911e-63
5.7042729e-63
5.7042517e-63
5.7042485e-63
5.7042482e-63
5.7042489e-63
5.7042517e-63
5.7042622e-63
5.7049184e-63
5.7031097e-63
5.7025828e-63
5.7024646e-63
5.7024434e-63
5.7024403e-63
5.7024401e-63
5.7024415e-63
5.7024479e-63
5.7024736e-63
5.7043911e-63
5.7025828e-63
5.702056e-63
5.7019378e-63
5.7019166e-63
5.7019135e-63
5.7019134e-63
5.7019151e-63
5.7019228e-63
5.7019521e-63
5.7042729e-63
5.7024646e-63
5.7019378e-63
5.7018197e-63
5.7017985e-63
5.7017954e-63
5.7017953e-63
5.701797e-63
5.7018051e-63
5.7018351e-63
5.7042517e-63
5.7024434e-63
5.7019166e-63
5.7017985e-63
5.7017773e-63
5.7017742e-63
5.7017741e-63
5.7017759e-63
5.701784e-63
5.7018141e-63
5.7042485e-63
5.7024403e-63
5.7019135e-63
5.7017954e-63
5.7017742e-63
5.7017711e-63
5.701771e-63
5.7017728e-63
5.7017809e-63
5.701811e-63
5.7042482e-63
5.7024401e-63
5.7019134e-63
5.7017953e-63
5.7017741e-63
5.701771e-63
5.7017709e-63
5.7017727e-63
5.7017809e-63
5.7018109e-63
5.7042489e-63
5.7024415e-63
5.7019151e-63
5.701797e-63
5.7017759e-63
5.7017728e-63
5.7017727e-63
5.7017744e-63
5.7017826e-63
5.7018127e-63
5.7042517e-63
5.7024479e-63
5.7019228e-63
5.7018051e-63
5.701784e-63
5.7017809e-63
5.7017809e-63
5.7017826e-63
5.7017908e-63
5.7018208e-63
5.7042622e-63
5.7024736e-63
5.7019521e-63
5.7018351e-63
5.7018141e-63
5.701811e-63
5.7018109e-63
5.7018127e-63
5.7018208e-63
5.7018509e-63
6.1384577e-62
6.1365794e-62
6.1360317e-62
6.1359088e-62
6.1358867e-62
6.1358835e-62
6.1358832e-62
6.1358838e-62
6.1358869e-62
6.1358977e-62
6.1365794e-62
6.1347024e-62
6.134155e-62
6.1340322e-62
6.1340102e-62
6.1340069e-62
6.1340068e-62
6.1340081e-62
6.1340149e-62
6.1340418e-62
6.1360317e-62
6.134155e-62
6.1336078e-62
6.133485e-62
6.1334629e-62
6.1334597e-62
6.1334596e-62
6.1334613e-62
6.1334695e-62
6.1335001e-62
6.1359088e-62
6.1340322e-62
6.133485e-62
6.1333622e-62
6.1333402e-62
6.1333369e-62
6.1333369e-62
6.1333387e-62
6.1333472e-62
6.1333786e-62
6.1358867e-62
6.1340102e-62
6.1334629e-62
6.1333402e-62
6.1333181e-62
6.1333149e-62
6.1333148e-62
6.1333167e-62
6.1333253e-62
6.1333568e-62
6.1358835e-62
6.1340069e-62
6.1334597e-62
6.1333369e-62
6.1333149e-62
6.1333117e-62
6.1333116e-62
6.1333135e-62
6.1333221e-62
6.1333536e-62
6.1358832e-62
6.1340068e-62
6.1334596e-62
6.1333369e-62
6.1333148e-62
6.1333116e-62
6.1333115e-62
6.1333134e-62
6.133322e-62
6.1333535e-62
6.1358838e-62
6.1340081e-62
6.1334613e-62
6.1333387e-62
6.1333167e-62
6.1333135e-62
6.1333134e-62
6.1333152e-62
6.1333238e-62
6.1333553e-62
6.1358869e-62
6.1340149e-62
6.1334695e-62
6.1333472e-62
6.1333253e-62
6.1333221e-62
6.133322e-62
6.1333238e-62
6.1333325e-62
6.1333639e-62
6.1358977e-62
6.1340418e-62
6.1335001e-62
6.1333786e-62
6.1333568e-62
6.1333536e-62
6.1333535e-62
6.1333553e-62
6.1333639e-62
6.1333954e-62
6.7641203e-61
6.7621248e-61
6.7615424e-61
6.7614117e-61
6.7613882e-61
6.7613847e-61
6.7613844e-61
6.7613851e-61
6.7613884e-61
6.7613998e-61
6.7621248e-61
6.7601307e-61
6.7595486e-61
6.759418e-61
6.7593945e-61
6.7593911e-61
6.7593909e-61
6.7593924e-61
6.7593997e-61
6.7594285e-61
6.7615424e-61
6.7595486e-61
6.7589666e-61
6.758836e-61
6.7588126e-61
6.7588092e-61
6.7588091e-61
6.7588109e-61
6.7588198e-61
6.7588526e-61
6.7614117e-61
6.759418e-61
6.758836e-61
6.7587054e-61
6.758682e-61
6.7586786e-61
6.7586785e-61
6.7586805e-61
6.7586897e-61
6.7587233e-61
6.7613882e-61
6.7593945e-61
6.7588126e-61
6.758682e-61
6.7586585e-61
6.7586551e-61
6.758655e-61
6.758657e-61
6.7586663e-61
6.7587001e-61
6.7613847e-61
6.7593911e-61
6.7588092e-61
6.7586786e-61
6.7586551e-61
6.7586517e-61
6.7586516e-61
6.7586536e-61
6.7586629e-61
6.7586967e-61
6.7613844e-61
6.7593909e-61
6.7588091e-61
6.7586785e-61
6.758655e-61
6.7586516e-61
6.7586515e-61
6.7586535e-61
6.7586628e-61
6.7586966e-61
6.7613851e-61
6.7593924e-61
6.7588109e-61
6.7586805e-61
6.758657e-61
6.7586536e-61
6.7586535e-61
6.7586555e-61
6.7586648e-61
6.7586986e-61
6.7613884e-61
6.7593997e-61
6.7588198e-61
6.7586897e-61
6.7586663e-61
6.7586629e-61
6.7586628e-61
6.7586648e-61
6.7586741e-61
6.7587079e-61
6.7613998e-61
6.7594285e-61
6.7588526e-61
6.7587233e-61
6.7587001e-61
6.7586967e-61
6.7586966e-61
6.7586986e-61
6.7587079e-61
6.7587418e-61
7.6339924e-60
7.6318227e-60
7.6311889e-60
7.6310466e-60
7.631021e-60
7.6310172e-60
7.6310169e-60
7.6310177e-60
7.6310213e-60
7.6310336e-60
7.6318227e-60
7.6296545e-60
7.629021e-60
7.6288788e-60
7.6288532e-60
7.6288495e-60
7.6288493e-60
7.628851e-60
7.628859e-60
7.6288907e-60
7.6311889e-60
7.629021e-60
7.6283876e-60
7.6282454e-60
7.6282199e-60
7.6282162e-60
7.6282161e-60
7.6282181e-60
7.6282279e-60
7.6282641e-60
7.6310466e-60
7.6288788e-60
7.6282454e-60
7.6281032e-60
7.6280777e-60
7.628074e-60
7.6280739e-60
7.6280761e-60
7.6280863e-60
7.6281233e-60
7.631021e-60
7.6288532e-60
7.6282199e-60
7.6280777e-60
7.6280522e-60
7.6280485e-60
7.6280484e-60
7.6280506e-60
7.6280609e-60
7.628098e-60
7.6310172e-60
7.6288495e-60
7.6282162e-60
7.628074e-60
7.6280485e-60
7.6280447e-60
7.6280447e-60
7.6280469e-60
7.6280571e-60
7.6280943e-60
7.6310169e-60
7.6288493e-60
7.6282161e-60
7.6280739e-60
7.6280484e-60
7.6280447e-60
7.6280446e-60
7.6280468e-60
7.6280571e-60
7.6280943e-60
7.6310177e-60
7.628851e-60
7.6282181e-60
7.6280761e-60
7.6280506e-60
7.6280469e-60
7.6280468e-60
7.628049e-60
7.6280593e-60
7.6280965e-60
7.6310213e-60
7.628859e-60
7.6282279e-60
7.6280863e-60
7.6280609e-60
7.6280571e-60
7.6280571e-60
7.6280593e-60
7.6280696e-60
7.6281068e-60
7.6310336e-60
7.6288907e-60
7.6282641e-60
7.6281233e-60
7.628098e-60
7.6280943e-60
7.6280943e-60
7.6280965e-60
7.6281068e-60
7.628144e-60
8.8222941e-59
8.8198802e-59
8.8191744e-59
8.8190159e-59
8.8189874e-59
8.8189832e-59
8.8189828e-59
8.8189837e-59
8.8189877e-59
8.8190014e-59
8.8198802e-59
8.8174679e-59
8.8167625e-59
8.8166041e-59
8.8165756e-59
8.8165714e-59
8.8165713e-59
8.8165731e-59
8.8165822e-59
8.8166179e-59
8.8191744e-59
8.8167625e-59
8.8160572e-59
8.8158988e-59
8.8158704e-59
8.8158662e-59
8.8158661e-59
8.8158684e-59
8.8158795e-59
8.8159202e-59
8.8190159e-59
8.8166041e-59
8.8158988e-59
8.8157404e-59
8.815712e-59
8.8157078e-59
8.8157077e-59
8.8157102e-59
8.8157218e-59
8.8157635e-59
8.8189874e-59
8.8165756e-59
8.8158704e-59
8.815712e-59
8.8156836e-59
8.8156794e-59
8.8156793e-59
8.8156818e-59
8.8156934e-59
8.8157353e-59
8.8189832e-59
8.8165714e-59
8.8158662e-59
8.8157078e-59
8.8156794e-59
8.8156752e-59
8.8156752e-59
8.8156777e-59
8.8156893e-59
8.8157312e-59
8.8189828e-59
8.8165713e-59
8.8158661e-59
8.8157077e-59
8.8156793e-59
8.8156752e-59
8.8156751e-59
8.8156776e-59
8.8156892e-59
8.8157311e-59
8.8189837e-59
8.8165731e-59
8.8158684e-59
8.8157102e-59
8.8156818e-59
8.8156777e-59
8.8156776e-59
8.8156801e-59
8.8156917e-59
8.8157336e-59
8.8189877e-59
8.8165822e-59
8.8158795e-59
8.8157218e-59
8.8156934e-59
8.8156893e-59
8.8156892e-59
8.8156917e-59
8.8157034e-59
8.8157453e-59
8.8190014e-59
8.8166179e-59
8.8159202e-59
8.8157635e-59
8.8157353e-59
8.8157312e-59
8.8157311e-59