/*--------------------------------*- C++ -*----------------------------------*\
| =========                 |                                                 |
| \\      /  F ield         | OpenFOAM: The Open Source CFD Toolbox           |
|  \\    /   O peration     | Version:  dev                                   |
|   \\  /    A nd           | Web:      www.OpenFOAM.org                      |
|    \\/     M anipulation  |                                                 |
\*---------------------------------------------------------------------------*/
FoamFile
{
    version     2.0;
    format      ascii;
    class       volScalarField;
    location    "92.995";
    object      A;
}
// * * * * * * * * * * * * * * * * * * * * * * * * * * * * * * * * * * * * * //

dimensions      [0 0 0 0 1 0 0];

internalField   nonuniform List<scalar> 
10000
(
5.5135658e-22
5.5087935e-22
5.5061326e-22
5.5045798e-22
5.5037115e-22
5.5032878e-22
5.5031822e-22
5.503364e-22
5.5039095e-22
5.5049764e-22
5.5087935e-22
5.5040393e-22
5.5013846e-22
5.499835e-22
5.4989691e-22
5.4985484e-22
5.4984482e-22
5.498642e-22
5.4992178e-22
5.5003707e-22
5.5061326e-22
5.5013846e-22
5.4987342e-22
5.4971876e-22
5.4963245e-22
5.4959078e-22
5.4958144e-22
5.4960205e-22
5.4966175e-22
5.4978004e-22
5.5045798e-22
5.499835e-22
5.4971876e-22
5.4956437e-22
5.4947836e-22
5.4943707e-22
5.4942831e-22
5.494498e-22
5.4951072e-22
5.4963017e-22
5.5037115e-22
5.4989691e-22
5.4963245e-22
5.4947836e-22
5.4939264e-22
5.4935169e-22
5.4934337e-22
5.4936543e-22
5.4942699e-22
5.4954695e-22
5.5032878e-22
5.4985484e-22
5.4959078e-22
5.4943707e-22
5.4935169e-22
5.4931105e-22
5.4930305e-22
5.4932546e-22
5.4938738e-22
5.4950758e-22
5.5031822e-22
5.4984482e-22
5.4958144e-22
5.4942831e-22
5.4934337e-22
5.4930305e-22
5.4929532e-22
5.4931796e-22
5.4938008e-22
5.495004e-22
5.503364e-22
5.498642e-22
5.4960205e-22
5.494498e-22
5.4936543e-22
5.4932546e-22
5.4931796e-22
5.4934078e-22
5.4940303e-22
5.4952345e-22
5.5039095e-22
5.4992178e-22
5.4966175e-22
5.4951072e-22
5.4942699e-22
5.4938738e-22
5.4938008e-22
5.4940303e-22
5.4946541e-22
5.4958597e-22
5.5049764e-22
5.5003707e-22
5.4978004e-22
5.4963017e-22
5.4954695e-22
5.4950758e-22
5.495004e-22
5.4952345e-22
5.4958597e-22
5.4970686e-22
1.8044569e-21
1.8029563e-21
1.8020944e-21
1.8015901e-21
1.801308e-21
1.8011702e-21
1.8011357e-21
1.8011945e-21
1.8013715e-21
1.8017299e-21
1.8029563e-21
1.8014613e-21
1.8006013e-21
1.8000981e-21
1.7998167e-21
1.7996799e-21
1.7996472e-21
1.7997099e-21
1.7998968e-21
1.8002834e-21
1.8020944e-21
1.8006013e-21
1.7997427e-21
1.7992405e-21
1.79896e-21
1.7988245e-21
1.798794e-21
1.7988607e-21
1.7990546e-21
1.799451e-21
1.8015901e-21
1.8000981e-21
1.7992405e-21
1.7987391e-21
1.7984596e-21
1.7983253e-21
1.7982967e-21
1.7983663e-21
1.7985641e-21
1.7989644e-21
1.801308e-21
1.7998167e-21
1.79896e-21
1.7984596e-21
1.798181e-21
1.7980479e-21
1.7980207e-21
1.7980922e-21
1.7982921e-21
1.798694e-21
1.8011702e-21
1.7996799e-21
1.7988245e-21
1.7983253e-21
1.7980479e-21
1.7979157e-21
1.7978896e-21
1.7979622e-21
1.7981633e-21
1.798566e-21
1.8011357e-21
1.7996472e-21
1.798794e-21
1.7982967e-21
1.7980207e-21
1.7978896e-21
1.7978644e-21
1.7979377e-21
1.7981395e-21
1.7985426e-21
1.8011945e-21
1.7997099e-21
1.7988607e-21
1.7983663e-21
1.7980922e-21
1.7979622e-21
1.7979377e-21
1.7980117e-21
1.7982139e-21
1.7986172e-21
1.8013715e-21
1.7998968e-21
1.7990546e-21
1.7985641e-21
1.7982921e-21
1.7981633e-21
1.7981395e-21
1.7982139e-21
1.7984164e-21
1.7988203e-21
1.8017299e-21
1.8002834e-21
1.799451e-21
1.7989644e-21
1.798694e-21
1.798566e-21
1.7985426e-21
1.7986172e-21
1.7988203e-21
1.7992253e-21
3.5582147e-21
3.555355e-21
3.5536857e-21
3.552706e-21
3.552157e-21
3.5518887e-21
3.5518212e-21
3.5519344e-21
3.552277e-21
3.5529934e-21
3.555355e-21
3.5525058e-21
3.5508403e-21
3.5498625e-21
3.549315e-21
3.5490485e-21
3.5489845e-21
3.5491055e-21
3.5494675e-21
3.5502396e-21
3.5536857e-21
3.5508403e-21
3.5491774e-21
3.5482016e-21
3.5476559e-21
3.5473919e-21
3.5473322e-21
3.547461e-21
3.5478367e-21
3.548628e-21
3.552706e-21
3.5498625e-21
3.5482016e-21
3.5472275e-21
3.5466836e-21
3.5464222e-21
3.5463661e-21
3.5465006e-21
3.5468841e-21
3.5476829e-21
3.552157e-21
3.549315e-21
3.5476559e-21
3.5466836e-21
3.5461417e-21
3.5458824e-21
3.5458292e-21
3.5459673e-21
3.5463549e-21
3.547157e-21
3.5518887e-21
3.5490485e-21
3.5473919e-21
3.5464222e-21
3.5458824e-21
3.5456251e-21
3.5455739e-21
3.5457143e-21
3.5461042e-21
3.5469077e-21
3.5518212e-21
3.5489845e-21
3.5473322e-21
3.5463661e-21
3.5458292e-21
3.5455739e-21
3.5455244e-21
3.5456663e-21
3.5460575e-21
3.5468618e-21
3.5519344e-21
3.5491055e-21
3.547461e-21
3.5465006e-21
3.5459673e-21
3.5457143e-21
3.5456663e-21
3.5458093e-21
3.5462013e-21
3.5470063e-21
3.552277e-21
3.5494675e-21
3.5478367e-21
3.5468841e-21
3.5463549e-21
3.5461042e-21
3.5460575e-21
3.5462013e-21
3.5465942e-21
3.5474e-21
3.5529934e-21
3.5502396e-21
3.548628e-21
3.5476829e-21
3.547157e-21
3.5469077e-21
3.5468618e-21
3.5470063e-21
3.5474e-21
3.5482083e-21
6.3205119e-21
6.315601e-21
6.3127045e-21
6.3109989e-21
6.3100413e-21
6.3095725e-21
6.3094535e-21
6.3096484e-21
6.3102399e-21
6.3114925e-21
6.315601e-21
6.3107077e-21
6.3078177e-21
6.3061154e-21
6.3051604e-21
6.3046949e-21
6.3045821e-21
6.3047906e-21
6.3054165e-21
6.3067677e-21
6.3127045e-21
6.3078177e-21
6.3049323e-21
6.3032333e-21
6.3022815e-21
6.3018205e-21
6.3017153e-21
6.3019375e-21
6.3025876e-21
6.3039729e-21
6.3109989e-21
6.3061154e-21
6.3032333e-21
6.3015373e-21
6.3005888e-21
6.3001321e-21
6.3000334e-21
6.3002657e-21
6.3009295e-21
6.302328e-21
6.3100413e-21
6.3051604e-21
6.3022815e-21
6.3005888e-21
6.2996436e-21
6.2991907e-21
6.299097e-21
6.2993357e-21
6.3000068e-21
6.301411e-21
6.3095725e-21
6.3046949e-21
6.3018205e-21
6.3001321e-21
6.2991907e-21
6.2987414e-21
6.2986513e-21
6.2988939e-21
6.299569e-21
6.3009759e-21
6.3094535e-21
6.3045821e-21
6.3017153e-21
6.3000334e-21
6.299097e-21
6.2986513e-21
6.2985641e-21
6.2988094e-21
6.2994868e-21
6.300895e-21
6.3096484e-21
6.3047906e-21
6.3019375e-21
6.3002657e-21
6.2993357e-21
6.2988939e-21
6.2988094e-21
6.2990567e-21
6.2997356e-21
6.3011449e-21
6.3102399e-21
6.3054165e-21
6.3025876e-21
6.3009295e-21
6.3000068e-21
6.299569e-21
6.2994868e-21
6.2997356e-21
6.3004159e-21
6.3018267e-21
6.3114925e-21
6.3067677e-21
6.3039729e-21
6.302328e-21
6.301411e-21
6.3009759e-21
6.300895e-21
6.3011449e-21
6.3018267e-21
6.3032418e-21
1.093226e-20
1.092405e-20
1.0919173e-20
1.0916291e-20
1.091467e-20
1.0913875e-20
1.0913671e-20
1.0913995e-20
1.0914983e-20
1.0917077e-20
1.092405e-20
1.0915869e-20
1.0911003e-20
1.0908127e-20
1.090651e-20
1.090572e-20
1.0905527e-20
1.0905875e-20
1.0906922e-20
1.0909186e-20
1.0919173e-20
1.0911003e-20
1.0906144e-20
1.0903273e-20
1.0901662e-20
1.090088e-20
1.09007e-20
1.0901072e-20
1.090216e-20
1.0904483e-20
1.0916291e-20
1.0908127e-20
1.0903273e-20
1.0900408e-20
1.0898802e-20
1.0898028e-20
1.0897859e-20
1.0898247e-20
1.0899359e-20
1.0901705e-20
1.091467e-20
1.090651e-20
1.0901662e-20
1.0898802e-20
1.0897202e-20
1.0896434e-20
1.0896274e-20
1.0896673e-20
1.0897798e-20
1.0900153e-20
1.0913875e-20
1.090572e-20
1.090088e-20
1.0898028e-20
1.0896434e-20
1.0895672e-20
1.0895518e-20
1.0895925e-20
1.0897056e-20
1.0899416e-20
1.0913671e-20
1.0905527e-20
1.09007e-20
1.0897859e-20
1.0896274e-20
1.0895518e-20
1.0895369e-20
1.089578e-20
1.0896915e-20
1.0899277e-20
1.0913995e-20
1.0905875e-20
1.0901072e-20
1.0898247e-20
1.0896673e-20
1.0895925e-20
1.089578e-20
1.0896194e-20
1.0897332e-20
1.0899696e-20
1.0914983e-20
1.0906922e-20
1.090216e-20
1.0899359e-20
1.0897798e-20
1.0897056e-20
1.0896915e-20
1.0897332e-20
1.0898472e-20
1.0900839e-20
1.0917077e-20
1.0909186e-20
1.0904483e-20
1.0901705e-20
1.0900153e-20
1.0899416e-20
1.0899277e-20
1.0899696e-20
1.0900839e-20
1.0903213e-20
1.8853277e-20
1.8839598e-20
1.8831425e-20
1.8826581e-20
1.882385e-20
1.8822508e-20
1.882216e-20
1.8822697e-20
1.8824333e-20
1.8827792e-20
1.8839598e-20
1.8825968e-20
1.8817813e-20
1.8812978e-20
1.8810254e-20
1.8808922e-20
1.8808592e-20
1.8809169e-20
1.8810907e-20
1.8814657e-20
1.8831425e-20
1.8817813e-20
1.8809671e-20
1.8804845e-20
1.880213e-20
1.8800811e-20
1.8800504e-20
1.8801121e-20
1.880293e-20
1.8806781e-20
1.8826581e-20
1.8812978e-20
1.8804845e-20
1.8800027e-20
1.8797322e-20
1.8796016e-20
1.8795728e-20
1.8796374e-20
1.8798223e-20
1.8802113e-20
1.882385e-20
1.8810254e-20
1.880213e-20
1.8797322e-20
1.8794627e-20
1.8793332e-20
1.8793058e-20
1.8793723e-20
1.8795594e-20
1.8799501e-20
1.8822508e-20
1.8808922e-20
1.8800811e-20
1.8796016e-20
1.8793332e-20
1.8792046e-20
1.8791783e-20
1.879246e-20
1.8794343e-20
1.8798257e-20
1.882216e-20
1.8808592e-20
1.8800504e-20
1.8795728e-20
1.8793058e-20
1.8791783e-20
1.8791529e-20
1.8792214e-20
1.8794103e-20
1.8798021e-20
1.8822697e-20
1.8809169e-20
1.8801121e-20
1.8796374e-20
1.8793723e-20
1.879246e-20
1.8792214e-20
1.8792904e-20
1.8794798e-20
1.8798719e-20
1.8824333e-20
1.8810907e-20
1.880293e-20
1.8798223e-20
1.8795594e-20
1.8794343e-20
1.8794103e-20
1.8794798e-20
1.8796695e-20
1.8800621e-20
1.8827792e-20
1.8814657e-20
1.8806781e-20
1.8802113e-20
1.8799501e-20
1.8798257e-20
1.8798021e-20
1.8798719e-20
1.8800621e-20
1.8804558e-20
3.2679554e-20
3.2656658e-20
3.2642908e-20
3.2634732e-20
3.2630113e-20
3.2627839e-20
3.2627245e-20
3.2628136e-20
3.2630854e-20
3.2636569e-20
3.2656658e-20
3.2633842e-20
3.2620122e-20
3.2611961e-20
3.2607355e-20
3.2605098e-20
3.2604534e-20
3.2605493e-20
3.2608386e-20
3.2614603e-20
3.2642908e-20
3.2620122e-20
3.2606424e-20
3.2598279e-20
3.2593688e-20
3.2591453e-20
3.2590928e-20
3.2591957e-20
3.2594972e-20
3.2601362e-20
3.2634732e-20
3.2611961e-20
3.2598279e-20
3.2590148e-20
3.2585574e-20
3.258336e-20
3.2582868e-20
3.2583947e-20
3.2587031e-20
3.2593488e-20
3.2630113e-20
3.2607355e-20
3.2593688e-20
3.2585574e-20
3.2581016e-20
3.2578822e-20
3.2578354e-20
3.2579465e-20
3.2582587e-20
3.2589072e-20
3.2627839e-20
3.2605098e-20
3.2591453e-20
3.258336e-20
3.2578822e-20
3.2576645e-20
3.2576195e-20
3.2577327e-20
3.2580468e-20
3.2586967e-20
3.2627245e-20
3.2604534e-20
3.2590928e-20
3.2582868e-20
3.2578354e-20
3.2576195e-20
3.257576e-20
3.2576905e-20
3.2580058e-20
3.2586564e-20
3.2628136e-20
3.2605493e-20
3.2591957e-20
3.2583947e-20
3.2579465e-20
3.2577327e-20
3.2576905e-20
3.257806e-20
3.258122e-20
3.2587732e-20
3.2630854e-20
3.2608386e-20
3.2594972e-20
3.2587031e-20
3.2582587e-20
3.2580468e-20
3.2580058e-20
3.258122e-20
3.2584387e-20
3.2590905e-20
3.2636569e-20
3.2614603e-20
3.2601362e-20
3.2593488e-20
3.2589072e-20
3.2586967e-20
3.2586564e-20
3.2587732e-20
3.2590905e-20
3.2597443e-20
5.7095115e-20
5.7056502e-20
5.7033205e-20
5.7019307e-20
5.701144e-20
5.7007561e-20
5.7006536e-20
5.7008024e-20
5.701257e-20
5.7022064e-20
5.7056502e-20
5.7018022e-20
5.6994775e-20
5.6980904e-20
5.6973058e-20
5.6969207e-20
5.6968235e-20
5.6969842e-20
5.6974691e-20
5.6985057e-20
5.7033205e-20
5.6994775e-20
5.6971564e-20
5.6957719e-20
5.6949901e-20
5.6946088e-20
5.6945183e-20
5.694691e-20
5.695197e-20
5.6962636e-20
5.7019307e-20
5.6980904e-20
5.6957719e-20
5.69439e-20
5.693611e-20
5.6932334e-20
5.6931485e-20
5.69333e-20
5.693848e-20
5.6949262e-20
5.701144e-20
5.6973058e-20
5.6949901e-20
5.693611e-20
5.6928347e-20
5.6924604e-20
5.6923799e-20
5.6925669e-20
5.6930913e-20
5.6941745e-20
5.7007561e-20
5.6969207e-20
5.6946088e-20
5.6932334e-20
5.6924604e-20
5.6920892e-20
5.6920118e-20
5.6922023e-20
5.6927301e-20
5.6938156e-20
5.7006536e-20
5.6968235e-20
5.6945183e-20
5.6931485e-20
5.6923799e-20
5.6920118e-20
5.6919369e-20
5.6921297e-20
5.6926595e-20
5.6937463e-20
5.7008024e-20
5.6969842e-20
5.694691e-20
5.69333e-20
5.6925669e-20
5.6922023e-20
5.6921297e-20
5.6923242e-20
5.6928552e-20
5.6939429e-20
5.701257e-20
5.6974691e-20
5.695197e-20
5.693848e-20
5.6930913e-20
5.6927301e-20
5.6926595e-20
5.6928552e-20
5.6933874e-20
5.6944763e-20
5.7022064e-20
5.6985057e-20
5.6962636e-20
5.6949262e-20
5.6941745e-20
5.6938156e-20
5.6937463e-20
5.6939429e-20
5.6944763e-20
5.6955683e-20
1.006442e-19
1.0057852e-19
1.0053872e-19
1.005149e-19
1.0050139e-19
1.0049472e-19
1.0049294e-19
1.0049544e-19
1.0050311e-19
1.00519e-19
1.0057852e-19
1.0051308e-19
1.0047336e-19
1.0044958e-19
1.0043611e-19
1.0042948e-19
1.004278e-19
1.0043051e-19
1.004387e-19
1.0045613e-19
1.0053872e-19
1.0047336e-19
1.004337e-19
1.0040997e-19
1.0039654e-19
1.0038998e-19
1.0038841e-19
1.0039134e-19
1.003999e-19
1.0041785e-19
1.005149e-19
1.0044958e-19
1.0040997e-19
1.0038629e-19
1.0037291e-19
1.0036641e-19
1.0036494e-19
1.0036802e-19
1.0037679e-19
1.0039494e-19
1.0050139e-19
1.0043611e-19
1.0039654e-19
1.0037291e-19
1.0035958e-19
1.0035314e-19
1.0035174e-19
1.0035492e-19
1.003638e-19
1.0038204e-19
1.0049472e-19
1.0042948e-19
1.0038998e-19
1.0036641e-19
1.0035314e-19
1.0034676e-19
1.0034541e-19
1.0034865e-19
1.0035759e-19
1.0037587e-19
1.0049294e-19
1.004278e-19
1.0038841e-19
1.0036494e-19
1.0035174e-19
1.0034541e-19
1.0034412e-19
1.0034739e-19
1.0035637e-19
1.0037467e-19
1.0049544e-19
1.0043051e-19
1.0039134e-19
1.0036802e-19
1.0035492e-19
1.0034865e-19
1.0034739e-19
1.0035069e-19
1.0035969e-19
1.0037801e-19
1.0050311e-19
1.004387e-19
1.003999e-19
1.0037679e-19
1.003638e-19
1.0035759e-19
1.0035637e-19
1.0035969e-19
1.0036871e-19
1.0038705e-19
1.00519e-19
1.0045613e-19
1.0041785e-19
1.0039494e-19
1.0038204e-19
1.0037587e-19
1.0037467e-19
1.0037801e-19
1.0038705e-19
1.0040544e-19
1.7906309e-19
1.789504e-19
1.7888179e-19
1.7884061e-19
1.7881721e-19
1.7880563e-19
1.7880251e-19
1.7880677e-19
1.7881981e-19
1.7884665e-19
1.789504e-19
1.7883809e-19
1.7876963e-19
1.7872853e-19
1.7870519e-19
1.7869369e-19
1.7869074e-19
1.7869536e-19
1.7870933e-19
1.7873887e-19
1.7888179e-19
1.7876963e-19
1.7870127e-19
1.7866025e-19
1.7863699e-19
1.7862561e-19
1.7862286e-19
1.7862786e-19
1.7864248e-19
1.7867294e-19
1.7884061e-19
1.7872853e-19
1.7866025e-19
1.7861931e-19
1.7859613e-19
1.7858486e-19
1.7858229e-19
1.7858755e-19
1.7860254e-19
1.7863336e-19
1.7881721e-19
1.7870519e-19
1.7863699e-19
1.7859613e-19
1.7857305e-19
1.7856188e-19
1.7855943e-19
1.7856487e-19
1.7858005e-19
1.7861103e-19
1.7880563e-19
1.7869369e-19
1.7862561e-19
1.7858486e-19
1.7856188e-19
1.7855081e-19
1.7854846e-19
1.78554e-19
1.7856929e-19
1.7860034e-19
1.7880251e-19
1.7869074e-19
1.7862286e-19
1.7858229e-19
1.7855943e-19
1.7854846e-19
1.7854619e-19
1.785518e-19
1.7856715e-19
1.7859823e-19
1.7880677e-19
1.7869536e-19
1.7862786e-19
1.7858755e-19
1.7856487e-19
1.78554e-19
1.785518e-19
1.7855746e-19
1.7857285e-19
1.7860396e-19
1.7881981e-19
1.7870933e-19
1.7864248e-19
1.7860254e-19
1.7858005e-19
1.7856929e-19
1.7856715e-19
1.7857285e-19
1.7858827e-19
1.7861942e-19
1.7884665e-19
1.7873887e-19
1.7867294e-19
1.7863336e-19
1.7861103e-19
1.7860034e-19
1.7859823e-19
1.7860396e-19
1.7861942e-19
1.7865066e-19
3.2160115e-19
3.2140603e-19
3.2128672e-19
3.212149e-19
3.21174e-19
3.2115372e-19
3.2114822e-19
3.2115552e-19
3.211779e-19
3.2122364e-19
3.2140603e-19
3.2121157e-19
3.2109251e-19
3.2102082e-19
3.2098003e-19
3.2095991e-19
3.2095469e-19
3.2096265e-19
3.2098669e-19
3.2103723e-19
3.2128672e-19
3.2109251e-19
3.2097363e-19
3.2090208e-19
3.2086144e-19
3.2084151e-19
3.2083666e-19
3.2084528e-19
3.2087047e-19
3.2092266e-19
3.212149e-19
3.2102082e-19
3.2090208e-19
3.2083067e-19
3.2079017e-19
3.2077045e-19
3.2076591e-19
3.20775e-19
3.2080085e-19
3.2085367e-19
3.21174e-19
3.2098003e-19
3.2086144e-19
3.2079017e-19
3.2074983e-19
3.2073028e-19
3.2072597e-19
3.2073537e-19
3.2076156e-19
3.2081466e-19
3.2115372e-19
3.2095991e-19
3.2084151e-19
3.2077045e-19
3.2073028e-19
3.2071091e-19
3.2070677e-19
3.2071635e-19
3.2074273e-19
3.2079596e-19
3.2114822e-19
3.2095469e-19
3.2083666e-19
3.2076591e-19
3.2072597e-19
3.2070677e-19
3.2070277e-19
3.2071247e-19
3.2073896e-19
3.2079226e-19
3.2115552e-19
3.2096265e-19
3.2084528e-19
3.20775e-19
3.2073537e-19
3.2071635e-19
3.2071247e-19
3.2072227e-19
3.2074883e-19
3.2080217e-19
3.211779e-19
3.2098669e-19
3.2087047e-19
3.2080085e-19
3.2076156e-19
3.2074273e-19
3.2073896e-19
3.2074883e-19
3.2077545e-19
3.2082885e-19
3.2122364e-19
3.2103723e-19
3.2092266e-19
3.2085367e-19
3.2081466e-19
3.2079596e-19
3.2079226e-19
3.2080217e-19
3.2082885e-19
3.208824e-19
5.8311879e-19
5.8277789e-19
5.8256853e-19
5.8244213e-19
5.8237001e-19
5.8233419e-19
5.8232439e-19
5.8233704e-19
5.8237579e-19
5.8245444e-19
5.8277789e-19
5.8243814e-19
5.8222921e-19
5.8210304e-19
5.8203111e-19
5.8199556e-19
5.8198628e-19
5.820001e-19
5.8204184e-19
5.8212912e-19
5.8256853e-19
5.8222921e-19
5.820206e-19
5.8189467e-19
5.81823e-19
5.8178781e-19
5.8177918e-19
5.8179418e-19
5.81838e-19
5.8192823e-19
5.8244213e-19
5.8210304e-19
5.8189467e-19
5.8176899e-19
5.8169758e-19
5.8166276e-19
5.8165468e-19
5.8167053e-19
5.8171552e-19
5.818069e-19
5.8237001e-19
5.8203111e-19
5.81823e-19
5.8169758e-19
5.8162644e-19
5.8159194e-19
5.8158427e-19
5.8160067e-19
5.8164629e-19
5.8173816e-19
5.8233419e-19
5.8199556e-19
5.8178781e-19
5.8166276e-19
5.8159194e-19
5.8155773e-19
5.8155037e-19
5.8156711e-19
5.8161306e-19
5.8170516e-19
5.8232439e-19
5.8198628e-19
5.8177918e-19
5.8165468e-19
5.8158427e-19
5.8155037e-19
5.8154326e-19
5.8156022e-19
5.8160636e-19
5.8169858e-19
5.8233704e-19
5.820001e-19
5.8179418e-19
5.8167053e-19
5.8160067e-19
5.8156711e-19
5.8156022e-19
5.8157733e-19
5.816236e-19
5.817159e-19
5.8237579e-19
5.8204184e-19
5.81838e-19
5.8171552e-19
5.8164629e-19
5.8161306e-19
5.8160636e-19
5.816236e-19
5.8166997e-19
5.8176237e-19
5.8245444e-19
5.8212912e-19
5.8192823e-19
5.818069e-19
5.8173816e-19
5.8170516e-19
5.8169858e-19
5.817159e-19
5.8176237e-19
5.8185504e-19
1.067445e-18
1.0668439e-18
1.0664732e-18
1.0662487e-18
1.0661204e-18
1.0660566e-18
1.066039e-18
1.0660611e-18
1.0661288e-18
1.0662653e-18
1.0668439e-18
1.0662449e-18
1.0658749e-18
1.0656508e-18
1.0655229e-18
1.0654595e-18
1.0654429e-18
1.0654671e-18
1.0655402e-18
1.0656924e-18
1.0664732e-18
1.0658749e-18
1.0655055e-18
1.0652819e-18
1.0651544e-18
1.0650917e-18
1.0650762e-18
1.0651025e-18
1.0651795e-18
1.065337e-18
1.0662487e-18
1.0656508e-18
1.0652819e-18
1.0650587e-18
1.0649316e-18
1.0648696e-18
1.0648551e-18
1.064883e-18
1.0649621e-18
1.0651216e-18
1.0661204e-18
1.0655229e-18
1.0651544e-18
1.0649316e-18
1.0648051e-18
1.0647436e-18
1.0647299e-18
1.0647588e-18
1.064839e-18
1.0649994e-18
1.0660566e-18
1.0654595e-18
1.0650917e-18
1.0648696e-18
1.0647436e-18
1.0646827e-18
1.0646695e-18
1.064699e-18
1.0647798e-18
1.0649407e-18
1.066039e-18
1.0654429e-18
1.0650762e-18
1.0648551e-18
1.0647299e-18
1.0646695e-18
1.0646568e-18
1.0646867e-18
1.0647678e-18
1.0649289e-18
1.0660611e-18
1.0654671e-18
1.0651025e-18
1.064883e-18
1.0647588e-18
1.064699e-18
1.0646867e-18
1.0647169e-18
1.0647982e-18
1.0649594e-18
1.0661288e-18
1.0655402e-18
1.0651795e-18
1.0649621e-18
1.064839e-18
1.0647798e-18
1.0647678e-18
1.0647982e-18
1.0648798e-18
1.0650412e-18
1.0662653e-18
1.0656924e-18
1.065337e-18
1.0651216e-18
1.0649994e-18
1.0649407e-18
1.0649289e-18
1.0649594e-18
1.0650412e-18
1.065203e-18
1.9728668e-18
1.9717974e-18
1.971135e-18
1.9707327e-18
1.9705024e-18
1.9703876e-18
1.9703557e-18
1.9703947e-18
1.9705143e-18
1.9707533e-18
1.9717974e-18
1.9707315e-18
1.9700704e-18
1.9696689e-18
1.9694392e-18
1.9693253e-18
1.9692951e-18
1.969338e-18
1.9694675e-18
1.9697352e-18
1.971135e-18
1.9700704e-18
1.9694104e-18
1.9690097e-18
1.9687807e-18
1.968668e-18
1.96864e-18
1.9686868e-18
1.9688231e-18
1.9691006e-18
1.9707327e-18
1.9696689e-18
1.9690097e-18
1.9686097e-18
1.9683816e-18
1.9682701e-18
1.9682439e-18
1.9682935e-18
1.9684337e-18
1.968715e-18
1.9705024e-18
1.9694392e-18
1.9687807e-18
1.9683816e-18
1.9681545e-18
1.968044e-18
1.9680192e-18
1.9680705e-18
1.9682128e-18
1.9684957e-18
1.9703876e-18
1.9693253e-18
1.968668e-18
1.9682701e-18
1.968044e-18
1.9679345e-18
1.9679107e-18
1.9679632e-18
1.9681066e-18
1.9683902e-18
1.9703557e-18
1.9692951e-18
1.96864e-18
1.9682439e-18
1.9680192e-18
1.9679107e-18
1.9678877e-18
1.9679409e-18
1.9680849e-18
1.968369e-18
1.9703947e-18
1.969338e-18
1.9686868e-18
1.9682935e-18
1.9680705e-18
1.9679632e-18
1.9679409e-18
1.9679947e-18
1.9681391e-18
1.9684234e-18
1.9705143e-18
1.9694675e-18
1.9688231e-18
1.9684337e-18
1.9682128e-18
1.9681066e-18
1.9680849e-18
1.9681391e-18
1.9682838e-18
1.9685685e-18
1.9707533e-18
1.9697352e-18
1.9691006e-18
1.968715e-18
1.9684957e-18
1.9683902e-18
1.968369e-18
1.9684234e-18
1.9685685e-18
1.9688539e-18
3.6814959e-18
3.6795757e-18
3.6783813e-18
3.677654e-18
3.6772367e-18
3.6770284e-18
3.6769703e-18
3.6770397e-18
3.6772527e-18
3.6776753e-18
3.6795757e-18
3.6776618e-18
3.6764699e-18
3.6757439e-18
3.6753276e-18
3.675121e-18
3.675066e-18
3.6751426e-18
3.6753739e-18
3.6758493e-18
3.6783813e-18
3.6764699e-18
3.6752797e-18
3.6745551e-18
3.6741404e-18
3.673936e-18
3.6738849e-18
3.6739687e-18
3.6742126e-18
3.6747062e-18
3.677654e-18
3.6757439e-18
3.6745551e-18
3.673832e-18
3.6734188e-18
3.6732166e-18
3.6731688e-18
3.6732578e-18
3.6735089e-18
3.6740094e-18
3.6772367e-18
3.6753276e-18
3.6741404e-18
3.6734188e-18
3.6730074e-18
3.6728071e-18
3.6727618e-18
3.6728541e-18
3.673109e-18
3.6736125e-18
3.6770284e-18
3.675121e-18
3.673936e-18
3.6732166e-18
3.6728071e-18
3.6726085e-18
3.6725651e-18
3.6726595e-18
3.6729164e-18
3.6734213e-18
3.6769703e-18
3.675066e-18
3.6738849e-18
3.6731688e-18
3.6727618e-18
3.6725651e-18
3.6725232e-18
3.6726189e-18
3.672877e-18
3.6733827e-18
3.6770397e-18
3.6751426e-18
3.6739687e-18
3.6732578e-18
3.6728541e-18
3.6726595e-18
3.6726189e-18
3.6727155e-18
3.6729744e-18
3.6734805e-18
3.6772527e-18
3.6753739e-18
3.6742126e-18
3.6735089e-18
3.673109e-18
3.6729164e-18
3.672877e-18
3.6729744e-18
3.6732338e-18
3.6737405e-18
3.6776753e-18
3.6758493e-18
3.6747062e-18
3.6740094e-18
3.6736125e-18
3.6734213e-18
3.6733827e-18
3.6734805e-18
3.6737405e-18
3.6742486e-18
6.9363606e-18
6.9328812e-18
6.9307081e-18
6.9293812e-18
6.9286183e-18
6.9282371e-18
6.9281299e-18
6.9282549e-18
6.9286379e-18
6.9293918e-18
6.9328812e-18
6.9294133e-18
6.9272445e-18
6.9259199e-18
6.9251591e-18
6.9247808e-18
6.9246795e-18
6.9248178e-18
6.9252348e-18
6.9260873e-18
6.9307081e-18
6.9272445e-18
6.925079e-18
6.9237569e-18
6.9229989e-18
6.9226248e-18
6.9225308e-18
6.9226824e-18
6.923123e-18
6.9240092e-18
6.9293812e-18
6.9259199e-18
6.9237569e-18
6.9224375e-18
6.9216824e-18
6.9213124e-18
6.9212245e-18
6.9213858e-18
6.9218397e-18
6.9227389e-18
6.9286183e-18
6.9251591e-18
6.9229989e-18
6.9216824e-18
6.9209304e-18
6.9205639e-18
6.9204808e-18
6.9206481e-18
6.9211091e-18
6.9220139e-18
6.9282371e-18
6.9247808e-18
6.9226248e-18
6.9213124e-18
6.9205639e-18
6.9202007e-18
6.9201211e-18
6.9202922e-18
6.920757e-18
6.9216644e-18
6.9281299e-18
6.9246795e-18
6.9225308e-18
6.9212245e-18
6.9204808e-18
6.9201211e-18
6.9200442e-18
6.9202178e-18
6.9206847e-18
6.9215935e-18
6.9282549e-18
6.9248178e-18
6.9226824e-18
6.9213858e-18
6.9206481e-18
6.9202922e-18
6.9202178e-18
6.9203932e-18
6.9208615e-18
6.9217712e-18
6.9286379e-18
6.9252348e-18
6.923123e-18
6.9218397e-18
6.9211091e-18
6.920757e-18
6.9206847e-18
6.9208615e-18
6.9213309e-18
6.9222416e-18
6.9293918e-18
6.9260873e-18
6.9240092e-18
6.9227389e-18
6.9220139e-18
6.9216644e-18
6.9215935e-18
6.9217712e-18
6.9222416e-18
6.9231547e-18
1.3195392e-17
1.318903e-17
1.318504e-17
1.3182597e-17
1.318119e-17
1.3180486e-17
1.3180287e-17
1.3180514e-17
1.3181209e-17
1.3182567e-17
1.318903e-17
1.3182688e-17
1.3178706e-17
1.3176268e-17
1.3174865e-17
1.3174166e-17
1.3173978e-17
1.317423e-17
1.3174989e-17
1.3176532e-17
1.318504e-17
1.3178706e-17
1.317473e-17
1.3172296e-17
1.3170898e-17
1.3170208e-17
1.3170033e-17
1.317031e-17
1.3171114e-17
1.317272e-17
1.3182597e-17
1.3176268e-17
1.3172296e-17
1.3169867e-17
1.3168475e-17
1.3167792e-17
1.3167629e-17
1.3167924e-17
1.3168752e-17
1.3170383e-17
1.318119e-17
1.3174865e-17
1.3170898e-17
1.3168475e-17
1.3167088e-17
1.3166412e-17
1.3166257e-17
1.3166564e-17
1.3167406e-17
1.3169047e-17
1.3180486e-17
1.3174166e-17
1.3170208e-17
1.3167792e-17
1.3166412e-17
1.3165741e-17
1.3165594e-17
1.3165907e-17
1.3166756e-17
1.3168402e-17
1.3180287e-17
1.3173978e-17
1.3170033e-17
1.3167629e-17
1.3166257e-17
1.3165594e-17
1.3165451e-17
1.316577e-17
1.3166622e-17
1.3168271e-17
1.3180514e-17
1.317423e-17
1.317031e-17
1.3167924e-17
1.3166564e-17
1.3165907e-17
1.316577e-17
1.3166091e-17
1.3166947e-17
1.3168597e-17
1.3181209e-17
1.3174989e-17
1.3171114e-17
1.3168752e-17
1.3167406e-17
1.3166756e-17
1.3166622e-17
1.3166947e-17
1.3167804e-17
1.3169456e-17
1.3182567e-17
1.3176532e-17
1.317272e-17
1.3170383e-17
1.3169047e-17
1.3168402e-17
1.3168271e-17
1.3168597e-17
1.3169456e-17
1.3171113e-17
2.534513e-17
2.5333391e-17
2.5325999e-17
2.532146e-17
2.5318842e-17
2.531753e-17
2.5317158e-17
2.5317574e-17
2.5318848e-17
2.5321316e-17
2.5333391e-17
2.5321689e-17
2.5314311e-17
2.5309781e-17
2.530717e-17
2.5305868e-17
2.5305516e-17
2.530598e-17
2.5307375e-17
2.5310195e-17
2.5325999e-17
2.5314311e-17
2.5306945e-17
2.5302424e-17
2.5299822e-17
2.5298535e-17
2.5298209e-17
2.529872e-17
2.5300199e-17
2.5303139e-17
2.532146e-17
2.5309781e-17
2.5302424e-17
2.5297911e-17
2.529532e-17
2.5294048e-17
2.5293743e-17
2.5294288e-17
2.5295815e-17
2.5298801e-17
2.5318842e-17
2.530717e-17
2.5299822e-17
2.529532e-17
2.529274e-17
2.529148e-17
2.5291192e-17
2.5291759e-17
2.529331e-17
2.5296317e-17
2.531753e-17
2.5305868e-17
2.5298535e-17
2.5294048e-17
2.529148e-17
2.5290232e-17
2.5289956e-17
2.5290537e-17
2.5292102e-17
2.5295117e-17
2.5317158e-17
2.5305516e-17
2.5298209e-17
2.5293743e-17
2.5291192e-17
2.5289956e-17
2.5289691e-17
2.529028e-17
2.5291852e-17
2.5294873e-17
2.5317574e-17
2.530598e-17
2.529872e-17
2.5294288e-17
2.5291759e-17
2.5290537e-17
2.529028e-17
2.5290875e-17
2.5292453e-17
2.5295476e-17
2.5318848e-17
2.5307375e-17
2.5300199e-17
2.5295815e-17
2.529331e-17
2.5292102e-17
2.5291852e-17
2.5292453e-17
2.5294034e-17
2.529706e-17
2.5321316e-17
2.5310195e-17
2.5303139e-17
2.5298801e-17
2.5296317e-17
2.5295117e-17
2.5294873e-17
2.5295476e-17
2.529706e-17
2.5300095e-17
4.9152112e-17
4.9130253e-17
4.9116435e-17
4.9107928e-17
4.9103012e-17
4.9100546e-17
4.9099842e-17
4.9100612e-17
4.9102969e-17
4.9107497e-17
4.9130253e-17
4.9108464e-17
4.9094672e-17
4.9086181e-17
4.9081278e-17
4.9078832e-17
4.9078168e-17
4.9079028e-17
4.9081616e-17
4.9086818e-17
4.9116435e-17
4.9094672e-17
4.9080902e-17
4.9072427e-17
4.9067542e-17
4.9065124e-17
4.9064509e-17
4.906546e-17
4.9068209e-17
4.907364e-17
4.9107928e-17
4.9086181e-17
4.9072427e-17
4.9063969e-17
4.9059104e-17
4.9056713e-17
4.905614e-17
4.9057157e-17
4.9059996e-17
4.9065516e-17
4.9103012e-17
4.9081278e-17
4.9067542e-17
4.9059104e-17
4.905426e-17
4.9051893e-17
4.9051352e-17
4.905241e-17
4.9055297e-17
4.9060855e-17
4.9100546e-17
4.9078832e-17
4.9065124e-17
4.9056713e-17
4.9051893e-17
4.9049549e-17
4.9049031e-17
4.9050115e-17
4.9053027e-17
4.9058603e-17
4.9099842e-17
4.9078168e-17
4.9064509e-17
4.905614e-17
4.9051352e-17
4.9049031e-17
4.9048532e-17
4.9049632e-17
4.905256e-17
4.9058144e-17
4.9100612e-17
4.9079028e-17
4.906546e-17
4.9057157e-17
4.905241e-17
4.9050115e-17
4.9049632e-17
4.9050745e-17
4.9053682e-17
4.9059272e-17
4.9102969e-17
4.9081616e-17
4.9068209e-17
4.9059996e-17
4.9055297e-17
4.9053027e-17
4.905256e-17
4.9053682e-17
4.9056625e-17
4.9062222e-17
4.9107497e-17
4.9086818e-17
4.907364e-17
4.9065516e-17
4.9060855e-17
4.9058603e-17
4.9058144e-17
4.9059272e-17
4.9062222e-17
4.9067834e-17
9.6239721e-17
9.6198651e-17
9.6172588e-17
9.6156502e-17
9.6147189e-17
9.6142512e-17
9.6141172e-17
9.6142612e-17
9.6147012e-17
9.6155397e-17
9.6198651e-17
9.6157713e-17
9.61317e-17
9.6115641e-17
9.6106354e-17
9.6101716e-17
9.6100451e-17
9.6102065e-17
9.6106913e-17
9.61166e-17
9.6172588e-17
9.61317e-17
9.6105726e-17
9.6089699e-17
9.6080447e-17
9.6075862e-17
9.6074692e-17
9.6076481e-17
9.6081639e-17
9.6091768e-17
9.6156502e-17
9.6115641e-17
9.6089699e-17
9.6073705e-17
9.6064491e-17
9.6059958e-17
9.605887e-17
9.6060785e-17
9.6066116e-17
9.6076417e-17
9.6147189e-17
9.6106354e-17
9.6080447e-17
9.6064491e-17
9.6055316e-17
9.605083e-17
9.6049803e-17
9.6051797e-17
9.6057222e-17
9.6067596e-17
9.6142512e-17
9.6101716e-17
9.6075862e-17
9.6059958e-17
9.605083e-17
9.6046387e-17
9.6045405e-17
9.6047449e-17
9.6052923e-17
9.6063331e-17
9.6141172e-17
9.6100451e-17
9.6074692e-17
9.605887e-17
9.6049803e-17
9.6045405e-17
9.6044459e-17
9.6046535e-17
9.6052037e-17
9.6062463e-17
9.6142612e-17
9.6102065e-17
9.6076481e-17
9.6060785e-17
9.6051797e-17
9.6047449e-17
9.6046535e-17
9.6048636e-17
9.6054155e-17
9.6064592e-17
9.6147012e-17
9.6106913e-17
9.6081639e-17
9.6066116e-17
9.6057222e-17
9.6052923e-17
9.6052037e-17
9.6054155e-17
9.6059688e-17
9.6070136e-17
9.6155397e-17
9.61166e-17
9.6091768e-17
9.6076417e-17
9.6067596e-17
9.6063331e-17
9.6062463e-17
9.6064592e-17
9.6070136e-17
9.6080612e-17
1.902458e-16
1.9016794e-16
1.9011835e-16
1.9008766e-16
1.9006986e-16
1.9006091e-16
1.9005834e-16
1.9006106e-16
1.9006935e-16
1.9008502e-16
1.9016794e-16
1.9009034e-16
1.9004084e-16
1.900102e-16
1.8999245e-16
1.8998358e-16
1.8998115e-16
1.8998421e-16
1.8999337e-16
1.9001158e-16
1.9011835e-16
1.9004084e-16
1.8999141e-16
1.8996083e-16
1.8994315e-16
1.8993438e-16
1.8993214e-16
1.8993554e-16
1.899453e-16
1.8996438e-16
1.9008766e-16
1.900102e-16
1.8996083e-16
1.8993032e-16
1.8991271e-16
1.8990404e-16
1.8990196e-16
1.899056e-16
1.8991571e-16
1.8993511e-16
1.9006986e-16
1.8999245e-16
1.8994315e-16
1.8991271e-16
1.8989518e-16
1.898866e-16
1.8988464e-16
1.8988844e-16
1.8989872e-16
1.8991827e-16
1.9006091e-16
1.8998358e-16
1.8993438e-16
1.8990404e-16
1.898866e-16
1.8987811e-16
1.8987623e-16
1.8988013e-16
1.8989051e-16
1.8991012e-16
1.9005834e-16
1.8998115e-16
1.8993214e-16
1.8990196e-16
1.8988464e-16
1.8987623e-16
1.8987443e-16
1.8987838e-16
1.8988882e-16
1.8990847e-16
1.9006106e-16
1.8998421e-16
1.8993554e-16
1.899056e-16
1.8988844e-16
1.8988013e-16
1.8987838e-16
1.8988238e-16
1.8989286e-16
1.8991253e-16
1.9006935e-16
1.8999337e-16
1.899453e-16
1.8991571e-16
1.8989872e-16
1.8989051e-16
1.8988882e-16
1.8989286e-16
1.8990335e-16
1.8992305e-16
1.9008502e-16
1.9001158e-16
1.8996438e-16
1.8993511e-16
1.8991827e-16
1.8991012e-16
1.8990847e-16
1.8991253e-16
1.8992305e-16
1.8994279e-16
3.7966714e-16