/*--------------------------------*- C++ -*----------------------------------*\
| =========                 |                                                 |
| \\      /  F ield         | OpenFOAM: The Open Source CFD Toolbox           |
|  \\    /   O peration     | Version:  dev                                   |
|   \\  /    A nd           | Web:      www.OpenFOAM.org                      |
|    \\/     M anipulation  |                                                 |
\*---------------------------------------------------------------------------*/
FoamFile
{
    version     2.0;
    format      ascii;
    class       volScalarField;
    location    "92.995";
    object      A_0;
}
// * * * * * * * * * * * * * * * * * * * * * * * * * * * * * * * * * * * * * //

dimensions      [0 0 0 0 1 0 0];

internalField   nonuniform List<scalar> 
10000
(
5.4099444e-22
5.4052578e-22
5.4026449e-22
5.4011203e-22
5.400268e-22
5.3998522e-22
5.3997487e-22
5.3999271e-22
5.4004625e-22
5.4015099e-22
5.4052578e-22
5.4005888e-22
5.397982e-22
5.3964606e-22
5.3956106e-22
5.3951977e-22
5.3950995e-22
5.3952898e-22
5.395855e-22
5.3969868e-22
5.4026449e-22
5.397982e-22
5.3953794e-22
5.3938609e-22
5.3930138e-22
5.3926048e-22
5.3925132e-22
5.3927155e-22
5.3933016e-22
5.3944628e-22
5.4011203e-22
5.3964606e-22
5.3938609e-22
5.3923452e-22
5.3915009e-22
5.3910957e-22
5.3910098e-22
5.3912208e-22
5.3918187e-22
5.3929915e-22
5.400268e-22
5.3956106e-22
5.3930138e-22
5.3915009e-22
5.3906595e-22
5.3902576e-22
5.390176e-22
5.3903925e-22
5.3909969e-22
5.3921746e-22
5.3998522e-22
5.3951977e-22
5.3926048e-22
5.3910957e-22
5.3902576e-22
5.3898588e-22
5.3897803e-22
5.3900004e-22
5.3906081e-22
5.3917881e-22
5.3997487e-22
5.3950995e-22
5.3925132e-22
5.3910098e-22
5.390176e-22
5.3897803e-22
5.3897045e-22
5.3899268e-22
5.3905366e-22
5.3917178e-22
5.3999271e-22
5.3952898e-22
5.3927155e-22
5.3912208e-22
5.3903925e-22
5.3900004e-22
5.3899268e-22
5.3901508e-22
5.3907619e-22
5.3919441e-22
5.4004625e-22
5.395855e-22
5.3933016e-22
5.3918187e-22
5.3909969e-22
5.3906081e-22
5.3905366e-22
5.3907619e-22
5.3913742e-22
5.3925578e-22
5.4015099e-22
5.3969868e-22
5.3944628e-22
5.3929915e-22
5.3921746e-22
5.3917881e-22
5.3917178e-22
5.3919441e-22
5.3925578e-22
5.3937446e-22
1.7706533e-21
1.7691795e-21
1.7683331e-21
1.767838e-21
1.767561e-21
1.7674258e-21
1.767392e-21
1.7674497e-21
1.7676234e-21
1.7679752e-21
1.7691795e-21
1.7677112e-21
1.7668667e-21
1.7663726e-21
1.7660963e-21
1.7659621e-21
1.76593e-21
1.7659916e-21
1.7661751e-21
1.7665547e-21
1.7683331e-21
1.7668667e-21
1.7660235e-21
1.7655304e-21
1.765255e-21
1.765122e-21
1.7650922e-21
1.7651577e-21
1.765348e-21
1.7657372e-21
1.767838e-21
1.7663726e-21
1.7655304e-21
1.7650381e-21
1.7647637e-21
1.764632e-21
1.7646039e-21
1.7646723e-21
1.7648665e-21
1.7652594e-21
1.767561e-21
1.7660963e-21
1.765255e-21
1.7647637e-21
1.7644903e-21
1.7643596e-21
1.764333e-21
1.7644031e-21
1.7645994e-21
1.764994e-21
1.7674258e-21
1.7659621e-21
1.765122e-21
1.764632e-21
1.7643596e-21
1.7642299e-21
1.7642043e-21
1.7642756e-21
1.764473e-21
1.7648683e-21
1.767392e-21
1.76593e-21
1.7650922e-21
1.7646039e-21
1.764333e-21
1.7642043e-21
1.7641796e-21
1.7642516e-21
1.7644496e-21
1.7648454e-21
1.7674497e-21
1.7659916e-21
1.7651577e-21
1.7646723e-21
1.7644031e-21
1.7642756e-21
1.7642516e-21
1.7643242e-21
1.7645226e-21
1.7649187e-21
1.7676234e-21
1.7661751e-21
1.765348e-21
1.7648665e-21
1.7645994e-21
1.764473e-21
1.7644496e-21
1.7645226e-21
1.7647215e-21
1.765118e-21
1.7679752e-21
1.7665547e-21
1.7657372e-21
1.7652594e-21
1.764994e-21
1.7648683e-21
1.7648454e-21
1.7649187e-21
1.765118e-21
1.7655156e-21
3.491965e-21
3.4891562e-21
3.4875166e-21
3.4865547e-21
3.4860157e-21
3.4857522e-21
3.485686e-21
3.4857972e-21
3.4861335e-21
3.4868369e-21
3.4891562e-21
3.4863575e-21
3.4847217e-21
3.4837616e-21
3.4832241e-21
3.4829625e-21
3.4828997e-21
3.4830185e-21
3.4833739e-21
3.484132e-21
3.4875166e-21
3.4847217e-21
3.4830886e-21
3.4821303e-21
3.4815946e-21
3.4813355e-21
3.4812769e-21
3.4814034e-21
3.4817723e-21
3.4825493e-21
3.4865547e-21
3.4837616e-21
3.4821303e-21
3.4811738e-21
3.4806399e-21
3.4803832e-21
3.4803283e-21
3.4804603e-21
3.4808368e-21
3.4816212e-21
3.4860157e-21
3.4832241e-21
3.4815946e-21
3.4806399e-21
3.4801078e-21
3.4798533e-21
3.4798011e-21
3.4799367e-21
3.4803173e-21
3.4811048e-21
3.4857522e-21
3.4829625e-21
3.4813355e-21
3.4803832e-21
3.4798533e-21
3.4796007e-21
3.4795506e-21
3.4796884e-21
3.4800712e-21
3.4808602e-21
3.485686e-21
3.4828997e-21
3.4812769e-21
3.4803283e-21
3.4798011e-21
3.4795506e-21
3.479502e-21
3.4796413e-21
3.4800254e-21
3.4808152e-21
3.4857972e-21
3.4830185e-21
3.4814034e-21
3.4804603e-21
3.4799367e-21
3.4796884e-21
3.4796413e-21
3.4797817e-21
3.4801666e-21
3.480957e-21
3.4861335e-21
3.4833739e-21
3.4817723e-21
3.4808368e-21
3.4803173e-21
3.4800712e-21
3.4800254e-21
3.4801666e-21
3.4805523e-21
3.4813436e-21
3.4868369e-21
3.484132e-21
3.4825493e-21
3.4816212e-21
3.4811048e-21
3.4808602e-21
3.4808152e-21
3.480957e-21
3.4813436e-21
3.4821371e-21
6.2038088e-21
6.1989843e-21
6.1961391e-21
6.1944639e-21
6.1935237e-21
6.1930635e-21
6.1929468e-21
6.1931381e-21
6.1937189e-21
6.1949489e-21
6.1989843e-21
6.194177e-21
6.1913383e-21
6.1896664e-21
6.1887287e-21
6.1882717e-21
6.188161e-21
6.1883658e-21
6.1889804e-21
6.1903073e-21
6.1961391e-21
6.1913383e-21
6.188504e-21
6.1868353e-21
6.1859008e-21
6.1854482e-21
6.185345e-21
6.1855633e-21
6.1862016e-21
6.1875619e-21
6.1944639e-21
6.1896664e-21
6.1868353e-21
6.1851697e-21
6.1842384e-21
6.18379e-21
6.1836932e-21
6.1839214e-21
6.1845731e-21
6.1859465e-21
6.1935237e-21
6.1887287e-21
6.1859008e-21
6.1842384e-21
6.1833103e-21
6.1828657e-21
6.1827737e-21
6.1830081e-21
6.1836671e-21
6.185046e-21
6.1930635e-21
6.1882717e-21
6.1854482e-21
6.18379e-21
6.1828657e-21
6.1824245e-21
6.1823361e-21
6.1825745e-21
6.1832373e-21
6.1846189e-21
6.1929468e-21
6.188161e-21
6.185345e-21
6.1836932e-21
6.1827737e-21
6.1823361e-21
6.1822506e-21
6.1824916e-21
6.1831567e-21
6.1845396e-21
6.1931381e-21
6.1883658e-21
6.1855633e-21
6.1839214e-21
6.1830081e-21
6.1825745e-21
6.1824916e-21
6.1827344e-21
6.183401e-21
6.184785e-21
6.1937189e-21
6.1889804e-21
6.1862016e-21
6.1845731e-21
6.1836671e-21
6.1832373e-21
6.1831567e-21
6.183401e-21
6.184069e-21
6.1854545e-21
6.1949489e-21
6.1903073e-21
6.1875619e-21
6.1859465e-21
6.185046e-21
6.1846189e-21
6.1845396e-21
6.184785e-21
6.1854545e-21
6.1868441e-21
1.0732377e-20
1.072431e-20
1.0719518e-20
1.0716687e-20
1.0715095e-20
1.0714314e-20
1.0714115e-20
1.0714433e-20
1.0715403e-20
1.071746e-20
1.072431e-20
1.0716272e-20
1.071149e-20
1.0708665e-20
1.0707077e-20
1.0706302e-20
1.0706113e-20
1.0706454e-20
1.0707482e-20
1.0709706e-20
1.0719518e-20
1.071149e-20
1.0706717e-20
1.0703897e-20
1.0702314e-20
1.0701547e-20
1.070137e-20
1.0701735e-20
1.0702804e-20
1.0705085e-20
1.0716687e-20
1.0708665e-20
1.0703897e-20
1.0701082e-20
1.0699505e-20
1.0698745e-20
1.0698579e-20
1.0698961e-20
1.0700053e-20
1.0702357e-20
1.0715095e-20
1.0707077e-20
1.0702314e-20
1.0699505e-20
1.0697934e-20
1.069718e-20
1.0697022e-20
1.0697415e-20
1.0698519e-20
1.0700833e-20
1.0714314e-20
1.0706302e-20
1.0701547e-20
1.0698745e-20
1.069718e-20
1.0696432e-20
1.069628e-20
1.069668e-20
1.0697791e-20
1.0700109e-20
1.0714115e-20
1.0706113e-20
1.070137e-20
1.0698579e-20
1.0697022e-20
1.069628e-20
1.0696134e-20
1.0696538e-20
1.0697652e-20
1.0699973e-20
1.0714433e-20
1.0706454e-20
1.0701735e-20
1.0698961e-20
1.0697415e-20
1.069668e-20
1.0696538e-20
1.0696945e-20
1.0698062e-20
1.0700384e-20
1.0715403e-20
1.0707482e-20
1.0702804e-20
1.0700053e-20
1.0698519e-20
1.0697791e-20
1.0697652e-20
1.0698062e-20
1.0699182e-20
1.0701506e-20
1.071746e-20
1.0709706e-20
1.0705085e-20
1.0702357e-20
1.0700833e-20
1.0700109e-20
1.0699973e-20
1.0700384e-20
1.0701506e-20
1.0703838e-20
1.8512258e-20
1.8498815e-20
1.8490784e-20
1.8486024e-20
1.8483341e-20
1.8482024e-20
1.8481683e-20
1.848221e-20
1.8483817e-20
1.8487215e-20
1.8498815e-20
1.848542e-20
1.8477406e-20
1.8472655e-20
1.846998e-20
1.8468671e-20
1.8468348e-20
1.8468915e-20
1.8470622e-20
1.8474306e-20
1.8490784e-20
1.8477406e-20
1.8469405e-20
1.8464663e-20
1.8461997e-20
1.8460701e-20
1.84604e-20
1.8461007e-20
1.8462783e-20
1.8466566e-20
1.8486024e-20
1.8472655e-20
1.8464663e-20
1.845993e-20
1.8457273e-20
1.845599e-20
1.8455708e-20
1.8456343e-20
1.8458159e-20
1.846198e-20
1.8483341e-20
1.846998e-20
1.8461997e-20
1.8457273e-20
1.8454626e-20
1.8453353e-20
1.8453085e-20
1.8453739e-20
1.8455576e-20
1.8459414e-20
1.8482024e-20
1.8468671e-20
1.8460701e-20
1.845599e-20
1.8453353e-20
1.8452091e-20
1.8451833e-20
1.8452499e-20
1.8454347e-20
1.8458193e-20
1.8481683e-20
1.8468348e-20
1.84604e-20
1.8455708e-20
1.8453085e-20
1.8451833e-20
1.8451584e-20
1.8452257e-20
1.8454112e-20
1.8457961e-20
1.848221e-20
1.8468915e-20
1.8461007e-20
1.8456343e-20
1.8453739e-20
1.8452499e-20
1.8452257e-20
1.8452935e-20
1.8454795e-20
1.8458647e-20
1.8483817e-20
1.8470622e-20
1.8462783e-20
1.8458159e-20
1.8455576e-20
1.8454347e-20
1.8454112e-20
1.8454795e-20
1.8456658e-20
1.8460515e-20
1.8487215e-20
1.8474306e-20
1.8466566e-20
1.846198e-20
1.8459414e-20
1.8458193e-20
1.8457961e-20
1.8458647e-20
1.8460515e-20
1.8464383e-20
3.2095141e-20
3.2072635e-20
3.2059121e-20
3.2051086e-20
3.2046548e-20
3.2044315e-20
3.2043731e-20
3.2044606e-20
3.2047277e-20
3.2052892e-20
3.2072635e-20
3.2050207e-20
3.2036722e-20
3.2028702e-20
3.2024177e-20
3.2021959e-20
3.2021406e-20
3.2022349e-20
3.2025191e-20
3.20313e-20
3.2059121e-20
3.2036722e-20
3.2023259e-20
3.2015254e-20
3.2010744e-20
3.2008549e-20
3.2008033e-20
3.2009044e-20
3.2012006e-20
3.2018285e-20
3.2051086e-20
3.2028702e-20
3.2015254e-20
3.2007264e-20
3.200277e-20
3.2000596e-20
3.2000113e-20
3.2001173e-20
3.2004204e-20
3.2010548e-20
3.2046548e-20
3.2024177e-20
3.2010744e-20
3.200277e-20
3.1998292e-20
3.1996137e-20
3.1995677e-20
3.199677e-20
3.1999836e-20
3.2006209e-20
3.2044315e-20
3.2021959e-20
3.2008549e-20
3.2000596e-20
3.1996137e-20
3.1993999e-20
3.1993557e-20
3.1994669e-20
3.1997755e-20
3.2004141e-20
3.2043731e-20
3.2021406e-20
3.2008033e-20
3.2000113e-20
3.1995677e-20
3.1993557e-20
3.199313e-20
3.1994256e-20
3.1997353e-20
3.2003746e-20
3.2044606e-20
3.2022349e-20
3.2009044e-20
3.2001173e-20
3.199677e-20
3.1994669e-20
3.1994256e-20
3.199539e-20
3.1998495e-20
3.2004893e-20
3.2047277e-20
3.2025191e-20
3.2012006e-20
3.2004204e-20
3.1999836e-20
3.1997755e-20
3.1997353e-20
3.1998495e-20
3.2001606e-20
3.2008011e-20
3.2052892e-20
3.20313e-20
3.2018285e-20
3.2010548e-20
3.2006209e-20
3.2004141e-20
3.2003746e-20
3.2004893e-20
3.2008011e-20
3.2014435e-20
5.6086113e-20
5.6048148e-20
5.6025245e-20
5.6011585e-20
5.6003855e-20
5.6000043e-20
5.5999037e-20
5.60005e-20
5.6004966e-20
5.6014297e-20
5.6048148e-20
5.6010315e-20
5.5987461e-20
5.5973827e-20
5.5966117e-20
5.5962333e-20
5.596138e-20
5.5962959e-20
5.5967724e-20
5.5977912e-20
5.6025245e-20
5.5987461e-20
5.5964643e-20
5.5951035e-20
5.5943352e-20
5.5939605e-20
5.5938717e-20
5.5940415e-20
5.5945388e-20
5.595587e-20
5.6011585e-20
5.5973827e-20
5.5951035e-20
5.5937452e-20
5.5929796e-20
5.5926086e-20
5.5925254e-20
5.5927037e-20
5.5932128e-20
5.5942724e-20
5.6003855e-20
5.5966117e-20
5.5943352e-20
5.5929796e-20
5.5922168e-20
5.5918491e-20
5.59177e-20
5.5919538e-20
5.5924691e-20
5.5935337e-20
5.6000043e-20
5.5962333e-20
5.5939605e-20
5.5926086e-20
5.5918491e-20
5.5914843e-20
5.5914083e-20
5.5915956e-20
5.5921143e-20
5.5931811e-20
5.5999037e-20
5.596138e-20
5.5938717e-20
5.5925254e-20
5.59177e-20
5.5914083e-20
5.5913348e-20
5.5915243e-20
5.5920449e-20
5.593113e-20
5.60005e-20
5.5962959e-20
5.5940415e-20
5.5927037e-20
5.5919538e-20
5.5915956e-20
5.5915243e-20
5.5917155e-20
5.5922374e-20
5.5933063e-20
5.6004966e-20
5.5967724e-20
5.5945388e-20
5.5932128e-20
5.5924691e-20
5.5921143e-20
5.5920449e-20
5.5922374e-20
5.5927604e-20
5.5938305e-20
5.6014297e-20
5.5977912e-20
5.595587e-20
5.5942724e-20
5.5935337e-20
5.5931811e-20
5.593113e-20
5.5933063e-20
5.5938305e-20
5.5949037e-20
9.8887252e-20
9.8822666e-20
9.8783526e-20
9.8760111e-20
9.8746832e-20
9.8740273e-20
9.8738525e-20
9.8740989e-20
9.8748522e-20
9.8764147e-20
9.8822666e-20
9.8758302e-20
9.8719246e-20
9.8695874e-20
9.8682631e-20
9.867612e-20
9.8674463e-20
9.8677132e-20
9.8685185e-20
9.8702312e-20
9.8783526e-20
9.8719246e-20
9.868025e-20
9.8656923e-20
9.8643726e-20
9.863728e-20
9.8635737e-20
9.8638613e-20
9.864703e-20
9.8664671e-20
9.8760111e-20
9.8695874e-20
9.8656923e-20
9.8633639e-20
9.862049e-20
9.8614107e-20
9.8612662e-20
9.8615687e-20
9.8624309e-20
9.8642151e-20
9.8746832e-20
9.8682631e-20
9.8643726e-20
9.862049e-20
9.8607389e-20
9.8601063e-20
9.859969e-20
9.860281e-20
9.8611542e-20
9.862947e-20
9.8740273e-20
9.867612e-20
9.863728e-20
9.8614107e-20
9.8601063e-20
9.8594789e-20
9.859347e-20
9.859665e-20
9.8605441e-20
9.8623408e-20
9.8738525e-20
9.8674463e-20
9.8635737e-20
9.8612662e-20
9.859969e-20
9.859347e-20
9.8592195e-20
9.8595414e-20
9.8604238e-20
9.8622227e-20
9.8740989e-20
9.8677132e-20
9.8638613e-20
9.8615687e-20
9.860281e-20
9.859665e-20
9.8595414e-20
9.8598661e-20
9.8607508e-20
9.8625511e-20
9.8748522e-20
9.8685185e-20
9.864703e-20
9.8624309e-20
9.8611542e-20
9.8605441e-20
9.8604238e-20
9.8607508e-20
9.8616374e-20
9.8634397e-20
9.8764147e-20
9.8702312e-20
9.8664671e-20
9.8642151e-20
9.862947e-20
9.8623408e-20
9.8622227e-20
9.8625511e-20
9.8634397e-20
9.8652472e-20
1.7597642e-19
1.7586557e-19
1.757981e-19
1.7575761e-19
1.757346e-19
1.7572322e-19
1.7572015e-19
1.7572434e-19
1.7573716e-19
1.7576355e-19
1.7586557e-19
1.757551e-19
1.7568777e-19
1.7564735e-19
1.7562441e-19
1.7561311e-19
1.7561021e-19
1.7561476e-19
1.7562849e-19
1.7565753e-19
1.757981e-19
1.7568777e-19
1.7562054e-19
1.755802e-19
1.7555734e-19
1.7554615e-19
1.7554345e-19
1.7554836e-19
1.7556274e-19
1.7559269e-19
1.7575761e-19
1.7564735e-19
1.755802e-19
1.7553994e-19
1.7551716e-19
1.7550608e-19
1.7550355e-19
1.7550873e-19
1.7552347e-19
1.7555377e-19
1.757346e-19
1.7562441e-19
1.7555734e-19
1.7551716e-19
1.7549446e-19
1.7548348e-19
1.7548108e-19
1.7548643e-19
1.7550136e-19
1.7553181e-19
1.7572322e-19
1.7561311e-19
1.7554615e-19
1.7550608e-19
1.7548348e-19
1.754726e-19
1.7547029e-19
1.7547574e-19
1.7549078e-19
1.755213e-19
1.7572015e-19
1.7561021e-19
1.7554345e-19
1.7550355e-19
1.7548108e-19
1.7547029e-19
1.7546806e-19
1.7547358e-19
1.7548867e-19
1.7551924e-19
1.7572434e-19
1.7561476e-19
1.7554836e-19
1.7550873e-19
1.7548643e-19
1.7547574e-19
1.7547358e-19
1.7547915e-19
1.7549428e-19
1.7552487e-19
1.7573716e-19
1.7562849e-19
1.7556274e-19
1.7552347e-19
1.7550136e-19
1.7549078e-19
1.7548867e-19
1.7549428e-19
1.7550944e-19
1.7554007e-19
1.7576355e-19
1.7565753e-19
1.7559269e-19
1.7555377e-19
1.7553181e-19
1.755213e-19
1.7551924e-19
1.7552487e-19
1.7554007e-19
1.7557078e-19
3.1612907e-19
3.159371e-19
3.1581973e-19
3.1574909e-19
3.1570887e-19
3.1568893e-19
3.1568352e-19
3.1569071e-19
3.1571271e-19
3.1575769e-19
3.159371e-19
3.1574578e-19
3.1562865e-19
3.1555814e-19
3.1551803e-19
3.1549824e-19
3.1549312e-19
3.1550095e-19
3.1552458e-19
3.1557429e-19
3.1581973e-19
3.1562865e-19
3.1551171e-19
3.1544133e-19
3.1540136e-19
3.1538177e-19
3.1537701e-19
3.1538548e-19
3.1541026e-19
3.1546158e-19
3.1574909e-19
3.1555814e-19
3.1544133e-19
3.1537109e-19
3.1533126e-19
3.1531188e-19
3.1530741e-19
3.1531636e-19
3.1534178e-19
3.1539373e-19
3.1570887e-19
3.1551803e-19
3.1540136e-19
3.1533126e-19
3.1529159e-19
3.1527238e-19
3.1526814e-19
3.1527738e-19
3.1530315e-19
3.1535537e-19
3.1568893e-19
3.1549824e-19
3.1538177e-19
3.1531188e-19
3.1527238e-19
3.1525333e-19
3.1524926e-19
3.1525869e-19
3.1528463e-19
3.1533698e-19
3.1568352e-19
3.1549312e-19
3.1537701e-19
3.1530741e-19
3.1526814e-19
3.1524926e-19
3.1524533e-19
3.1525488e-19
3.1528093e-19
3.1533334e-19
3.1569071e-19
3.1550095e-19
3.1538548e-19
3.1531636e-19
3.1527738e-19
3.1525869e-19
3.1525488e-19
3.1526452e-19
3.1529064e-19
3.1534309e-19
3.1571271e-19
3.1552458e-19
3.1541026e-19
3.1534178e-19
3.1530315e-19
3.1528463e-19
3.1528093e-19
3.1529064e-19
3.1531681e-19
3.1536933e-19
3.1575769e-19
3.1557429e-19
3.1546158e-19
3.1539373e-19
3.1535537e-19
3.1533698e-19
3.1533334e-19
3.1534309e-19
3.1536933e-19
3.1542199e-19
5.7332891e-19
5.7299343e-19
5.7278742e-19
5.7266307e-19
5.7259213e-19
5.7255691e-19
5.7254728e-19
5.7255973e-19
5.7259784e-19
5.726752e-19
5.7299343e-19
5.7265908e-19
5.724535e-19
5.7232937e-19
5.7225862e-19
5.7222366e-19
5.7221455e-19
5.7222814e-19
5.722692e-19
5.7235505e-19
5.7278742e-19
5.724535e-19
5.7224823e-19
5.7212435e-19
5.7205385e-19
5.7201925e-19
5.7201077e-19
5.7202553e-19
5.7206863e-19
5.7215739e-19
5.7266307e-19
5.7232937e-19
5.7212435e-19
5.720007e-19
5.7193046e-19
5.7189622e-19
5.7188828e-19
5.7190387e-19
5.7194813e-19
5.7203802e-19
5.7259213e-19
5.7225862e-19
5.7205385e-19
5.7193046e-19
5.7186049e-19
5.7182657e-19
5.7181903e-19
5.7183516e-19
5.7188003e-19
5.7197041e-19
5.7255691e-19
5.7222366e-19
5.7201925e-19
5.7189622e-19
5.7182657e-19
5.7179293e-19
5.717857e-19
5.7180216e-19
5.7184736e-19
5.7193796e-19
5.7254728e-19
5.7221455e-19
5.7201077e-19
5.7188828e-19
5.7181903e-19
5.717857e-19
5.7177871e-19
5.7179539e-19
5.7184078e-19
5.7193149e-19
5.7255973e-19
5.7222814e-19
5.7202553e-19
5.7190387e-19
5.7183516e-19
5.7180216e-19
5.7179539e-19
5.7181223e-19
5.7185774e-19
5.7194853e-19
5.7259784e-19
5.722692e-19
5.7206863e-19
5.7194813e-19
5.7188003e-19
5.7184736e-19
5.7184078e-19
5.7185774e-19
5.7190335e-19
5.7199424e-19
5.726752e-19
5.7235505e-19
5.7215739e-19
5.7203802e-19
5.7197041e-19
5.7193796e-19
5.7193149e-19
5.7194853e-19
5.7199424e-19
5.7208539e-19
1.0497691e-18
1.0491775e-18
1.0488126e-18
1.0485917e-18
1.0484655e-18
1.0484027e-18
1.0483854e-18
1.0484072e-18
1.0484738e-18
1.0486081e-18
1.0491775e-18
1.0485878e-18
1.0482237e-18
1.0480032e-18
1.0478773e-18
1.047815e-18
1.0477986e-18
1.0478225e-18
1.0478945e-18
1.0480441e-18
1.0488126e-18
1.0482237e-18
1.0478601e-18
1.0476401e-18
1.0475146e-18
1.047453e-18
1.0474377e-18
1.0474637e-18
1.0475394e-18
1.0476943e-18
1.0485917e-18
1.0480032e-18
1.0476401e-18
1.0474205e-18
1.0472955e-18
1.0472344e-18
1.0472202e-18
1.0472477e-18
1.0473254e-18
1.0474824e-18
1.0484655e-18
1.0478773e-18
1.0475146e-18
1.0472955e-18
1.047171e-18
1.0471105e-18
1.047097e-18
1.0471254e-18
1.0472043e-18
1.0473622e-18
1.0484027e-18
1.047815e-18
1.047453e-18
1.0472344e-18
1.0471105e-18
1.0470506e-18
1.0470376e-18
1.0470666e-18
1.0471461e-18
1.0473044e-18
1.0483854e-18
1.0477986e-18
1.0474377e-18
1.0472202e-18
1.047097e-18
1.0470376e-18
1.0470251e-18
1.0470545e-18
1.0471343e-18
1.0472928e-18
1.0484072e-18
1.0478225e-18
1.0474637e-18
1.0472477e-18
1.0471254e-18
1.0470666e-18
1.0470545e-18
1.0470842e-18
1.0471643e-18
1.0473229e-18
1.0484738e-18
1.0478945e-18
1.0475394e-18
1.0473254e-18
1.0472043e-18
1.0471461e-18
1.0471343e-18
1.0471643e-18
1.0472445e-18
1.0474033e-18
1.0486081e-18
1.0480441e-18
1.0476943e-18
1.0474824e-18
1.0473622e-18
1.0473044e-18
1.0472928e-18
1.0473229e-18
1.0474033e-18
1.0475626e-18
1.9406583e-18
1.9396054e-18
1.9389533e-18
1.9385574e-18
1.9383307e-18
1.9382178e-18
1.9381865e-18
1.9382249e-18
1.9383425e-18
1.9385778e-18
1.9396054e-18
1.938556e-18
1.9379052e-18
1.93751e-18
1.9372839e-18
1.9371719e-18
1.9371422e-18
1.9371844e-18
1.9373118e-18
1.9375753e-18
1.9389533e-18
1.9379052e-18
1.9372554e-18
1.936861e-18
1.9366357e-18
1.9365249e-18
1.9364973e-18
1.9365434e-18
1.9366775e-18
1.9369506e-18
1.9385574e-18
1.93751e-18
1.936861e-18
1.9364674e-18
1.9362429e-18
1.9361332e-18
1.9361075e-18
1.9361563e-18
1.9362943e-18
1.9365711e-18
1.9383307e-18
1.9372839e-18
1.9366357e-18
1.9362429e-18
1.9360194e-18
1.9359107e-18
1.9358863e-18
1.9359369e-18
1.9360769e-18
1.9363553e-18
1.9382178e-18
1.9371719e-18
1.9365249e-18
1.9361332e-18
1.9359107e-18
1.935803e-18
1.9357796e-18
1.9358312e-18
1.9359724e-18
1.9362515e-18
1.9381865e-18
1.9371422e-18
1.9364973e-18
1.9361075e-18
1.9358863e-18
1.9357796e-18
1.935757e-18
1.9358093e-18
1.9359511e-18
1.9362306e-18
1.9382249e-18
1.9371844e-18
1.9365434e-18
1.9361563e-18
1.9359369e-18
1.9358312e-18
1.9358093e-18
1.9358622e-18
1.9360044e-18
1.9362842e-18
1.9383425e-18
1.9373118e-18
1.9366775e-18
1.9362943e-18
1.9360769e-18
1.9359724e-18
1.9359511e-18
1.9360044e-18
1.9361468e-18
1.936427e-18
1.9385778e-18
1.9375753e-18
1.9369506e-18
1.9365711e-18
1.9363553e-18
1.9362515e-18
1.9362306e-18
1.9362842e-18
1.936427e-18
1.9367078e-18
3.6222647e-18
3.6203737e-18
3.6191976e-18
3.6184816e-18
3.6180708e-18
3.6178659e-18
3.6178087e-18
3.6178771e-18
3.6180868e-18
3.6185027e-18
3.6203737e-18
3.6184889e-18
3.6173152e-18
3.6166005e-18
3.6161908e-18
3.6159875e-18
3.6159333e-18
3.6160088e-18
3.6162364e-18
3.6167044e-18
3.6191976e-18
3.6173152e-18
3.6161433e-18
3.61543e-18
3.6150217e-18
3.6148206e-18
3.6147703e-18
3.6148528e-18
3.615093e-18
3.6155788e-18
3.6184816e-18
3.6166005e-18
3.61543e-18
3.614718e-18
3.6143114e-18
3.6141124e-18
3.6140654e-18
3.614153e-18
3.6144002e-18
3.6148929e-18
3.6180708e-18
3.6161908e-18
3.6150217e-18
3.6143114e-18
3.6139063e-18
3.6137092e-18
3.6136647e-18
3.6137556e-18
3.6140065e-18
3.6145022e-18
3.6178659e-18
3.6159875e-18
3.6148206e-18
3.6141124e-18
3.6137092e-18
3.6135139e-18
3.6134712e-18
3.6135641e-18
3.613817e-18
3.6143141e-18
3.6178087e-18
3.6159333e-18
3.6147703e-18
3.6140654e-18
3.6136647e-18
3.6134712e-18
3.61343e-18
3.6135242e-18
3.6137783e-18
3.614276e-18
3.6178771e-18
3.6160088e-18
3.6148528e-18
3.614153e-18
3.6137556e-18
3.6135641e-18
3.6135242e-18
3.6136194e-18
3.6138741e-18
3.6143724e-18
3.6180868e-18
3.6162364e-18
3.615093e-18
3.6144002e-18
3.6140065e-18
3.613817e-18
3.6137783e-18
3.6138741e-18
3.6141295e-18
3.6146283e-18
3.6185027e-18
3.6167044e-18
3.6155788e-18
3.6148929e-18
3.6145022e-18
3.6143141e-18
3.614276e-18
3.6143724e-18
3.6146283e-18
3.6151284e-18
6.8264295e-18
6.8230021e-18
6.8208618e-18
6.8195551e-18
6.818804e-18
6.8184288e-18
6.8183234e-18
6.8184465e-18
6.8188236e-18
6.8195658e-18
6.8230021e-18
6.819586e-18
6.81745e-18
6.8161456e-18
6.8153965e-18
6.8150242e-18
6.8149246e-18
6.8150607e-18
6.8154713e-18
6.8163107e-18
6.8208618e-18
6.81745e-18
6.8153171e-18
6.8140152e-18
6.8132689e-18
6.8129007e-18
6.8128082e-18
6.8129575e-18
6.8133914e-18
6.8142639e-18
6.8195551e-18
6.8161456e-18
6.8140152e-18
6.8127159e-18
6.8119725e-18
6.8116083e-18
6.8115219e-18
6.8116807e-18
6.8121276e-18
6.813013e-18
6.818804e-18
6.8153965e-18
6.8132689e-18
6.8119725e-18
6.8112321e-18
6.8108714e-18
6.8107896e-18
6.8109544e-18
6.8114083e-18
6.8122992e-18
6.8184288e-18
6.8150242e-18
6.8129007e-18
6.8116083e-18
6.8108714e-18
6.810514e-18
6.8104356e-18
6.8106041e-18
6.8110617e-18
6.8119552e-18
6.8183234e-18
6.8149246e-18
6.8128082e-18
6.8115219e-18
6.8107896e-18
6.8104356e-18
6.81036e-18
6.8105309e-18
6.8109907e-18
6.8118854e-18
6.8184465e-18
6.8150607e-18
6.8129575e-18
6.8116807e-18
6.8109544e-18
6.8106041e-18
6.8105309e-18
6.8107037e-18
6.8111648e-18
6.8120604e-18
6.8188236e-18
6.8154713e-18
6.8133914e-18
6.8121276e-18
6.8114083e-18
6.8110617e-18
6.8109907e-18
6.8111648e-18
6.811627e-18
6.8125236e-18
6.8195658e-18
6.8163107e-18
6.8142639e-18
6.813013e-18
6.8122992e-18
6.8119552e-18
6.8118854e-18
6.8120604e-18
6.8125236e-18
6.8134226e-18
1.2989483e-17
1.2983214e-17
1.2979283e-17
1.2976877e-17
1.2975491e-17
1.2974798e-17
1.2974602e-17
1.2974826e-17
1.2975511e-17
1.2976848e-17
1.2983214e-17
1.2976966e-17
1.2973043e-17
1.2970641e-17
1.2969259e-17
1.2968571e-17
1.2968386e-17
1.2968634e-17
1.2969382e-17
1.2970902e-17
1.2979283e-17
1.2973043e-17
1.2969126e-17
1.2966728e-17
1.2965352e-17
1.2964672e-17
1.29645e-17
1.2964773e-17
1.2965564e-17
1.2967146e-17
1.2976877e-17
1.2970641e-17
1.2966728e-17
1.2964336e-17
1.2962964e-17
1.2962292e-17
1.2962132e-17
1.2962422e-17
1.2963238e-17
1.2964844e-17
1.2975491e-17
1.2969259e-17
1.2965352e-17
1.2962964e-17
1.2961599e-17
1.2960933e-17
1.2960781e-17
1.2961083e-17
1.2961912e-17
1.2963529e-17
1.2974798e-17
1.2968571e-17
1.2964672e-17
1.2962292e-17
1.2960933e-17
1.2960273e-17
1.2960128e-17
1.2960437e-17
1.2961273e-17
1.2962894e-17
1.2974602e-17
1.2968386e-17
1.29645e-17
1.2962132e-17
1.2960781e-17
1.2960128e-17
1.2959988e-17
1.2960301e-17
1.2961141e-17
1.2962765e-17
1.2974826e-17
1.2968634e-17
1.2964773e-17
1.2962422e-17
1.2961083e-17
1.2960437e-17
1.2960301e-17
1.2960618e-17
1.296146e-17
1.2963086e-17
1.2975511e-17
1.2969382e-17
1.2965564e-17
1.2963238e-17
1.2961912e-17
1.2961273e-17
1.2961141e-17
1.296146e-17
1.2962305e-17
1.2963932e-17
1.2976848e-17
1.2970902e-17
1.2967146e-17
1.2964844e-17
1.2963529e-17
1.2962894e-17
1.2962765e-17
1.2963086e-17
1.2963932e-17
1.2965564e-17
2.4955899e-17
2.4944329e-17
2.4937045e-17
2.4932574e-17
2.4929995e-17
2.4928703e-17
2.4928336e-17
2.4928746e-17
2.4930001e-17
2.4932432e-17
2.4944329e-17
2.4932796e-17
2.4925527e-17
2.4921063e-17
2.4918491e-17
2.491721e-17
2.4916863e-17
2.491732e-17
2.4918694e-17
2.4921472e-17
2.4937045e-17
2.4925527e-17
2.4918268e-17
2.4913813e-17
2.4911251e-17
2.4909983e-17
2.4909662e-17
2.4910166e-17
2.4911623e-17
2.4914519e-17
2.4932574e-17
2.4921063e-17
2.4913813e-17
2.4909367e-17
2.4906815e-17
2.4905562e-17
2.4905263e-17
2.4905799e-17
2.4907303e-17
2.4910245e-17
2.4929995e-17
2.4918491e-17
2.4911251e-17
2.4906815e-17
2.4904273e-17
2.4903033e-17
2.490275e-17
2.4903308e-17
2.4904836e-17
2.4907798e-17
2.4928703e-17
2.491721e-17
2.4909983e-17
2.4905562e-17
2.4903033e-17
2.4901804e-17
2.4901533e-17
2.4902104e-17
2.4903646e-17
2.4906616e-17
2.4928336e-17
2.4916863e-17
2.4909662e-17
2.4905263e-17
2.490275e-17
2.4901533e-17
2.4901271e-17
2.4901852e-17
2.4903401e-17
2.4906376e-17
2.4928746e-17
2.491732e-17
2.4910166e-17
2.4905799e-17
2.4903308e-17
2.4902104e-17
2.4901852e-17
2.4902438e-17
2.4903992e-17
2.490697e-17
2.4930001e-17
2.4918694e-17
2.4911623e-17
2.4907303e-17
2.4904836e-17
2.4903646e-17
2.4903401e-17
2.4903992e-17
2.490555e-17
2.4908531e-17
2.4932432e-17
2.4921472e-17
2.4914519e-17
2.4910245e-17
2.4907798e-17
2.4906616e-17
2.4906376e-17
2.490697e-17
2.4908531e-17
2.4911521e-17
4.8409605e-17
4.8388056e-17
4.8374436e-17
4.8366054e-17
4.836121e-17
4.8358781e-17
4.8358088e-17
4.8358847e-17
4.8361169e-17
4.8365631e-17
4.8388056e-17
4.8366577e-17
4.8352983e-17
4.8344615e-17
4.8339785e-17
4.8337375e-17
4.8336721e-17
4.8337569e-17
4.834012e-17
4.8345245e-17
4.8374436e-17
4.8352983e-17
4.833941e-17
4.8331058e-17
4.8326246e-17
4.8323864e-17
4.8323258e-17
4.8324196e-17
4.8326905e-17
4.8332256e-17
4.8366054e-17
4.8344615e-17
4.8331058e-17
4.8322723e-17
4.831793e-17
4.8315575e-17
4.8315011e-17
4.8316013e-17
4.831881e-17
4.832425e-17
4.836121e-17
4.8339785e-17
4.8326246e-17
4.831793e-17
4.8313158e-17
4.8310826e-17
4.8310293e-17
4.8311336e-17
4.8314181e-17
4.8319658e-17
4.8358781e-17
4.8337375e-17
4.8323864e-17
4.8315575e-17
4.8310826e-17
4.8308517e-17
4.8308007e-17
4.8309075e-17
4.8311945e-17
4.8317439e-17
4.8358088e-17
4.8336721e-17
4.8323258e-17
4.8315011e-17
4.8310293e-17
4.8308007e-17
4.8307515e-17
4.83086e-17
4.8311485e-17
4.8316988e-17
4.8358847e-17
4.8337569e-17
4.8324196e-17
4.8316013e-17
4.8311336e-17
4.8309075e-17
4.83086e-17
4.8309697e-17
4.831259e-17
4.8318099e-17
4.8361169e-17
4.834012e-17
4.8326905e-17
4.831881e-17
4.8314181e-17
4.8311945e-17
4.8311485e-17
4.831259e-17
4.8315491e-17
4.8321006e-17
4.8365631e-17
4.8345245e-17
4.8332256e-17
4.832425e-17
4.8319658e-17
4.8317439e-17
4.8316988e-17
4.8318099e-17
4.8321006e-17
4.8326535e-17
9.4810384e-17
9.4769887e-17
9.4744191e-17
9.4728334e-17
9.4719156e-17
9.4714549e-17
9.4713229e-17
9.4714648e-17
9.4718985e-17
9.4727249e-17
9.4769887e-17
9.472952e-17
9.4703873e-17
9.4688044e-17
9.4678891e-17
9.4674321e-17
9.4673076e-17
9.4674667e-17
9.4679445e-17
9.4688992e-17
9.4744191e-17
9.4703873e-17
9.4678265e-17
9.4662466e-17
9.4653348e-17
9.4648831e-17
9.464768e-17
9.4649443e-17
9.4654527e-17
9.4664511e-17
9.4728334e-17
9.4688044e-17
9.4662466e-17
9.46467e-17
9.463762e-17
9.4633154e-17
9.4632082e-17
9.463397e-17
9.4639225e-17
9.4649378e-17
9.4719156e-17
9.4678891e-17
9.4653348e-17
9.463762e-17
9.4628578e-17
9.4624158e-17
9.4623146e-17
9.4625113e-17
9.4630459e-17
9.4640685e-17
9.4714549e-17
9.4674321e-17
9.4648831e-17
9.4633154e-17
9.4624158e-17
9.461978e-17
9.4618813e-17
9.4620829e-17
9.4626223e-17
9.4636483e-17
9.4713229e-17
9.4673076e-17
9.464768e-17
9.4632082e-17
9.4623146e-17
9.4618813e-17
9.4617882e-17
9.4619929e-17
9.4625351e-17
9.4635628e-17
9.4714648e-17
9.4674667e-17
9.4649443e-17
9.463397e-17
9.4625113e-17
9.4620829e-17
9.4619929e-17
9.4622e-17
9.4627439e-17
9.4637726e-17
9.4718985e-17
9.4679445e-17
9.4654527e-17
9.4639225e-17
9.4630459e-17
9.4626223e-17
9.4625351e-17
9.4627439e-17
9.4632892e-17
9.4643191e-17
9.4727249e-17
9.4688992e-17
9.4664511e-17
9.4649378e-17
9.4640685e-17
9.4636483e-17
9.4635628e-17
9.4637726e-17
9.4643191e-17
9.4653516e-17
1.8746938e-16
1.8739259e-16
1.8734368e-16
1.8731342e-16
1.8729588e-16
1.8728706e-16
1.8728452e-16
1.872872e-16
1.8729538e-16
1.8731083e-16
1.8739259e-16
1.8731605e-16
1.8726723e-16
1.8723702e-16
1.8721952e-16
1.8721078e-16
1.8720839e-16
1.872114e-16
1.8722044e-16
1.8723839e-16
1.8734368e-16
1.8726723e-16
1.8721848e-16
1.8718833e-16
1.871709e-16
1.8716226e-16
1.8716006e-16
1.8716341e-16
1.8717304e-16
1.8719184e-16
1.8731342e-16
1.8723702e-16
1.8718833e-16
1.8715825e-16
1.8714089e-16
1.8713235e-16
1.871303e-16
1.8713389e-16
1.8714385e-16
1.8716298e-16
1.8729588e-16
1.8721952e-16
1.871709e-16
1.8714089e-16
1.8712361e-16
1.8711516e-16
1.8711322e-16
1.8711697e-16
1.8712711e-16
1.8714638e-16
1.8728706e-16
1.8721078e-16
1.8716226e-16
1.8713235e-16
1.8711516e-16
1.8710679e-16
1.8710494e-16
1.8710878e-16
1.8711901e-16
1.8713835e-16
1.8728452e-16
1.8720839e-16
1.8716006e-16
1.871303e-16
1.8711322e-16
1.8710494e-16
1.8710316e-16
1.8710706e-16
1.8711735e-16
1.8713672e-16
1.872872e-16
1.872114e-16
1.8716341e-16
1.8713389e-16
1.8711697e-16
1.8710878e-16
1.8710706e-16
1.8711101e-16
1.8712133e-16
1.8714072e-16
1.8729538e-16
1.8722044e-16
1.8717304e-16
1.8714385e-16
1.8712711e-16
1.8711901e-16
1.8711735e-16
1.8712133e-16
1.8713168e-16
1.8715109e-16
1.8731083e-16
1.8723839e-16
1.8719184e-16
1.8716298e-16
1.8714638e-16
1.8713835e-16
1.8713672e-16
1.8714072e-16
1.8715109e-16