/*--------------------------------*- C++ -*----------------------------------*\
| =========                 |                                                 |
| \\      /  F ield         | OpenFOAM: The Open Source CFD Toolbox           |
|  \\    /   O peration     | Version:  dev                                   |
|   \\  /    A nd           | Web:      www.OpenFOAM.org                      |
|    \\/     M anipulation  |                                                 |
\*---------------------------------------------------------------------------*/
FoamFile
{
    version     2.0;
    format      ascii;
    class       volScalarField;
    location    "94.995";
    object      A;
}
// * * * * * * * * * * * * * * * * * * * * * * * * * * * * * * * * * * * * * //

dimensions      [0 0 0 0 1 0 0];

internalField   nonuniform List<scalar> 
10000
(
1.1631736e-21
1.1622012e-21
1.1616567e-21
1.1613369e-21
1.1611567e-21
1.1610679e-21
1.1610453e-21
1.1610829e-21
1.1611962e-21
1.161417e-21
1.1622012e-21
1.1612324e-21
1.1606892e-21
1.1603701e-21
1.1601904e-21
1.1601022e-21
1.1600808e-21
1.1601207e-21
1.1602402e-21
1.1604786e-21
1.1616567e-21
1.1606892e-21
1.1601469e-21
1.1598284e-21
1.1596492e-21
1.1595619e-21
1.1595419e-21
1.1595844e-21
1.1597082e-21
1.1599528e-21
1.1613369e-21
1.1603701e-21
1.1598284e-21
1.1595104e-21
1.1593319e-21
1.1592454e-21
1.1592266e-21
1.1592709e-21
1.1593973e-21
1.1596442e-21
1.1611567e-21
1.1601904e-21
1.1596492e-21
1.1593319e-21
1.1591541e-21
1.1590683e-21
1.1590503e-21
1.1590959e-21
1.1592236e-21
1.1594716e-21
1.1610679e-21
1.1601022e-21
1.1595619e-21
1.1592454e-21
1.1590683e-21
1.1589832e-21
1.1589659e-21
1.1590122e-21
1.1591406e-21
1.1593891e-21
1.1610453e-21
1.1600808e-21
1.1595419e-21
1.1592266e-21
1.1590503e-21
1.1589659e-21
1.1589492e-21
1.158996e-21
1.1591249e-21
1.1593736e-21
1.1610829e-21
1.1601207e-21
1.1595844e-21
1.1592709e-21
1.1590959e-21
1.1590122e-21
1.158996e-21
1.1590432e-21
1.1591723e-21
1.1594213e-21
1.1611962e-21
1.1602402e-21
1.1597082e-21
1.1593973e-21
1.1592236e-21
1.1591406e-21
1.1591249e-21
1.1591723e-21
1.1593018e-21
1.159551e-21
1.161417e-21
1.1604786e-21
1.1599528e-21
1.1596442e-21
1.1594716e-21
1.1593891e-21
1.1593736e-21
1.1594213e-21
1.159551e-21
1.1598009e-21
3.7976322e-21
3.7945824e-21
3.7928228e-21
3.7917868e-21
3.7912024e-21
3.7909145e-21
3.7908409e-21
3.790962e-21
3.7913288e-21
3.7920687e-21
3.7945824e-21
3.7915438e-21
3.7897881e-21
3.7887542e-21
3.7881714e-21
3.7878855e-21
3.7878156e-21
3.7879447e-21
3.7883317e-21
3.7891293e-21
3.7928228e-21
3.7897881e-21
3.7880352e-21
3.7870033e-21
3.7864225e-21
3.7861393e-21
3.7860739e-21
3.7862112e-21
3.7866125e-21
3.7874301e-21
3.7917868e-21
3.7887542e-21
3.7870033e-21
3.7859733e-21
3.7853945e-21
3.7851139e-21
3.7850525e-21
3.7851958e-21
3.7856052e-21
3.7864306e-21
3.7912024e-21
3.7881714e-21
3.7864225e-21
3.7853945e-21
3.7848178e-21
3.7845395e-21
3.7844811e-21
3.7846283e-21
3.7850421e-21
3.7858709e-21
3.7909145e-21
3.7878855e-21
3.7861393e-21
3.7851139e-21
3.7845395e-21
3.7842634e-21
3.7842073e-21
3.7843568e-21
3.7847731e-21
3.7856035e-21
3.7908409e-21
3.7878156e-21
3.7860739e-21
3.7850525e-21
3.7844811e-21
3.7842073e-21
3.7841529e-21
3.7843041e-21
3.7847217e-21
3.785553e-21
3.790962e-21
3.7879447e-21
3.7862112e-21
3.7851958e-21
3.7846283e-21
3.7843568e-21
3.7843041e-21
3.7844566e-21
3.7848751e-21
3.7857071e-21
3.7913288e-21
3.7883317e-21
3.7866125e-21
3.7856052e-21
3.7850421e-21
3.7847731e-21
3.7847217e-21
3.7848751e-21
3.7852946e-21
3.7861275e-21
3.7920687e-21
3.7891293e-21
3.7874301e-21
3.7864306e-21
3.7858709e-21
3.7856035e-21
3.785553e-21
3.7857071e-21
3.7861275e-21
3.7869627e-21
7.4544348e-21
7.44865e-21
7.4452572e-21
7.4432533e-21
7.4421214e-21
7.441563e-21
7.4414194e-21
7.4416517e-21
7.4423586e-21
7.4438317e-21
7.44865e-21
7.4428859e-21
7.4395008e-21
7.4375008e-21
7.436372e-21
7.4358175e-21
7.435681e-21
7.4359289e-21
7.4366755e-21
7.4382617e-21
7.4452572e-21
7.4395008e-21
7.436121e-21
7.4341249e-21
7.4329999e-21
7.4324507e-21
7.4323231e-21
7.4325871e-21
7.4333615e-21
7.4349867e-21
7.4432533e-21
7.4375008e-21
7.4341249e-21
7.4321325e-21
7.4310114e-21
7.4304673e-21
7.4303475e-21
7.4306231e-21
7.4314134e-21
7.4330539e-21
7.4421214e-21
7.436372e-21
7.4329999e-21
7.4310114e-21
7.4298944e-21
7.4293548e-21
7.4292408e-21
7.429524e-21
7.4303228e-21
7.43197e-21
7.441563e-21
7.4358175e-21
7.4324507e-21
7.4304673e-21
7.4293548e-21
7.4288195e-21
7.4287099e-21
7.4289978e-21
7.4298014e-21
7.4314517e-21
7.4414194e-21
7.435681e-21
7.4323231e-21
7.4303475e-21
7.4292408e-21
7.4287099e-21
7.4286039e-21
7.428895e-21
7.4297012e-21
7.4313532e-21
7.4416517e-21
7.4359289e-21
7.4325871e-21
7.4306231e-21
7.429524e-21
7.4289978e-21
7.428895e-21
7.4291884e-21
7.4299966e-21
7.4316498e-21
7.4423586e-21
7.4366755e-21
7.4333615e-21
7.4314134e-21
7.4303228e-21
7.4298014e-21
7.4297012e-21
7.4299966e-21
7.4308063e-21
7.4324614e-21
7.4438317e-21
7.4382617e-21
7.4349867e-21
7.4330539e-21
7.43197e-21
7.4314517e-21
7.4313532e-21
7.4316498e-21
7.4324614e-21
7.4341215e-21
1.3159964e-20
1.3150092e-20
1.314424e-20
1.3140773e-20
1.313881e-20
1.3137841e-20
1.3137589e-20
1.3137986e-20
1.31392e-20
1.3141761e-20
1.3150092e-20
1.3140254e-20
1.3134416e-20
1.3130955e-20
1.3128998e-20
1.3128035e-20
1.3127796e-20
1.3128221e-20
1.3129504e-20
1.3132264e-20
1.314424e-20
1.3134416e-20
1.3128587e-20
1.3125133e-20
1.3123182e-20
1.3122228e-20
1.3122005e-20
1.3122458e-20
1.312379e-20
1.3126619e-20
1.3140773e-20
1.3130955e-20
1.3125133e-20
1.3121684e-20
1.3119741e-20
1.3118796e-20
1.3118586e-20
1.311906e-20
1.3120419e-20
1.3123275e-20
1.313881e-20
1.3128998e-20
1.3123182e-20
1.3119741e-20
1.3117804e-20
1.3116868e-20
1.3116668e-20
1.3117154e-20
1.3118529e-20
1.3121397e-20
1.3137841e-20
1.3128035e-20
1.3122228e-20
1.3118796e-20
1.3116868e-20
1.3115938e-20
1.3115747e-20
1.3116241e-20
1.3117624e-20
1.3120497e-20
1.3137589e-20
1.3127796e-20
1.3122005e-20
1.3118586e-20
1.3116668e-20
1.3115747e-20
1.3115561e-20
1.3116061e-20
1.3117449e-20
1.3120325e-20
1.3137986e-20
1.3128221e-20
1.3122458e-20
1.311906e-20
1.3117154e-20
1.3116241e-20
1.3116061e-20
1.3116566e-20
1.3117957e-20
1.3120835e-20
1.31392e-20
1.3129504e-20
1.312379e-20
1.3120419e-20
1.3118529e-20
1.3117624e-20
1.3117449e-20
1.3117957e-20
1.3119351e-20
1.3122232e-20
1.3141761e-20
1.3132264e-20
1.3126619e-20
1.3123275e-20
1.3121397e-20
1.3120497e-20
1.3120325e-20
1.3120835e-20
1.3122232e-20
1.3125122e-20
2.2598541e-20
2.2582157e-20
2.2572374e-20
2.2566556e-20
2.2563258e-20
2.2561625e-20
2.2561197e-20
2.2561854e-20
2.2563865e-20
2.256812e-20
2.2582157e-20
2.256583e-20
2.2556069e-20
2.2550263e-20
2.2546973e-20
2.2545351e-20
2.2544945e-20
2.2545649e-20
2.2547779e-20
2.2552374e-20
2.2572374e-20
2.2556069e-20
2.2546324e-20
2.2540528e-20
2.253725e-20
2.2535644e-20
2.2535264e-20
2.2536015e-20
2.2538229e-20
2.2542942e-20
2.2566556e-20
2.2550263e-20
2.2540528e-20
2.2534744e-20
2.2531477e-20
2.2529886e-20
2.252953e-20
2.2530316e-20
2.2532577e-20
2.2537335e-20
2.2563258e-20
2.2546973e-20
2.253725e-20
2.2531477e-20
2.2528222e-20
2.2526645e-20
2.2526306e-20
2.2527114e-20
2.2529401e-20
2.2534179e-20
2.2561625e-20
2.2545351e-20
2.2535644e-20
2.2529886e-20
2.2526645e-20
2.2525081e-20
2.2524754e-20
2.2525577e-20
2.2527878e-20
2.2532665e-20
2.2561197e-20
2.2544945e-20
2.2535264e-20
2.252953e-20
2.2526306e-20
2.2524754e-20
2.2524439e-20
2.2525271e-20
2.252758e-20
2.2532372e-20
2.2561854e-20
2.2545649e-20
2.2536015e-20
2.2530316e-20
2.2527114e-20
2.2525577e-20
2.2525271e-20
2.252611e-20
2.2528425e-20
2.2533221e-20
2.2563865e-20
2.2547779e-20
2.2538229e-20
2.2532577e-20
2.2529401e-20
2.2527878e-20
2.252758e-20
2.2528425e-20
2.2530744e-20
2.2535545e-20
2.256812e-20
2.2552374e-20
2.2542942e-20
2.2537335e-20
2.2534179e-20
2.2532665e-20
2.2532372e-20
2.2533221e-20
2.2535545e-20
2.2540361e-20
3.8668293e-20
3.864121e-20
3.8624946e-20
3.8615241e-20
3.8609727e-20
3.8606992e-20
3.8606269e-20
3.8607346e-20
3.8610653e-20
3.8617627e-20
3.864121e-20
3.8614222e-20
3.8597993e-20
3.8588307e-20
3.8582808e-20
3.8580092e-20
3.8579405e-20
3.8580562e-20
3.8584071e-20
3.8591625e-20
3.8624946e-20
3.8597993e-20
3.858179e-20
3.8572122e-20
3.8566642e-20
3.8563953e-20
3.8563311e-20
3.8564548e-20
3.85682e-20
3.8575953e-20
3.8615241e-20
3.8588307e-20
3.8572122e-20
3.8562472e-20
3.8557012e-20
3.8554349e-20
3.8553745e-20
3.8555042e-20
3.8558774e-20
3.8566605e-20
3.8609727e-20
3.8582808e-20
3.8566642e-20
3.8557012e-20
3.8551571e-20
3.8548931e-20
3.8548357e-20
3.8549692e-20
3.8553468e-20
3.8561332e-20
3.8606992e-20
3.8580092e-20
3.8563953e-20
3.8554349e-20
3.8548931e-20
3.8546312e-20
3.8545761e-20
3.854712e-20
3.8550919e-20
3.8558799e-20
3.8606269e-20
3.8579405e-20
3.8563311e-20
3.8553745e-20
3.8548357e-20
3.8545761e-20
3.8545227e-20
3.8546602e-20
3.8550415e-20
3.8558304e-20
3.8607346e-20
3.8580562e-20
3.8564548e-20
3.8555042e-20
3.8549692e-20
3.854712e-20
3.8546602e-20
3.854799e-20
3.8551811e-20
3.8559707e-20
3.8610653e-20
3.8584071e-20
3.85682e-20
3.8558774e-20
3.8553468e-20
3.8550919e-20
3.8550415e-20
3.8551811e-20
3.8555641e-20
3.8563545e-20
3.8617627e-20
3.8591625e-20
3.8575953e-20
3.8566605e-20
3.8561332e-20
3.8558799e-20
3.8558304e-20
3.8559707e-20
3.8563545e-20
3.8571473e-20
6.6478483e-20
6.6433525e-20
6.6406387e-20
6.6390142e-20
6.6380893e-20
6.6376296e-20
6.6375069e-20
6.637684e-20
6.638229e-20
6.6393719e-20
6.6433525e-20
6.6388721e-20
6.6361642e-20
6.6345428e-20
6.6336204e-20
6.633164e-20
6.6330474e-20
6.6332381e-20
6.6338176e-20
6.6350596e-20
6.6406387e-20
6.6361642e-20
6.6334606e-20
6.6318423e-20
6.630923e-20
6.6304711e-20
6.6303622e-20
6.6305667e-20
6.6311704e-20
6.6324465e-20
6.6390142e-20
6.6345428e-20
6.6318423e-20
6.6302271e-20
6.6293111e-20
6.6288636e-20
6.6287613e-20
6.6289759e-20
6.6295933e-20
6.6308827e-20
6.6380893e-20
6.6336204e-20
6.630923e-20
6.6293111e-20
6.6283985e-20
6.627955e-20
6.6278576e-20
6.6280788e-20
6.6287036e-20
6.6299987e-20
6.6376296e-20
6.633164e-20
6.6304711e-20
6.6288636e-20
6.627955e-20
6.6275151e-20
6.6274215e-20
6.6276467e-20
6.6282755e-20
6.6295734e-20
6.6375069e-20
6.6330474e-20
6.6303622e-20
6.6287613e-20
6.6278576e-20
6.6274215e-20
6.627331e-20
6.627559e-20
6.6281901e-20
6.6294894e-20
6.637684e-20
6.6332381e-20
6.6305667e-20
6.6289759e-20
6.6280788e-20
6.6276467e-20
6.627559e-20
6.6277889e-20
6.6284216e-20
6.629722e-20
6.638229e-20
6.6338176e-20
6.6311704e-20
6.6295933e-20
6.6287036e-20
6.6282755e-20
6.6281901e-20
6.6284216e-20
6.6290557e-20
6.6303575e-20
6.6393719e-20
6.6350596e-20
6.6324465e-20
6.6308827e-20
6.6299987e-20
6.6295734e-20
6.6294894e-20
6.629722e-20
6.6303575e-20
6.6316631e-20
1.1516929e-19
1.1509411e-19
1.1504852e-19
1.1502114e-19
1.1500552e-19
1.1499774e-19
1.1499564e-19
1.1499858e-19
1.1500761e-19
1.1502644e-19
1.1509411e-19
1.1501919e-19
1.149737e-19
1.1494637e-19
1.1493079e-19
1.1492307e-19
1.1492108e-19
1.1492424e-19
1.1493387e-19
1.1495441e-19
1.1504852e-19
1.149737e-19
1.1492827e-19
1.14901e-19
1.1488547e-19
1.1487783e-19
1.1487597e-19
1.1487937e-19
1.1488942e-19
1.1491054e-19
1.1502114e-19
1.1494637e-19
1.14901e-19
1.1487378e-19
1.1485831e-19
1.1485074e-19
1.1484899e-19
1.1485257e-19
1.1486285e-19
1.148842e-19
1.1500552e-19
1.1493079e-19
1.1488547e-19
1.1485831e-19
1.148429e-19
1.1483539e-19
1.1483373e-19
1.1483742e-19
1.1484783e-19
1.1486928e-19
1.1499774e-19
1.1492307e-19
1.1487783e-19
1.1485074e-19
1.1483539e-19
1.1482795e-19
1.1482636e-19
1.1483011e-19
1.1484059e-19
1.1486209e-19
1.1499564e-19
1.1492108e-19
1.1487597e-19
1.1484899e-19
1.1483373e-19
1.1482636e-19
1.1482481e-19
1.1482862e-19
1.1483913e-19
1.1486065e-19
1.1499858e-19
1.1492424e-19
1.1487937e-19
1.1485257e-19
1.1483742e-19
1.1483011e-19
1.1482862e-19
1.1483246e-19
1.14843e-19
1.1486454e-19
1.1500761e-19
1.1493387e-19
1.1488942e-19
1.1486285e-19
1.1484783e-19
1.1484059e-19
1.1483913e-19
1.14843e-19
1.1485356e-19
1.1487513e-19
1.1502644e-19
1.1495441e-19
1.1491054e-19
1.148842e-19
1.1486928e-19
1.1486209e-19
1.1486065e-19
1.1486454e-19
1.1487513e-19
1.1489675e-19
2.0127113e-19
2.0114438e-19
2.0106715e-19
2.0102064e-19
2.0099404e-19
2.0098077e-19
2.0097716e-19
2.0098206e-19
2.0099716e-19
2.0102841e-19
2.0114438e-19
2.0101806e-19
2.00941e-19
2.0089457e-19
2.0086804e-19
2.0085487e-19
2.0085144e-19
2.0085674e-19
2.0087287e-19
2.0090709e-19
2.0106715e-19
2.00941e-19
2.0086406e-19
2.0081772e-19
2.0079128e-19
2.0077824e-19
2.0077504e-19
2.0078075e-19
2.007976e-19
2.0083283e-19
2.0102064e-19
2.0089457e-19
2.0081772e-19
2.0077146e-19
2.0074513e-19
2.0073222e-19
2.0072921e-19
2.0073522e-19
2.0075248e-19
2.0078811e-19
2.0099404e-19
2.0086804e-19
2.0079128e-19
2.0074513e-19
2.0071889e-19
2.007061e-19
2.0070324e-19
2.0070944e-19
2.0072692e-19
2.0076272e-19
2.0098077e-19
2.0085487e-19
2.0077824e-19
2.0073222e-19
2.007061e-19
2.0069342e-19
2.0069067e-19
2.0069699e-19
2.0071459e-19
2.0075047e-19
2.0097716e-19
2.0085144e-19
2.0077504e-19
2.0072921e-19
2.0070324e-19
2.0069067e-19
2.0068801e-19
2.0069441e-19
2.0071208e-19
2.00748e-19
2.0098206e-19
2.0085674e-19
2.0078075e-19
2.0073522e-19
2.0070944e-19
2.0069699e-19
2.0069441e-19
2.0070088e-19
2.0071859e-19
2.0075454e-19
2.0099716e-19
2.0087287e-19
2.007976e-19
2.0075248e-19
2.0072692e-19
2.0071459e-19
2.0071208e-19
2.0071859e-19
2.0073634e-19
2.0077233e-19
2.0102841e-19
2.0090709e-19
2.0083283e-19
2.0078811e-19
2.0076272e-19
2.0075047e-19
2.00748e-19
2.0075454e-19
2.0077233e-19
2.0080843e-19
3.5496639e-19
3.5475081e-19
3.5461888e-19
3.5453917e-19
3.544935e-19
3.5447068e-19
3.544644e-19
3.5447264e-19
3.544981e-19
3.5455043e-19
3.5475081e-19
3.5453596e-19
3.5440431e-19
3.5432475e-19
3.542792e-19
3.5425654e-19
3.5425059e-19
3.5425953e-19
3.5428679e-19
3.543443e-19
3.5461888e-19
3.5440431e-19
3.5427286e-19
3.5419345e-19
3.5414806e-19
3.5412563e-19
3.5412008e-19
3.5412974e-19
3.5415825e-19
3.5421753e-19
3.5453917e-19
3.5432475e-19
3.5419345e-19
3.5411419e-19
3.5406897e-19
3.5404677e-19
3.5404155e-19
3.5405174e-19
3.5408096e-19
3.5414094e-19
3.544935e-19
3.542792e-19
3.5414806e-19
3.5406897e-19
3.5402393e-19
3.5400193e-19
3.5399697e-19
3.5400749e-19
3.540371e-19
3.5409737e-19
3.5447068e-19
3.5425654e-19
3.5412563e-19
3.5404677e-19
3.5400193e-19
3.5398012e-19
3.5397535e-19
3.5398609e-19
3.540159e-19
3.5407632e-19
3.544644e-19
3.5425059e-19
3.5412008e-19
3.5404155e-19
3.5399697e-19
3.5397535e-19
3.5397075e-19
3.5398162e-19
3.5401155e-19
3.5407204e-19
3.5447264e-19
3.5425953e-19
3.5412974e-19
3.5405174e-19
3.5400749e-19
3.5398609e-19
3.5398162e-19
3.539926e-19
3.5402261e-19
3.5408315e-19
3.544981e-19
3.5428679e-19
3.5415825e-19
3.5408096e-19
3.540371e-19
3.540159e-19
3.5401155e-19
3.5402261e-19
3.5405269e-19
3.541133e-19
3.5455043e-19
3.543443e-19
3.5421753e-19
3.5414094e-19
3.5409737e-19
3.5407632e-19
3.5407204e-19
3.5408315e-19
3.541133e-19
3.5417409e-19
6.3186588e-19
6.3149598e-19
6.3126859e-19
6.311308e-19
6.3105169e-19
6.3101209e-19
6.3100111e-19
6.3101511e-19
6.3105841e-19
6.3114677e-19
6.3149598e-19
6.3112732e-19
6.3090041e-19
6.3076287e-19
6.3068397e-19
6.3064466e-19
6.3063424e-19
6.3064948e-19
6.3069595e-19
6.3079346e-19
6.3126859e-19
6.3090041e-19
6.3067385e-19
6.3053657e-19
6.3045795e-19
6.3041905e-19
6.3040932e-19
6.3042583e-19
6.3047452e-19
6.3057516e-19
6.311308e-19
6.3076287e-19
6.3053657e-19
6.3039956e-19
6.3032124e-19
6.3028273e-19
6.3027361e-19
6.3029103e-19
6.3034097e-19
6.3044284e-19
6.3105169e-19
6.3068397e-19
6.3045795e-19
6.3032124e-19
6.3024322e-19
6.3020507e-19
6.301964e-19
6.3021442e-19
6.3026503e-19
6.3036742e-19
6.3101209e-19
6.3064466e-19
6.3041905e-19
6.3028273e-19
6.3020507e-19
6.3016724e-19
6.3015891e-19
6.301773e-19
6.3022828e-19
6.3033092e-19
6.3100111e-19
6.3063424e-19
6.3040932e-19
6.3027361e-19
6.301964e-19
6.3015891e-19
6.3015086e-19
6.301695e-19
6.3022069e-19
6.3032346e-19
6.3101511e-19
6.3064948e-19
6.3042583e-19
6.3029103e-19
6.3021442e-19
6.301773e-19
6.301695e-19
6.3018831e-19
6.3023964e-19
6.3034251e-19
6.3105841e-19
6.3069595e-19
6.3047452e-19
6.3034097e-19
6.3026503e-19
6.3022828e-19
6.3022069e-19
6.3023964e-19
6.3029109e-19
6.3039407e-19
6.3114677e-19
6.3079346e-19
6.3057516e-19
6.3044284e-19
6.3036742e-19
6.3033092e-19
6.3032346e-19
6.3034251e-19
6.3039407e-19
6.3049734e-19
1.13535e-18
1.1347096e-18
1.1343142e-18
1.1340739e-18
1.1339357e-18
1.1338664e-18
1.133847e-18
1.133871e-18
1.1339453e-18
1.1340959e-18
1.1347096e-18
1.1340714e-18
1.1336768e-18
1.1334369e-18
1.133299e-18
1.1332302e-18
1.1332119e-18
1.1332381e-18
1.133318e-18
1.1334849e-18
1.1343142e-18
1.1336768e-18
1.1332828e-18
1.1330434e-18
1.132906e-18
1.132838e-18
1.1328208e-18
1.1328493e-18
1.1329332e-18
1.1331056e-18
1.1340739e-18
1.1334369e-18
1.1330434e-18
1.1328045e-18
1.1326676e-18
1.1326002e-18
1.1325842e-18
1.1326142e-18
1.1327004e-18
1.132875e-18
1.1339357e-18
1.133299e-18
1.132906e-18
1.1326676e-18
1.1325313e-18
1.1324646e-18
1.1324493e-18
1.1324804e-18
1.1325677e-18
1.1327433e-18
1.1338664e-18
1.1332302e-18
1.132838e-18
1.1326002e-18
1.1324646e-18
1.1323984e-18
1.1323837e-18
1.1324155e-18
1.1325035e-18
1.1326795e-18
1.133847e-18
1.1332119e-18
1.1328208e-18
1.1325842e-18
1.1324493e-18
1.1323837e-18
1.1323695e-18
1.1324018e-18
1.1324901e-18
1.1326663e-18
1.133871e-18
1.1332381e-18
1.1328493e-18
1.1326142e-18
1.1324804e-18
1.1324155e-18
1.1324018e-18
1.1324343e-18
1.1325229e-18
1.1326993e-18
1.1339453e-18
1.133318e-18
1.1329332e-18
1.1327004e-18
1.1325677e-18
1.1325035e-18
1.1324901e-18
1.1325229e-18
1.1326117e-18
1.1327883e-18
1.1340959e-18
1.1334849e-18
1.1331056e-18
1.132875e-18
1.1327433e-18
1.1326795e-18
1.1326663e-18
1.1326993e-18
1.1327883e-18
1.1329654e-18
2.0593176e-18
2.0581989e-18
2.0575053e-18
2.0570824e-18
2.0568387e-18
2.0567163e-18
2.0566818e-18
2.0567234e-18
2.0568521e-18
2.057111e-18
2.0581989e-18
2.057084e-18
2.0563918e-18
2.0559697e-18
2.0557266e-18
2.0556051e-18
2.0555724e-18
2.0556179e-18
2.0557568e-18
2.0560449e-18
2.0575053e-18
2.0563918e-18
2.0557006e-18
2.0552793e-18
2.0550372e-18
2.0549169e-18
2.0548864e-18
2.054936e-18
2.0550819e-18
2.0553801e-18
2.0570824e-18
2.0559697e-18
2.0552793e-18
2.0548589e-18
2.0546177e-18
2.0544987e-18
2.0544701e-18
2.0545226e-18
2.0546725e-18
2.0549746e-18
2.0568387e-18
2.0557266e-18
2.0550372e-18
2.0546177e-18
2.0543774e-18
2.0542595e-18
2.0542324e-18
2.0542867e-18
2.0544388e-18
2.0547426e-18
2.0567163e-18
2.0556051e-18
2.0549169e-18
2.0544987e-18
2.0542595e-18
2.0541427e-18
2.0541167e-18
2.0541722e-18
2.0543254e-18
2.05463e-18
2.0566818e-18
2.0555724e-18
2.0548864e-18
2.0544701e-18
2.0542324e-18
2.0541167e-18
2.0540915e-18
2.0541478e-18
2.0543017e-18
2.0546067e-18
2.0567234e-18
2.0556179e-18
2.054936e-18
2.0545226e-18
2.0542867e-18
2.0541722e-18
2.0541478e-18
2.0542047e-18
2.054359e-18
2.0546643e-18
2.0568521e-18
2.0557568e-18
2.0550819e-18
2.0546725e-18
2.0544388e-18
2.0543254e-18
2.0543017e-18
2.054359e-18
2.0545137e-18
2.0548193e-18
2.057111e-18
2.0560449e-18
2.0553801e-18
2.0549746e-18
2.0547426e-18
2.05463e-18
2.0546067e-18
2.0546643e-18
2.0548193e-18
2.0551257e-18
3.7706868e-18
3.7687151e-18
3.7674873e-18
3.7667367e-18
3.7663032e-18
3.7660852e-18
3.7660233e-18
3.7660959e-18
3.7663209e-18
3.76677e-18
3.7687151e-18
3.7667499e-18
3.7655246e-18
3.7647754e-18
3.764343e-18
3.7641266e-18
3.764068e-18
3.7641477e-18
3.7643911e-18
3.7648933e-18
3.7674873e-18
3.7655246e-18
3.7643012e-18
3.7635534e-18
3.7631226e-18
3.7629085e-18
3.7628539e-18
3.7629409e-18
3.763197e-18
3.7637174e-18
3.7667367e-18
3.7647754e-18
3.7635534e-18
3.7628071e-18
3.762378e-18
3.7621661e-18
3.7621149e-18
3.7622072e-18
3.7624706e-18
3.7629981e-18
3.7663032e-18
3.764343e-18
3.7631226e-18
3.762378e-18
3.7619507e-18
3.7617408e-18
3.7616922e-18
3.7617879e-18
3.7620552e-18
3.7625857e-18
3.7660852e-18
3.7641266e-18
3.7629085e-18
3.7621661e-18
3.7617408e-18
3.7615329e-18
3.7614862e-18
3.7615841e-18
3.7618534e-18
3.7623854e-18
3.7660233e-18
3.764068e-18
3.7628539e-18
3.7621149e-18
3.7616922e-18
3.7614862e-18
3.7614412e-18
3.7615404e-18
3.761811e-18
3.7623437e-18
3.7660959e-18
3.7641477e-18
3.7629409e-18
3.7622072e-18
3.7617879e-18
3.7615841e-18
3.7615404e-18
3.7616407e-18
3.7619121e-18
3.7624453e-18
3.7663209e-18
3.7643911e-18
3.763197e-18
3.7624706e-18
3.7620552e-18
3.7618534e-18
3.761811e-18
3.7619121e-18
3.762184e-18
3.7627179e-18
3.76677e-18
3.7648933e-18
3.7637174e-18
3.7629981e-18
3.7625857e-18
3.7623854e-18
3.7623437e-18
3.7624453e-18
3.7627179e-18
3.7632532e-18
6.969981e-18
6.9664745e-18
6.9642817e-18
6.9629374e-18
6.9621595e-18
6.9617676e-18
6.9616557e-18
6.9617836e-18
6.9621805e-18
6.962967e-18
6.9664745e-18
6.9629795e-18
6.9607911e-18
6.9594491e-18
6.9586733e-18
6.9582844e-18
6.9581783e-18
6.9583194e-18
6.9587499e-18
6.9596335e-18
6.9642817e-18
6.9607911e-18
6.958606e-18
6.9572666e-18
6.9564937e-18
6.956109e-18
6.9560102e-18
6.9561645e-18
6.9566184e-18
6.9575352e-18
6.9629374e-18
6.9594491e-18
6.9572666e-18
6.9559299e-18
6.9551601e-18
6.9547795e-18
6.954687e-18
6.9548509e-18
6.955318e-18
6.9562477e-18
6.9621595e-18
6.9586733e-18
6.9564937e-18
6.9551601e-18
6.9543934e-18
6.9540165e-18
6.9539287e-18
6.9540989e-18
6.954573e-18
6.9555083e-18
6.9617676e-18
6.9582844e-18
6.956109e-18
6.9547795e-18
6.9540165e-18
6.953643e-18
6.9535588e-18
6.9537328e-18
6.9542108e-18
6.9551487e-18
6.9616557e-18
6.9581783e-18
6.9560102e-18
6.954687e-18
6.9539287e-18
6.9535588e-18
6.9534775e-18
6.9536541e-18
6.9541343e-18
6.9550736e-18
6.9617836e-18
6.9583194e-18
6.9561645e-18
6.9548509e-18
6.9540989e-18
6.9537328e-18
6.9536541e-18
6.9538326e-18
6.9543142e-18
6.9552544e-18
6.9621805e-18
6.9587499e-18
6.9566184e-18
6.955318e-18
6.954573e-18
6.9542108e-18
6.9541343e-18
6.9543142e-18
6.954797e-18
6.9557383e-18
6.962967e-18
6.9596335e-18
6.9575352e-18
6.9562477e-18
6.9555083e-18
6.9551487e-18
6.9550736e-18
6.9552544e-18
6.9557383e-18
6.9566821e-18
1.3006582e-17
1.300029e-17
1.2996338e-17
1.2993909e-17
1.2992501e-17
1.299179e-17
1.2991586e-17
1.2991814e-17
1.2992521e-17
1.299391e-17
1.300029e-17
1.2994018e-17
1.2990074e-17
1.2987649e-17
1.2986245e-17
1.298554e-17
1.2985346e-17
1.2985598e-17
1.2986367e-17
1.2987936e-17
1.2996338e-17
1.2990074e-17
1.2986137e-17
1.2983716e-17
1.2982317e-17
1.298162e-17
1.298144e-17
1.2981716e-17
1.2982528e-17
1.2984158e-17
1.2993909e-17
1.2987649e-17
1.2983716e-17
1.2981301e-17
1.2979907e-17
1.2979218e-17
1.2979049e-17
1.2979343e-17
1.2980179e-17
1.2981833e-17
1.2992501e-17
1.2986245e-17
1.2982317e-17
1.2979907e-17
1.297852e-17
1.2977837e-17
1.2977677e-17
1.2977982e-17
1.2978831e-17
1.2980496e-17
1.299179e-17
1.298554e-17
1.298162e-17
1.2979218e-17
1.2977837e-17
1.297716e-17
1.2977007e-17
1.2977319e-17
1.2978175e-17
1.2979845e-17
1.2991586e-17
1.2985346e-17
1.298144e-17
1.2979049e-17
1.2977677e-17
1.2977007e-17
1.2976859e-17
1.2977176e-17
1.2978036e-17
1.2979708e-17
1.2991814e-17
1.2985598e-17
1.2981716e-17
1.2979343e-17
1.2977982e-17
1.2977319e-17
1.2977176e-17
1.2977497e-17
1.297836e-17
1.2980033e-17
1.2992521e-17
1.2986367e-17
1.2982528e-17
1.2980179e-17
1.2978831e-17
1.2978175e-17
1.2978036e-17
1.297836e-17
1.2979225e-17
1.29809e-17
1.299391e-17
1.2987936e-17
1.2984158e-17
1.2981833e-17
1.2980496e-17
1.2979845e-17
1.2979708e-17
1.2980033e-17
1.29809e-17
1.298258e-17
2.4502912e-17
2.4491519e-17
2.4484335e-17
2.4479906e-17
2.4477334e-17
2.4476034e-17
2.4475659e-17
2.4476068e-17
2.4477338e-17
2.4479817e-17
2.4491519e-17
2.4480162e-17
2.4472993e-17
2.4468571e-17
2.4466006e-17
2.4464717e-17
2.4464361e-17
2.4464815e-17
2.4466201e-17
2.4469013e-17
2.4484335e-17
2.4472993e-17
2.4465834e-17
2.4461421e-17
2.4458866e-17
2.4457591e-17
2.445726e-17
2.445776e-17
2.4459225e-17
2.4462151e-17
2.4479906e-17
2.4468571e-17
2.4461421e-17
2.4457018e-17
2.4454473e-17
2.4453211e-17
2.4452902e-17
2.4453435e-17
2.4454945e-17
2.4457916e-17
2.4477334e-17
2.4466006e-17
2.4458866e-17
2.4454473e-17
2.4451938e-17
2.445069e-17
2.4450397e-17
2.445095e-17
2.4452485e-17
2.4455475e-17
2.4476034e-17
2.4464717e-17
2.4457591e-17
2.4453211e-17
2.445069e-17
2.4449453e-17
2.4449172e-17
2.4449739e-17
2.4451287e-17
2.4454285e-17
2.4475659e-17
2.4464361e-17
2.445726e-17
2.4452902e-17
2.4450397e-17
2.4449172e-17
2.4448901e-17
2.4449477e-17
2.4451032e-17
2.4454035e-17
2.4476068e-17
2.4464815e-17
2.445776e-17
2.4453435e-17
2.445095e-17
2.4449739e-17
2.4449477e-17
2.4450059e-17
2.4451619e-17
2.4454625e-17
2.4477338e-17
2.4466201e-17
2.4459225e-17
2.4454945e-17
2.4452485e-17
2.4451287e-17
2.4451032e-17
2.4451619e-17
2.4453183e-17
2.4456193e-17
2.4479817e-17
2.4469013e-17
2.4462151e-17
2.4457916e-17
2.4455475e-17
2.4454285e-17
2.4454035e-17
2.4454625e-17
2.4456193e-17
2.4459211e-17
4.660081e-17
4.6579996e-17
4.6566818e-17
4.6558672e-17
4.6553933e-17
4.6551535e-17
4.6550838e-17
4.6551581e-17
4.6553885e-17
4.6558346e-17
4.6579996e-17
4.6559248e-17
4.6546096e-17
4.6537964e-17
4.6533238e-17
4.6530859e-17
4.6530199e-17
4.6531026e-17
4.6533547e-17
4.6538635e-17
4.6566818e-17
4.6546096e-17
4.6532964e-17
4.6524848e-17
4.652014e-17
4.6517788e-17
4.6517175e-17
4.6518087e-17
4.6520757e-17
4.6526059e-17
4.6558672e-17
4.6537964e-17
4.6524848e-17
4.6516749e-17
4.651206e-17
4.6509734e-17
4.6509161e-17
4.6510135e-17
4.651289e-17
4.6518275e-17
4.6553933e-17
4.6533238e-17
4.652014e-17
4.651206e-17
4.6507391e-17
4.6505088e-17
4.6504546e-17
4.6505559e-17
4.650836e-17
4.6513781e-17
4.6551535e-17
4.6530859e-17
4.6517788e-17
4.6509734e-17
4.6505088e-17
4.6502808e-17
4.6502288e-17
4.6503326e-17
4.6506152e-17
4.6511589e-17
4.6550838e-17
4.6530199e-17
4.6517175e-17
4.6509161e-17
4.6504546e-17
4.6502288e-17
4.6501787e-17
4.6502842e-17
4.6505681e-17
4.6511128e-17
4.6551581e-17
4.6531026e-17
4.6518087e-17
4.6510135e-17
4.6505559e-17
4.6503326e-17
4.6502842e-17
4.6503909e-17
4.6506757e-17
4.6512209e-17
4.6553885e-17
4.6533547e-17
4.6520757e-17
4.651289e-17
4.650836e-17
4.6506152e-17
4.6505681e-17
4.6506757e-17
4.6509613e-17
4.6515071e-17
4.6558346e-17
4.6538635e-17
4.6526059e-17
4.6518275e-17
4.6513781e-17
4.6511589e-17
4.6511128e-17
4.6512209e-17
4.6515071e-17
4.6520544e-17
8.9471429e-17
8.9433062e-17
8.9408676e-17
8.939356e-17
8.938475e-17
8.9380287e-17
8.9378984e-17
8.9380344e-17
8.9384563e-17
8.9392665e-17
8.9433062e-17
8.9394817e-17
8.9370479e-17
8.9355389e-17
8.9346603e-17
8.9342176e-17
8.9340944e-17
8.9342463e-17
8.9347091e-17
8.9356382e-17
8.9408676e-17
8.9370479e-17
8.9346176e-17
8.9331116e-17
8.9322364e-17
8.9317987e-17
8.9316843e-17
8.9318524e-17
8.9323436e-17
8.9333133e-17
8.939356e-17
8.9355389e-17
8.9331116e-17
8.9316088e-17
8.9307372e-17
8.9303045e-17
8.9301976e-17
8.9303774e-17
8.9308846e-17
8.93187e-17
8.938475e-17
8.9346603e-17
8.9322364e-17
8.9307372e-17
8.9298694e-17
8.9294411e-17
8.9293401e-17
8.9295273e-17
8.9300432e-17
8.9310353e-17
8.9380287e-17
8.9342176e-17
8.9317987e-17
8.9303045e-17
8.9294411e-17
8.929017e-17
8.9289202e-17
8.9291121e-17
8.9296326e-17
8.930628e-17
8.9378984e-17
8.9340944e-17
8.9316843e-17
8.9301976e-17
8.9293401e-17
8.9289202e-17
8.928827e-17
8.929022e-17
8.9295452e-17
8.9305421e-17
8.9380344e-17
8.9342463e-17
8.9318524e-17
8.9303774e-17
8.9295273e-17
8.9291121e-17
8.929022e-17
8.9292193e-17
8.9297442e-17
8.9307422e-17
8.9384563e-17
8.9347091e-17
8.9323436e-17
8.9308846e-17
8.9300432e-17
8.9296326e-17
8.9295452e-17
8.9297442e-17
8.9302704e-17
8.9312695e-17
8.9392665e-17
8.9356382e-17
8.9333133e-17
8.93187e-17
8.9310353e-17
8.930628e-17
8.9305421e-17
8.9307422e-17
8.9312695e-17
8.9322713e-17
1.7341218e-16
1.7334084e-16
1.7329531e-16
1.7326701e-16
1.7325049e-16
1.7324211e-16
1.7323966e-16
1.7324217e-16
1.7324997e-16
1.7326482e-16
1.7334084e-16
1.7326971e-16
1.7322427e-16
1.7319603e-16
1.7317955e-16
1.7317124e-16
1.7316892e-16
1.7317174e-16
1.7318032e-16
1.7319744e-16
1.7329531e-16
1.7322427e-16
1.731789e-16
1.7315071e-16
1.731343e-16
1.7312608e-16
1.7312393e-16
1.7312706e-16
1.7313618e-16
1.7315408e-16
1.7326701e-16
1.7319603e-16
1.7315071e-16
1.7312258e-16
1.7310624e-16
1.7309812e-16
1.7309611e-16
1.7309946e-16
1.7310888e-16
1.7312708e-16
1.7325049e-16
1.7317955e-16
1.731343e-16
1.7310624e-16
1.7308997e-16
1.7308193e-16
1.7308003e-16
1.7308353e-16
1.7309312e-16
1.7311145e-16
1.7324211e-16
1.7317124e-16
1.7312608e-16
1.7309812e-16
1.7308193e-16
1.7307398e-16
1.7307216e-16
1.7307574e-16
1.7308542e-16
1.7310381e-16
1.7323966e-16
1.7316892e-16
1.7312393e-16
1.7309611e-16
1.7308003e-16
1.7307216e-16
1.7307041e-16
1.7307405e-16
1.7308378e-16
1.731022e-16
1.7324217e-16
1.7317174e-16
1.7312706e-16
1.7309946e-16
1.7308353e-16
1.7307574e-16
1.7307405e-16
1.7307773e-16
1.730875e-16
1.7310594e-16
1.7324997e-16
1.7318032e-16
1.7313618e-16
1.7310888e-16
1.7309312e-16
1.7308542e-16
1.7308378e-16
1.730875e-16
1.7309728e-16
1.7311575e-16
1.7326482e-16
1.7319744e-16
1.7315408e-16
1.7312708e-16
1.7311145e-16
1.7310381e-16
1.731022e-16
1.7310594e-16
1.7311575e-16
1.7313426e-16
3.39284e-16
3.3915014e-16
3.390644e-16
3.3901097e-16
3.3897972e-16
3.3896386e-16
3.3895919e-16
3.3896388e-16
3.3897842e-16
3.3900589e-16
3.3915014e-16
3.3901671e-16
3.3893113e-16
3.3887779e-16
3.3884663e-16
3.388309e-16
3.3882649e-16
3.3883177e-16
3.3884781e-16
3.3887967e-16
3.390644e-16
3.3893113e-16
3.3884567e-16
3.3879244e-16
3.387614e-16
3.3874585e-16
3.3874177e-16
3.3874764e-16
3.3876473e-16
3.3879808e-16
3.3901097e-16
3.3887779e-16
3.3879244e-16
3.3873932e-16
3.3870842e-16
3.3869305e-16
3.3868924e-16
3.3869554e-16
3.3871323e-16
3.3874715e-16
3.3897972e-16
3.3884663e-16
3.387614e-16
3.3870842e-16
3.3867765e-16
3.3866245e-16
3.3865885e-16
3.3866543e-16
3.3868343e-16
3.387176e-16
3.3896386e-16
3.388309e-16
3.3874585e-16
3.3869305e-16
3.3866245e-16
3.3864739e-16
3.3864395e-16
3.386507e-16
3.3866887e-16
3.3870317e-16
3.3895919e-16
3.3882649e-16
3.3874177e-16
3.3868924e-16
3.3865885e-16
3.3864395e-16
3.3864064e-16
3.3864751e-16
3.3866577e-16
3.3870013e-16
3.3896388e-16
3.3883177e-16
3.3874764e-16
3.3869554e-16
3.3866543e-16
3.386507e-16
3.3864751e-16
3.3865445e-16
3.3867278e-16
3.3870718e-16
3.3897842e-16
3.3884781e-16
3.3876473e-16
3.3871323e-16
3.3868343e-16
3.3866887e-16
3.3866577e-16
3.3867278e-16
3.3869116e-16
3.3872559e-16
3.3900589e-16
3.3887967e-16
3.3879808e-16
3.3874715e-16
3.387176e-16
3.3870317e-16
3.3870013e-16
3.3870718e-16
3.3872559e-16