/*--------------------------------*- C++ -*----------------------------------*\
| =========                 |                                                 |
| \\      /  F ield         | OpenFOAM: The Open Source CFD Toolbox           |
|  \\    /   O peration     | Version:  dev                                   |
|   \\  /    A nd           | Web:      www.OpenFOAM.org                      |
|    \\/     M anipulation  |                                                 |
\*---------------------------------------------------------------------------*/
FoamFile
{
    version     2.0;
    format      ascii;
    class       volScalarField;
    location    "94.995";
    object      A_0;
}
// * * * * * * * * * * * * * * * * * * * * * * * * * * * * * * * * * * * * * //

dimensions      [0 0 0 0 1 0 0];

internalField   nonuniform List<scalar> 
10000
(
1.1419972e-21
1.1410417e-21
1.1405068e-21
1.1401926e-21
1.1400156e-21
1.1399284e-21
1.1399063e-21
1.1399431e-21
1.1400544e-21
1.1402713e-21
1.1410417e-21
1.1400898e-21
1.1395561e-21
1.1392426e-21
1.139066e-21
1.1389795e-21
1.1389584e-21
1.1389977e-21
1.1391151e-21
1.1393492e-21
1.1405068e-21
1.1395561e-21
1.1390232e-21
1.1387103e-21
1.1385343e-21
1.1384486e-21
1.1384289e-21
1.1384707e-21
1.1385923e-21
1.1388325e-21
1.1401926e-21
1.1392426e-21
1.1387103e-21
1.138398e-21
1.1382226e-21
1.1381377e-21
1.1381192e-21
1.1381627e-21
1.1382869e-21
1.1385294e-21
1.1400156e-21
1.139066e-21
1.1385343e-21
1.1382226e-21
1.1380479e-21
1.1379637e-21
1.1379461e-21
1.1379908e-21
1.1381163e-21
1.1383598e-21
1.1399284e-21
1.1389795e-21
1.1384486e-21
1.1381377e-21
1.1379637e-21
1.1378801e-21
1.1378632e-21
1.1379086e-21
1.1380348e-21
1.1382789e-21
1.1399063e-21
1.1389584e-21
1.1384289e-21
1.1381192e-21
1.1379461e-21
1.1378632e-21
1.1378468e-21
1.1378928e-21
1.1380193e-21
1.1382637e-21
1.1399431e-21
1.1389977e-21
1.1384707e-21
1.1381627e-21
1.1379908e-21
1.1379086e-21
1.1378928e-21
1.1379391e-21
1.138066e-21
1.1383105e-21
1.1400544e-21
1.1391151e-21
1.1385923e-21
1.1382869e-21
1.1381163e-21
1.1380348e-21
1.1380193e-21
1.138066e-21
1.1381931e-21
1.1384379e-21
1.1402713e-21
1.1393492e-21
1.1388325e-21
1.1385294e-21
1.1383598e-21
1.1382789e-21
1.1382637e-21
1.1383105e-21
1.1384379e-21
1.1386834e-21
3.7287132e-21
3.7257162e-21
3.7239871e-21
3.7229693e-21
3.7223954e-21
3.7221126e-21
3.7220404e-21
3.7221593e-21
3.7225196e-21
3.7232465e-21
3.7257162e-21
3.7227301e-21
3.721005e-21
3.7199892e-21
3.7194168e-21
3.719136e-21
3.7190674e-21
3.7191942e-21
3.7195744e-21
3.7203579e-21
3.7239871e-21
3.721005e-21
3.7192826e-21
3.7182688e-21
3.7176983e-21
3.7174202e-21
3.717356e-21
3.7174909e-21
3.7178851e-21
3.7186883e-21
3.7229693e-21
3.7199892e-21
3.7182688e-21
3.7172569e-21
3.7166884e-21
3.7164128e-21
3.7163525e-21
3.7164933e-21
3.7168955e-21
3.7177063e-21
3.7223954e-21
3.7194168e-21
3.7176983e-21
3.7166884e-21
3.7161219e-21
3.7158486e-21
3.7157913e-21
3.7159358e-21
3.7163423e-21
3.7171565e-21
3.7221126e-21
3.719136e-21
3.7174202e-21
3.7164128e-21
3.7158486e-21
3.7155775e-21
3.7155223e-21
3.7156693e-21
3.7160781e-21
3.7168939e-21
3.7220404e-21
3.7190674e-21
3.717356e-21
3.7163525e-21
3.7157913e-21
3.7155223e-21
3.715469e-21
3.7156176e-21
3.7160278e-21
3.7168444e-21
3.7221593e-21
3.7191942e-21
3.7174909e-21
3.7164933e-21
3.7159358e-21
3.7156693e-21
3.7156176e-21
3.7157673e-21
3.7161784e-21
3.7169957e-21
3.7225196e-21
3.7195744e-21
3.7178851e-21
3.7168955e-21
3.7163423e-21
3.7160781e-21
3.7160278e-21
3.7161784e-21
3.7165904e-21
3.7174086e-21
3.7232465e-21
3.7203579e-21
3.7186883e-21
3.7177063e-21
3.7171565e-21
3.7168939e-21
3.7168444e-21
3.7169957e-21
3.7174086e-21
3.7182292e-21
7.3199707e-21
7.3142853e-21
7.3109512e-21
7.3089823e-21
7.3078704e-21
7.3073219e-21
7.307181e-21
7.3074091e-21
7.3081036e-21
7.3095507e-21
7.3142853e-21
7.3086203e-21
7.3052937e-21
7.3033287e-21
7.3022197e-21
7.3016751e-21
7.3015412e-21
7.3017848e-21
7.3025181e-21
7.3040765e-21
7.3109512e-21
7.3052937e-21
7.3019724e-21
7.3000112e-21
7.298906e-21
7.2983665e-21
7.2982414e-21
7.2985007e-21
7.2992615e-21
7.3008582e-21
7.3089823e-21
7.3033287e-21
7.3000112e-21
7.2980535e-21
7.2969522e-21
7.2964178e-21
7.2963002e-21
7.296571e-21
7.2973473e-21
7.2989591e-21
7.3078704e-21
7.3022197e-21
7.298906e-21
7.2969522e-21
7.2958548e-21
7.2953249e-21
7.295213e-21
7.2954912e-21
7.296276e-21
7.2978943e-21
7.3073219e-21
7.3016751e-21
7.2983665e-21
7.2964178e-21
7.2953249e-21
7.2947992e-21
7.2946916e-21
7.2949745e-21
7.2957638e-21
7.2973852e-21
7.307181e-21
7.3015412e-21
7.2982414e-21
7.2963002e-21
7.295213e-21
7.2946916e-21
7.2945875e-21
7.2948735e-21
7.2956656e-21
7.2972886e-21
7.3074091e-21
7.3017848e-21
7.2985007e-21
7.296571e-21
7.2954912e-21
7.2949745e-21
7.2948735e-21
7.2951618e-21
7.2959557e-21
7.2975799e-21
7.3081036e-21
7.3025181e-21
7.2992615e-21
7.2973473e-21
7.296276e-21
7.2957638e-21
7.2956656e-21
7.2959557e-21
7.2967512e-21
7.2983773e-21
7.3095507e-21
7.3040765e-21
7.3008582e-21
7.2989591e-21
7.2978943e-21
7.2973852e-21
7.2972886e-21
7.2975799e-21
7.2983773e-21
7.3000081e-21
1.2924538e-20
1.2914834e-20
1.2909083e-20
1.2905675e-20
1.2903747e-20
1.2902794e-20
1.2902547e-20
1.2902937e-20
1.290413e-20
1.2906646e-20
1.2914834e-20
1.2905164e-20
1.2899426e-20
1.2896024e-20
1.2894101e-20
1.2893156e-20
1.2892921e-20
1.2893338e-20
1.2894599e-20
1.2897311e-20
1.2909083e-20
1.2899426e-20
1.2893696e-20
1.2890302e-20
1.2888385e-20
1.2887449e-20
1.2887229e-20
1.2887674e-20
1.2888983e-20
1.2891763e-20
1.2905675e-20
1.2896024e-20
1.2890302e-20
1.2886913e-20
1.2885004e-20
1.2884076e-20
1.288387e-20
1.2884335e-20
1.2885671e-20
1.2888477e-20
1.2903747e-20
1.2894101e-20
1.2888385e-20
1.2885004e-20
1.2883101e-20
1.2882181e-20
1.2881985e-20
1.2882463e-20
1.2883814e-20
1.2886631e-20
1.2902794e-20
1.2893156e-20
1.2887449e-20
1.2884076e-20
1.2882181e-20
1.2881268e-20
1.288108e-20
1.2881566e-20
1.2882925e-20
1.2885748e-20
1.2902547e-20
1.2892921e-20
1.2887229e-20
1.288387e-20
1.2881985e-20
1.288108e-20
1.2880898e-20
1.2881389e-20
1.2882753e-20
1.2885579e-20
1.2902937e-20
1.2893338e-20
1.2887674e-20
1.2884335e-20
1.2882463e-20
1.2881566e-20
1.2881389e-20
1.2881885e-20
1.2883252e-20
1.288608e-20
1.290413e-20
1.2894599e-20
1.2888983e-20
1.2885671e-20
1.2883814e-20
1.2882925e-20
1.2882753e-20
1.2883252e-20
1.2884621e-20
1.2887452e-20
1.2906646e-20
1.2897311e-20
1.2891763e-20
1.2888477e-20
1.2886631e-20
1.2885748e-20
1.2885579e-20
1.288608e-20
1.2887452e-20
1.2890292e-20
2.2198192e-20
2.2182084e-20
2.2172467e-20
2.2166749e-20
2.2163508e-20
2.2161903e-20
2.2161484e-20
2.2162129e-20
2.2164105e-20
2.2168286e-20
2.2182084e-20
2.2166032e-20
2.2156437e-20
2.215073e-20
2.2147497e-20
2.2145904e-20
2.2145505e-20
2.2146197e-20
2.214829e-20
2.2152806e-20
2.2172467e-20
2.2156437e-20
2.2146857e-20
2.2141161e-20
2.2137939e-20
2.2136361e-20
2.2135989e-20
2.2136727e-20
2.2138902e-20
2.2143534e-20
2.2166749e-20
2.215073e-20
2.2141161e-20
2.2135475e-20
2.2132265e-20
2.2130702e-20
2.2130352e-20
2.2131125e-20
2.2133347e-20
2.2138023e-20
2.2163508e-20
2.2147497e-20
2.2137939e-20
2.2132265e-20
2.2129066e-20
2.2127517e-20
2.2127184e-20
2.2127979e-20
2.2130226e-20
2.2134922e-20
2.2161903e-20
2.2145904e-20
2.2136361e-20
2.2130702e-20
2.2127517e-20
2.212598e-20
2.212566e-20
2.2126469e-20
2.212873e-20
2.2133434e-20
2.2161484e-20
2.2145505e-20
2.2135989e-20
2.2130352e-20
2.2127184e-20
2.212566e-20
2.212535e-20
2.2126168e-20
2.2128437e-20
2.2133147e-20
2.2162129e-20
2.2146197e-20
2.2136727e-20
2.2131125e-20
2.2127979e-20
2.2126469e-20
2.2126168e-20
2.2126993e-20
2.2129267e-20
2.2133981e-20
2.2164105e-20
2.214829e-20
2.2138902e-20
2.2133347e-20
2.2130226e-20
2.212873e-20
2.2128437e-20
2.2129267e-20
2.2131546e-20
2.2136265e-20
2.2168286e-20
2.2152806e-20
2.2143534e-20
2.2138023e-20
2.2134922e-20
2.2133434e-20
2.2133147e-20
2.2133981e-20
2.2136265e-20
2.2140998e-20
3.799057e-20
3.7963939e-20
3.7947948e-20
3.7938407e-20
3.7932988e-20
3.7930301e-20
3.792959e-20
3.7930649e-20
3.7933899e-20
3.7940754e-20
3.7963939e-20
3.7937401e-20
3.7921445e-20
3.7911922e-20
3.7906517e-20
3.7903849e-20
3.7903174e-20
3.7904311e-20
3.790776e-20
3.7915185e-20
3.7947948e-20
3.7921445e-20
3.7905513e-20
3.7896009e-20
3.7890623e-20
3.788798e-20
3.788735e-20
3.7888567e-20
3.7892155e-20
3.7899776e-20
3.7938407e-20
3.7911922e-20
3.7896009e-20
3.7886523e-20
3.7881156e-20
3.7878539e-20
3.7877947e-20
3.7879222e-20
3.7882889e-20
3.7890587e-20
3.7932988e-20
3.7906517e-20
3.7890623e-20
3.7881156e-20
3.7875808e-20
3.7873214e-20
3.7872651e-20
3.7873963e-20
3.7877674e-20
3.7885404e-20
3.7930301e-20
3.7903849e-20
3.788798e-20
3.7878539e-20
3.7873214e-20
3.7870641e-20
3.7870099e-20
3.7871435e-20
3.7875169e-20
3.7882915e-20
3.792959e-20
3.7903174e-20
3.788735e-20
3.7877947e-20
3.7872651e-20
3.7870099e-20
3.7869575e-20
3.7870927e-20
3.7874674e-20
3.7882429e-20
3.7930649e-20
3.7904311e-20
3.7888567e-20
3.7879222e-20
3.7873963e-20
3.7871435e-20
3.7870927e-20
3.7872291e-20
3.7876047e-20
3.7883808e-20
3.7933899e-20
3.790776e-20
3.7892155e-20
3.7882889e-20
3.7877674e-20
3.7875169e-20
3.7874674e-20
3.7876047e-20
3.7879811e-20
3.7887581e-20
3.7940754e-20
3.7915185e-20
3.7899776e-20
3.7890587e-20
3.7885404e-20
3.7882915e-20
3.7882429e-20
3.7883808e-20
3.7887581e-20
3.7895373e-20
6.5326525e-20
6.5282307e-20
6.525562e-20
6.5239647e-20
6.5230554e-20
6.5226037e-20
6.5224831e-20
6.5226572e-20
6.5231929e-20
6.5243165e-20
6.5282307e-20
6.5238242e-20
6.5211612e-20
6.5195669e-20
6.5186601e-20
6.5182116e-20
6.518097e-20
6.5182845e-20
6.5188542e-20
6.5200752e-20
6.525562e-20
6.5211612e-20
6.5185024e-20
6.5169112e-20
6.5160075e-20
6.5155634e-20
6.5154563e-20
6.5156575e-20
6.5162509e-20
6.5175055e-20
6.5239647e-20
6.5195669e-20
6.5169112e-20
6.515323e-20
6.5144225e-20
6.5139828e-20
6.5138822e-20
6.5140933e-20
6.5147002e-20
6.5159678e-20
6.5230554e-20
6.5186601e-20
6.5160075e-20
6.5144225e-20
6.5135254e-20
6.5130895e-20
6.5129939e-20
6.5132113e-20
6.5138255e-20
6.5150988e-20
6.5226037e-20
6.5182116e-20
6.5155634e-20
6.5139828e-20
6.5130895e-20
6.5126571e-20
6.5125652e-20
6.5127867e-20
6.5134048e-20
6.5146808e-20
6.5224831e-20
6.518097e-20
6.5154563e-20
6.5138822e-20
6.5129939e-20
6.5125652e-20
6.5124763e-20
6.5127005e-20
6.5133209e-20
6.5145983e-20
6.5226572e-20
6.5182845e-20
6.5156575e-20
6.5140933e-20
6.5132113e-20
6.5127867e-20
6.5127005e-20
6.5129266e-20
6.5135486e-20
6.514827e-20
6.5231929e-20
6.5188542e-20
6.5162509e-20
6.5147002e-20
6.5138255e-20
6.5134048e-20
6.5133209e-20
6.5135486e-20
6.5141719e-20
6.5154517e-20
6.5243165e-20
6.5200752e-20
6.5175055e-20
6.5159678e-20
6.5150988e-20
6.5146808e-20
6.5145983e-20
6.514827e-20
6.5154517e-20
6.5167353e-20
1.1319712e-19
1.1312317e-19
1.1307832e-19
1.130514e-19
1.1303604e-19
1.1302839e-19
1.1302633e-19
1.1302921e-19
1.130381e-19
1.1305661e-19
1.1312317e-19
1.1304947e-19
1.1300472e-19
1.1297784e-19
1.1296252e-19
1.1295493e-19
1.1295297e-19
1.1295609e-19
1.1296556e-19
1.1298575e-19
1.1307832e-19
1.1300472e-19
1.1296004e-19
1.1293321e-19
1.1291795e-19
1.1291043e-19
1.129086e-19
1.1291195e-19
1.1292183e-19
1.129426e-19
1.130514e-19
1.1297784e-19
1.1293321e-19
1.1290644e-19
1.1289123e-19
1.1288379e-19
1.1288207e-19
1.1288559e-19
1.128957e-19
1.1291669e-19
1.1303604e-19
1.1296252e-19
1.1291795e-19
1.1289123e-19
1.1287608e-19
1.128687e-19
1.1286707e-19
1.128707e-19
1.1288093e-19
1.1290202e-19
1.1302839e-19
1.1295493e-19
1.1291043e-19
1.1288379e-19
1.128687e-19
1.1286139e-19
1.1285982e-19
1.1286351e-19
1.1287382e-19
1.1289495e-19
1.1302633e-19
1.1295297e-19
1.129086e-19
1.1288207e-19
1.1286707e-19
1.1285982e-19
1.128583e-19
1.1286204e-19
1.1287238e-19
1.1289354e-19
1.1302921e-19
1.1295609e-19
1.1291195e-19
1.1288559e-19
1.128707e-19
1.1286351e-19
1.1286204e-19
1.1286582e-19
1.1287618e-19
1.1289736e-19
1.130381e-19
1.1296556e-19
1.1292183e-19
1.128957e-19
1.1288093e-19
1.1287382e-19
1.1287238e-19
1.1287618e-19
1.1288657e-19
1.1290778e-19
1.1305661e-19
1.1298575e-19
1.129426e-19
1.1291669e-19
1.1290202e-19
1.1289495e-19
1.1289354e-19
1.1289736e-19
1.1290778e-19
1.1292904e-19
1.9786654e-19
1.9774182e-19
1.9766585e-19
1.9762009e-19
1.9759393e-19
1.9758089e-19
1.9757734e-19
1.9758215e-19
1.97597e-19
1.9762775e-19
1.9774182e-19
1.9761753e-19
1.9754172e-19
1.9749604e-19
1.9746996e-19
1.9745701e-19
1.9745364e-19
1.9745885e-19
1.9747471e-19
1.9750837e-19
1.9766585e-19
1.9754172e-19
1.9746602e-19
1.9742044e-19
1.9739444e-19
1.9738162e-19
1.9737847e-19
1.9738409e-19
1.9740066e-19
1.9743531e-19
1.9762009e-19
1.9749604e-19
1.9742044e-19
1.9737494e-19
1.9734904e-19
1.9733635e-19
1.9733339e-19
1.973393e-19
1.9735627e-19
1.9739132e-19
1.9759393e-19
1.9746996e-19
1.9739444e-19
1.9734904e-19
1.9732324e-19
1.9731066e-19
1.9730785e-19
1.9731395e-19
1.9733114e-19
1.9736635e-19
1.9758089e-19
1.9745701e-19
1.9738162e-19
1.9733635e-19
1.9731066e-19
1.9729819e-19
1.9729549e-19
1.973017e-19
1.9731901e-19
1.973543e-19
1.9757734e-19
1.9745364e-19
1.9737847e-19
1.9733339e-19
1.9730785e-19
1.9729549e-19
1.9729287e-19
1.9729917e-19
1.9731655e-19
1.9735188e-19
1.9758215e-19
1.9745885e-19
1.9738409e-19
1.973393e-19
1.9731395e-19
1.973017e-19
1.9729917e-19
1.9730553e-19
1.9732295e-19
1.9735831e-19
1.97597e-19
1.9747471e-19
1.9740066e-19
1.9735627e-19
1.9733114e-19
1.9731901e-19
1.9731655e-19
1.9732295e-19
1.973404e-19
1.9737581e-19
1.9762775e-19
1.9750837e-19
1.9743531e-19
1.9739132e-19
1.9736635e-19
1.973543e-19
1.9735188e-19
1.9735831e-19
1.9737581e-19
1.9741131e-19
3.4903738e-19
3.4882521e-19
3.4869539e-19
3.4861696e-19
3.4857204e-19
3.4854959e-19
3.4854343e-19
3.4855153e-19
3.4857658e-19
3.4862805e-19
3.4882521e-19
3.4861377e-19
3.4848422e-19
3.4840593e-19
3.4836113e-19
3.4833885e-19
3.48333e-19
3.483418e-19
3.4836861e-19
3.4842518e-19
3.4869539e-19
3.4848422e-19
3.4835486e-19
3.4827673e-19
3.4823208e-19
3.4821003e-19
3.4820457e-19
3.4821408e-19
3.4824212e-19
3.4830044e-19
3.4861696e-19
3.4840593e-19
3.4827673e-19
3.4819875e-19
3.4815427e-19
3.4813244e-19
3.4812731e-19
3.4813733e-19
3.4816608e-19
3.4822508e-19
3.4857204e-19
3.4836113e-19
3.4823208e-19
3.4815427e-19
3.4810996e-19
3.4808833e-19
3.4808345e-19
3.480938e-19
3.4812293e-19
3.4818222e-19
3.4854959e-19
3.4833885e-19
3.4821003e-19
3.4813244e-19
3.4808833e-19
3.4806688e-19
3.4806219e-19
3.4807275e-19
3.4810208e-19
3.4816152e-19
3.4854343e-19
3.48333e-19
3.4820457e-19
3.4812731e-19
3.4808345e-19
3.4806219e-19
3.4805766e-19
3.4806836e-19
3.4809781e-19
3.4815732e-19
3.4855153e-19
3.483418e-19
3.4821408e-19
3.4813733e-19
3.480938e-19
3.4807275e-19
3.4806836e-19
3.4807916e-19
3.4810869e-19
3.4816825e-19
3.4857658e-19
3.4836861e-19
3.4824212e-19
3.4816608e-19
3.4812293e-19
3.4810208e-19
3.4809781e-19
3.4810869e-19
3.4813828e-19
3.481979e-19
3.4862805e-19
3.4842518e-19
3.4830044e-19
3.4822508e-19
3.4818222e-19
3.4816152e-19
3.4815732e-19
3.4816825e-19
3.481979e-19
3.482577e-19
6.2144826e-19
6.2108414e-19
6.2086033e-19
6.2072473e-19
6.2064689e-19
6.2060794e-19
6.2059715e-19
6.2061092e-19
6.2065352e-19
6.2074047e-19
6.2108414e-19
6.2072123e-19
6.204979e-19
6.2036254e-19
6.2028491e-19
6.2024624e-19
6.20236e-19
6.20251e-19
6.2029673e-19
6.2039267e-19
6.2086033e-19
6.204979e-19
6.202749e-19
6.2013981e-19
6.2006246e-19
6.2002419e-19
6.2001463e-19
6.2003087e-19
6.2007877e-19
6.2017781e-19
6.2072473e-19
6.2036254e-19
6.2013981e-19
6.2000498e-19
6.1992792e-19
6.1989003e-19
6.1988107e-19
6.1989822e-19
6.1994735e-19
6.2004758e-19
6.2064689e-19
6.2028491e-19
6.2006246e-19
6.1992792e-19
6.1985116e-19
6.1981362e-19
6.198051e-19
6.1982283e-19
6.1987263e-19
6.1997338e-19
6.2060794e-19
6.2024624e-19
6.2002419e-19
6.1989003e-19
6.1981362e-19
6.1977641e-19
6.1976823e-19
6.1978632e-19
6.1983648e-19
6.1993748e-19
6.2059715e-19
6.20236e-19
6.2001463e-19
6.1988107e-19
6.198051e-19
6.1976823e-19
6.1976031e-19
6.1977865e-19
6.1982902e-19
6.1993014e-19
6.2061092e-19
6.20251e-19
6.2003087e-19
6.1989822e-19
6.1982283e-19
6.1978632e-19
6.1977865e-19
6.1979717e-19
6.1984767e-19
6.1994889e-19
6.2065352e-19
6.2029673e-19
6.2007877e-19
6.1994735e-19
6.1987263e-19
6.1983648e-19
6.1982902e-19
6.1984767e-19
6.1989829e-19
6.1999962e-19
6.2074047e-19
6.2039267e-19
6.2017781e-19
6.2004758e-19
6.1997338e-19
6.1993748e-19
6.1993014e-19
6.1994889e-19
6.1999962e-19
6.2010124e-19
1.1168805e-18
1.11625e-18
1.1158607e-18
1.1156242e-18
1.1154881e-18
1.1154199e-18
1.1154009e-18
1.1154245e-18
1.1154976e-18
1.1156458e-18
1.11625e-18
1.1156215e-18
1.1152331e-18
1.114997e-18
1.1148613e-18
1.1147936e-18
1.1147755e-18
1.1148013e-18
1.11488e-18
1.1150442e-18
1.1158607e-18
1.1152331e-18
1.1148452e-18
1.1146096e-18
1.1144744e-18
1.1144074e-18
1.1143905e-18
1.1144186e-18
1.1145011e-18
1.1146708e-18
1.1156242e-18
1.114997e-18
1.1146096e-18
1.1143744e-18
1.1142397e-18
1.1141734e-18
1.1141576e-18
1.1141872e-18
1.114272e-18
1.1144438e-18
1.1154881e-18
1.1148613e-18
1.1144744e-18
1.1142397e-18
1.1141056e-18
1.1140399e-18
1.1140249e-18
1.1140555e-18
1.1141414e-18
1.1143142e-18
1.1154199e-18
1.1147936e-18
1.1144074e-18
1.1141734e-18
1.1140399e-18
1.1139748e-18
1.1139603e-18
1.1139916e-18
1.1140782e-18
1.1142514e-18
1.1154009e-18
1.1147755e-18
1.1143905e-18
1.1141576e-18
1.1140249e-18
1.1139603e-18
1.1139464e-18
1.1139781e-18
1.1140651e-18
1.1142385e-18
1.1154245e-18
1.1148013e-18
1.1144186e-18
1.1141872e-18
1.1140555e-18
1.1139916e-18
1.1139781e-18
1.1140102e-18
1.1140974e-18
1.114271e-18
1.1154976e-18
1.11488e-18
1.1145011e-18
1.114272e-18
1.1141414e-18
1.1140782e-18
1.1140651e-18
1.1140974e-18
1.1141847e-18
1.1143585e-18
1.1156458e-18
1.1150442e-18
1.1146708e-18
1.1144438e-18
1.1143142e-18
1.1142514e-18
1.1142385e-18
1.114271e-18
1.1143585e-18
1.1145328e-18
2.0262761e-18
2.0251744e-18
2.0244914e-18
2.0240751e-18
2.0238352e-18
2.0237147e-18
2.0236808e-18
2.0237217e-18
2.0238484e-18
2.0241032e-18
2.0251744e-18
2.0240764e-18
2.0233948e-18
2.0229792e-18
2.0227399e-18
2.0226204e-18
2.0225882e-18
2.022633e-18
2.0227697e-18
2.0230534e-18
2.0244914e-18
2.0233948e-18
2.0227142e-18
2.0222994e-18
2.022061e-18
2.0219427e-18
2.0219127e-18
2.0219615e-18
2.0221051e-18
2.0223987e-18
2.0240751e-18
2.0229792e-18
2.0222994e-18
2.0218855e-18
2.021648e-18
2.0215309e-18
2.0215028e-18
2.0215545e-18
2.021702e-18
2.0219994e-18
2.0238352e-18
2.0227399e-18
2.022061e-18
2.021648e-18
2.0214115e-18
2.0212955e-18
2.0212688e-18
2.0213223e-18
2.021472e-18
2.021771e-18
2.0237147e-18
2.0226204e-18
2.0219427e-18
2.0215309e-18
2.0212955e-18
2.0211806e-18
2.021155e-18
2.0212096e-18
2.0213604e-18
2.0216603e-18
2.0236808e-18
2.0225882e-18
2.0219127e-18
2.0215028e-18
2.0212688e-18
2.021155e-18
2.0211302e-18
2.0211856e-18
2.0213371e-18
2.0216373e-18
2.0237217e-18
2.022633e-18
2.0219615e-18
2.0215545e-18
2.0213223e-18
2.0212096e-18
2.0211856e-18
2.0212416e-18
2.0213935e-18
2.021694e-18
2.0238484e-18
2.0227697e-18
2.0221051e-18
2.021702e-18
2.021472e-18
2.0213604e-18
2.0213371e-18
2.0213935e-18
2.0215458e-18
2.0218466e-18
2.0241032e-18
2.0230534e-18
2.0223987e-18
2.0219994e-18
2.021771e-18
2.0216603e-18
2.0216373e-18
2.021694e-18
2.0218466e-18
2.0221483e-18
3.7110397e-18
3.7090975e-18
3.7078882e-18
3.707149e-18
3.7067222e-18
3.7065076e-18
3.7064467e-18
3.7065182e-18
3.7067397e-18
3.7071819e-18
3.7090975e-18
3.7071617e-18
3.7059548e-18
3.705217e-18
3.7047913e-18
3.7045783e-18
3.7045206e-18
3.7045991e-18
3.7048387e-18
3.7053333e-18
3.7078882e-18
3.7059548e-18
3.7047498e-18
3.7040134e-18
3.7035893e-18
3.7033785e-18
3.7033247e-18
3.7034105e-18
3.7036626e-18
3.7041751e-18
3.707149e-18
3.705217e-18
3.7040134e-18
3.7032784e-18
3.702856e-18
3.7026474e-18
3.7025971e-18
3.702688e-18
3.7029473e-18
3.7034667e-18
3.7067222e-18
3.7047913e-18
3.7035893e-18
3.702856e-18
3.7024352e-18
3.7022287e-18
3.7021809e-18
3.7022751e-18
3.7025383e-18
3.7030607e-18
3.7065076e-18
3.7045783e-18
3.7033785e-18
3.7026474e-18
3.7022287e-18
3.702024e-18
3.7019781e-18
3.7020745e-18
3.7023397e-18
3.7028635e-18
3.7064467e-18
3.7045206e-18
3.7033247e-18
3.7025971e-18
3.7021809e-18
3.7019781e-18
3.7019338e-18
3.7020315e-18
3.7022979e-18
3.7028225e-18
3.7065182e-18
3.7045991e-18
3.7034105e-18
3.702688e-18
3.7022751e-18
3.7020745e-18
3.7020315e-18
3.7021303e-18
3.7023974e-18
3.7029225e-18
3.7067397e-18
3.7048387e-18
3.7036626e-18
3.7029473e-18
3.7025383e-18
3.7023397e-18
3.7022979e-18
3.7023974e-18
3.7026652e-18
3.7031909e-18
3.7071819e-18
3.7053333e-18
3.7041751e-18
3.7034667e-18
3.7030607e-18
3.7028635e-18
3.7028225e-18
3.7029225e-18
3.7031909e-18
3.703718e-18
6.8613262e-18
6.8578712e-18
6.855711e-18
6.8543868e-18
6.8536207e-18
6.8532348e-18
6.8531247e-18
6.8532507e-18
6.8536416e-18
6.8544162e-18
6.8578712e-18
6.8544276e-18
6.8522717e-18
6.8509498e-18
6.8501858e-18
6.8498029e-18
6.8496985e-18
6.8498375e-18
6.8502614e-18
6.8511317e-18
6.855711e-18
6.8522717e-18
6.850119e-18
6.8487997e-18
6.8480386e-18
6.8476597e-18
6.8475625e-18
6.8477146e-18
6.8481616e-18
6.8490645e-18
6.8543868e-18
6.8509498e-18
6.8487997e-18
6.8474831e-18
6.8467249e-18
6.8463502e-18
6.8462591e-18
6.8464207e-18
6.8468806e-18
6.8477963e-18
6.8536207e-18
6.8501858e-18
6.8480386e-18
6.8467249e-18
6.8459698e-18
6.8455987e-18
6.8455124e-18
6.84568e-18
6.846147e-18
6.8470681e-18
6.8532348e-18
6.8498029e-18
6.8476597e-18
6.8463502e-18
6.8455987e-18
6.845231e-18
6.8451482e-18
6.8453196e-18
6.8457903e-18
6.8467141e-18
6.8531247e-18
6.8496985e-18
6.8475625e-18
6.8462591e-18
6.8455124e-18
6.8451482e-18
6.8450682e-18
6.8452422e-18
6.8457151e-18
6.8466402e-18
6.8532507e-18
6.8498375e-18
6.8477146e-18
6.8464207e-18
6.84568e-18
6.8453196e-18
6.8452422e-18
6.845418e-18
6.8458923e-18
6.8468183e-18
6.8536416e-18
6.8502614e-18
6.8481616e-18
6.8468806e-18
6.846147e-18
6.8457903e-18
6.8457151e-18
6.8458923e-18
6.8463678e-18
6.8472948e-18
6.8544162e-18
6.8511317e-18
6.8490645e-18
6.8477963e-18
6.8470681e-18
6.8467141e-18
6.8466402e-18
6.8468183e-18
6.8472948e-18
6.8482244e-18
1.2806854e-17
1.2800653e-17
1.2796759e-17
1.2794366e-17
1.2792979e-17
1.2792279e-17
1.2792078e-17
1.2792302e-17
1.2792999e-17
1.2794368e-17
1.2800653e-17
1.2794472e-17
1.2790586e-17
1.2788197e-17
1.2786813e-17
1.2786119e-17
1.2785929e-17
1.2786177e-17
1.2786934e-17
1.278848e-17
1.2796759e-17
1.2790586e-17
1.2786706e-17
1.2784321e-17
1.2782943e-17
1.2782256e-17
1.2782079e-17
1.2782351e-17
1.2783151e-17
1.2784757e-17
1.2794366e-17
1.2788197e-17
1.2784321e-17
1.2781942e-17
1.2780569e-17
1.277989e-17
1.2779724e-17
1.2780013e-17
1.2780837e-17
1.2782467e-17
1.2792979e-17
1.2786813e-17
1.2782943e-17
1.2780569e-17
1.2779202e-17
1.2778529e-17
1.2778372e-17
1.2778673e-17
1.2779509e-17
1.2781149e-17
1.2792279e-17
1.2786119e-17
1.2782256e-17
1.277989e-17
1.2778529e-17
1.2777863e-17
1.2777712e-17
1.277802e-17
1.2778863e-17
1.2780508e-17
1.2792078e-17
1.2785929e-17
1.2782079e-17
1.2779724e-17
1.2778372e-17
1.2777712e-17
1.2777566e-17
1.2777879e-17
1.2778727e-17
1.2780373e-17
1.2792302e-17
1.2786177e-17
1.2782351e-17
1.2780013e-17
1.2778673e-17
1.277802e-17
1.2777879e-17
1.2778195e-17
1.2779045e-17
1.2780694e-17
1.2792999e-17
1.2786934e-17
1.2783151e-17
1.2780837e-17
1.2779509e-17
1.2778863e-17
1.2778727e-17
1.2779045e-17
1.2779897e-17
1.2781548e-17
1.2794368e-17
1.278848e-17
1.2784757e-17
1.2782467e-17
1.2781149e-17
1.2780508e-17
1.2780373e-17
1.2780694e-17
1.2781548e-17
1.2783202e-17
2.4132444e-17
2.4121212e-17
2.4114132e-17
2.4109767e-17
2.4107233e-17
2.4105953e-17
2.4105583e-17
2.4105986e-17
2.4107238e-17
2.410968e-17
2.4121212e-17
2.4110017e-17
2.4102951e-17
2.4098594e-17
2.4096066e-17
2.4094796e-17
2.4094446e-17
2.4094894e-17
2.4096259e-17
2.409903e-17
2.4114132e-17
2.4102951e-17
2.4095895e-17
2.4091546e-17
2.4089028e-17
2.4087772e-17
2.4087447e-17
2.4087939e-17
2.4089383e-17
2.4092266e-17
2.4109767e-17
2.4098594e-17
2.4091546e-17
2.4087207e-17
2.4084699e-17
2.4083457e-17
2.4083152e-17
2.4083677e-17
2.4085166e-17
2.4088093e-17
2.4107233e-17
2.4096066e-17
2.4089028e-17
2.4084699e-17
2.4082202e-17
2.4080972e-17
2.4080683e-17
2.4081229e-17
2.4082742e-17
2.4085687e-17
2.4105953e-17
2.4094796e-17
2.4087772e-17
2.4083457e-17
2.4080972e-17
2.4079754e-17
2.4079477e-17
2.4080036e-17
2.4081561e-17
2.4084516e-17
2.4105583e-17
2.4094446e-17
2.4087447e-17
2.4083152e-17
2.4080683e-17
2.4079477e-17
2.407921e-17
2.4079778e-17
2.408131e-17
2.408427e-17
2.4105986e-17
2.4094894e-17
2.4087939e-17
2.4083677e-17
2.4081229e-17
2.4080036e-17
2.4079778e-17
2.4080351e-17
2.4081889e-17
2.4084851e-17
2.4107238e-17
2.4096259e-17
2.4089383e-17
2.4085166e-17
2.4082742e-17
2.4081561e-17
2.408131e-17
2.4081889e-17
2.408343e-17
2.4086396e-17
2.410968e-17
2.409903e-17
2.4092266e-17
2.4088093e-17
2.4085687e-17
2.4084516e-17
2.408427e-17
2.4084851e-17
2.4086396e-17
2.4089369e-17
4.5907417e-17
4.5886893e-17
4.5873902e-17
4.5865872e-17
4.5861202e-17
4.5858839e-17
4.5858153e-17
4.5858885e-17
4.5861156e-17
4.5865552e-17
4.5886893e-17
4.5866436e-17
4.585347e-17
4.5845454e-17
4.5840796e-17
4.5838452e-17
4.5837803e-17
4.5838618e-17
4.5841102e-17
4.5846117e-17
4.5873902e-17
4.585347e-17
4.5840524e-17
4.5832524e-17
4.5827883e-17
4.5825566e-17
4.5824962e-17
4.5825861e-17
4.5828493e-17
4.5833719e-17
4.5865872e-17
4.5845454e-17
4.5832524e-17
4.582454e-17
4.5819919e-17
4.5817627e-17
4.5817063e-17
4.5818023e-17
4.5820738e-17
4.5826046e-17
4.5861202e-17
4.5840796e-17
4.5827883e-17
4.5819919e-17
4.5815317e-17
4.5813048e-17
4.5812515e-17
4.5813514e-17
4.5816274e-17
4.5821617e-17
4.5858839e-17
4.5838452e-17
4.5825566e-17
4.5817627e-17
4.5813048e-17
4.5810801e-17
4.581029e-17
4.5811313e-17
4.5814098e-17
4.5819457e-17
4.5858153e-17
4.5837803e-17
4.5824962e-17
4.5817063e-17
4.5812515e-17
4.581029e-17
4.5809797e-17
4.5810837e-17
4.5813635e-17
4.5819003e-17
4.5858885e-17
4.5838618e-17
4.5825861e-17
4.5818023e-17
4.5813514e-17
4.5811313e-17
4.5810837e-17
4.5811888e-17
4.5814695e-17
4.5820069e-17
4.5861156e-17
4.5841102e-17
4.5828493e-17
4.5820738e-17
4.5816274e-17
4.5814098e-17
4.5813635e-17
4.5814695e-17
4.581751e-17
4.5822889e-17
4.5865552e-17
4.5846117e-17
4.5833719e-17
4.5826046e-17
4.5821617e-17
4.5819457e-17
4.5819003e-17
4.5820069e-17
4.5822889e-17
4.5828283e-17
8.8161921e-17
8.8124081e-17
8.8100034e-17
8.808513e-17
8.8076446e-17
8.8072047e-17
8.8070764e-17
8.8072105e-17
8.8076263e-17
8.808425e-17
8.8124081e-17
8.8086363e-17
8.8062361e-17
8.8047483e-17
8.8038823e-17
8.803446e-17
8.8033246e-17
8.8034745e-17
8.8039307e-17
8.8048466e-17
8.8100034e-17
8.8062361e-17
8.8038396e-17
8.8023548e-17
8.8014921e-17
8.8010607e-17
8.800948e-17
8.8011138e-17
8.801598e-17
8.8025539e-17
8.808513e-17
8.8047483e-17
8.8023548e-17
8.800873e-17
8.8000138e-17
8.7995874e-17
8.7994822e-17
8.7996594e-17
8.8001595e-17
8.8011309e-17
8.8076446e-17
8.8038823e-17
8.8014921e-17
8.8000138e-17
8.7991584e-17
8.7987363e-17
8.7986368e-17
8.7988214e-17
8.79933e-17
8.8003081e-17
8.8072047e-17
8.803446e-17
8.8010607e-17
8.7995874e-17
8.7987363e-17
8.7983183e-17
8.798223e-17
8.7984123e-17
8.7989254e-17
8.7999066e-17
8.8070764e-17
8.8033246e-17
8.800948e-17
8.7994822e-17
8.7986368e-17
8.798223e-17
8.7981312e-17
8.7983235e-17
8.7988392e-17
8.7998221e-17
8.8072105e-17
8.8034745e-17
8.8011138e-17
8.7996594e-17
8.7988214e-17
8.7984123e-17
8.7983235e-17
8.798518e-17
8.7990355e-17
8.8000194e-17
8.8076263e-17
8.8039307e-17
8.801598e-17
8.8001595e-17
8.79933e-17
8.7989254e-17
8.7988392e-17
8.7990355e-17
8.7995542e-17
8.8005392e-17
8.808425e-17
8.8048466e-17
8.8025539e-17
8.8011309e-17
8.8003081e-17
8.7999066e-17
8.7998221e-17
8.8000194e-17
8.8005392e-17
8.8015268e-17
1.7091692e-16
1.7084653e-16
1.7080162e-16
1.7077372e-16
1.7075743e-16
1.7074917e-16
1.7074675e-16
1.7074923e-16
1.7075692e-16
1.7077156e-16
1.7084653e-16
1.7077637e-16
1.7073155e-16
1.7070369e-16
1.7068745e-16
1.7067925e-16
1.7067697e-16
1.7067975e-16
1.7068821e-16
1.7070509e-16
1.7080162e-16
1.7073155e-16
1.7068679e-16
1.7065899e-16
1.7064281e-16
1.7063471e-16
1.7063259e-16
1.7063568e-16
1.7064467e-16
1.7066232e-16
1.7077372e-16
1.7070369e-16
1.7065899e-16
1.7063125e-16
1.7061513e-16
1.7060713e-16
1.7060515e-16
1.7060845e-16
1.7061775e-16
1.706357e-16
1.7075743e-16
1.7068745e-16
1.7064281e-16
1.7061513e-16
1.7059909e-16
1.7059117e-16
1.705893e-16
1.7059275e-16
1.706022e-16
1.7062028e-16
1.7074917e-16
1.7067925e-16
1.7063471e-16
1.7060713e-16
1.7059117e-16
1.7058333e-16
1.7058154e-16
1.7058507e-16
1.7059462e-16
1.7061275e-16
1.7074675e-16
1.7067697e-16
1.7063259e-16
1.7060515e-16
1.705893e-16
1.7058154e-16
1.7057981e-16
1.7058341e-16
1.70593e-16
1.7061116e-16
1.7074923e-16
1.7067975e-16
1.7063568e-16
1.7060845e-16
1.7059275e-16
1.7058507e-16
1.7058341e-16
1.7058704e-16
1.7059667e-16
1.7061485e-16
1.7075692e-16
1.7068821e-16
1.7064467e-16
1.7061775e-16
1.706022e-16
1.7059462e-16
1.70593e-16
1.7059667e-16
1.7060632e-16
1.7062452e-16
1.7077156e-16
1.7070509e-16
1.7066232e-16
1.706357e-16
1.7062028e-16
1.7061275e-16
1.7061116e-16
1.7061485e-16
1.7062452e-16
1.7064277e-16
3.3448686e-16
3.3435478e-16
3.3427018e-16
3.3421747e-16
3.3418666e-16
3.3417102e-16
3.3416642e-16
3.3417105e-16
3.3418539e-16
3.3421248e-16
3.3435478e-16
3.3422311e-16
3.3413867e-16
3.3408606e-16
3.3405533e-16
3.3403981e-16
3.3403547e-16
3.3404068e-16
3.3405651e-16
3.3408793e-16
3.3427018e-16
3.3413867e-16
3.3405436e-16
3.3400185e-16
3.3397124e-16
3.3395591e-16
3.3395188e-16
3.3395768e-16
3.3397454e-16
3.3400743e-16
3.3421747e-16
3.3408606e-16
3.3400185e-16
3.3394945e-16
3.3391897e-16
3.3390382e-16
3.3390007e-16
3.3390629e-16
3.3392373e-16
3.3395719e-16
3.3418666e-16
3.3405533e-16
3.3397124e-16
3.3391897e-16
3.3388863e-16
3.3387364e-16
3.3387009e-16
3.3387658e-16
3.3389434e-16
3.3392805e-16
3.3417102e-16
3.3403981e-16
3.3395591e-16
3.3390382e-16
3.3387364e-16
3.3385879e-16
3.3385541e-16
3.3386207e-16
3.3387999e-16
3.3391381e-16
3.3416642e-16
3.3403547e-16
3.3395188e-16
3.3390007e-16
3.3387009e-16
3.3385541e-16
3.3385214e-16
3.3385892e-16
3.3387693e-16
3.3391082e-16
3.3417105e-16
3.3404068e-16
3.3395768e-16
3.3390629e-16
3.3387658e-16
3.3386207e-16
3.3385892e-16
3.3386577e-16
3.3388385e-16
3.3391777e-16
3.3418539e-16
3.3405651e-16
3.3397454e-16
3.3392373e-16
3.3389434e-16
3.3387999e-16
3.3387693e-16
3.3388385e-16
3.3390197e-16
3.3393593e-16
3.3421248e-16
3.3408793e-16
3.3400743e-16
3.3395719e-16
3.3392805e-16
3.3391381e-16