/*--------------------------------*- C++ -*----------------------------------*\
| =========                 |                                                 |
| \\      /  F ield         | OpenFOAM: The Open Source CFD Toolbox           |
|  \\    /   O peration     | Version:  dev                                   |
|   \\  /    A nd           | Web:      www.OpenFOAM.org                      |
|    \\/     M anipulation  |                                                 |
\*---------------------------------------------------------------------------*/
FoamFile
{
    version     2.0;
    format      ascii;
    class       volScalarField;
    location    "43.995";
    object      A;
}
// * * * * * * * * * * * * * * * * * * * * * * * * * * * * * * * * * * * * * //

dimensions      [0 0 0 0 1 0 0];

internalField   nonuniform List<scalar> 
10000
(
1.6066133e-35
1.6029429e-35
1.6018197e-35
1.601529e-35
1.6014642e-35
1.6014514e-35
1.6014544e-35
1.6014845e-35
1.6016136e-35
1.602035e-35
1.6029429e-35
1.5992944e-35
1.5981769e-35
1.5978875e-35
1.597823e-35
1.5978104e-35
1.5978142e-35
1.597848e-35
1.5979932e-35
1.5984766e-35
1.6018197e-35
1.5981769e-35
1.5970614e-35
1.5967726e-35
1.5967083e-35
1.5966958e-35
1.5967e-35
1.5967359e-35
1.5968881e-35
1.5973873e-35
1.601529e-35
1.5978875e-35
1.5967726e-35
1.596484e-35
1.5964197e-35
1.5964073e-35
1.5964117e-35
1.5964483e-35
1.5966025e-35
1.5971052e-35
1.6014642e-35
1.597823e-35
1.5967083e-35
1.5964197e-35
1.5963554e-35
1.5963431e-35
1.5963476e-35
1.5963843e-35
1.596539e-35
1.5970424e-35
1.6014514e-35
1.5978104e-35
1.5966958e-35
1.5964073e-35
1.5963431e-35
1.5963307e-35
1.5963352e-35
1.596372e-35
1.5965268e-35
1.5970303e-35
1.6014544e-35
1.5978142e-35
1.5967e-35
1.5964117e-35
1.5963476e-35
1.5963352e-35
1.5963397e-35
1.5963765e-35
1.5965314e-35
1.5970349e-35
1.6014845e-35
1.597848e-35
1.5967359e-35
1.5964483e-35
1.5963843e-35
1.596372e-35
1.5963765e-35
1.5964133e-35
1.5965682e-35
1.5970718e-35
1.6016136e-35
1.5979932e-35
1.5968881e-35
1.5966025e-35
1.596539e-35
1.5965268e-35
1.5965314e-35
1.5965682e-35
1.5967233e-35
1.5972273e-35
1.602035e-35
1.5984766e-35
1.5973873e-35
1.5971052e-35
1.5970424e-35
1.5970303e-35
1.5970349e-35
1.5970718e-35
1.5972273e-35
1.5977329e-35
5.9994356e-35
5.986264e-35
5.9821341e-35
5.9810629e-35
5.9808239e-35
5.9807767e-35
5.9807877e-35
5.9808979e-35
5.9813719e-35
5.9829927e-35
5.986264e-35
5.9731697e-35
5.9690603e-35
5.967994e-35
5.9677561e-35
5.9677096e-35
5.9677233e-35
5.9678472e-35
5.9683813e-35
5.9702344e-35
5.9821341e-35
5.9690603e-35
5.9649585e-35
5.9638942e-35
5.9636569e-35
5.9636109e-35
5.9636264e-35
5.9637579e-35
5.9643182e-35
5.9662301e-35
5.9810629e-35
5.967994e-35
5.9638942e-35
5.9628307e-35
5.9625935e-35
5.9625477e-35
5.9625639e-35
5.962698e-35
5.9632658e-35
5.9651908e-35
5.9808239e-35
5.9677561e-35
5.9636569e-35
5.9625935e-35
5.9623565e-35
5.9623108e-35
5.9623272e-35
5.9624619e-35
5.9630315e-35
5.964959e-35
5.9807767e-35
5.9677096e-35
5.9636109e-35
5.9625477e-35
5.9623108e-35
5.9622651e-35
5.9622816e-35
5.9624165e-35
5.9629865e-35
5.9649145e-35
5.9807877e-35
5.9677233e-35
5.9636264e-35
5.9625639e-35
5.9623272e-35
5.9622816e-35
5.9622982e-35
5.9624332e-35
5.9630032e-35
5.9649314e-35
5.9808979e-35
5.9678472e-35
5.9637579e-35
5.962698e-35
5.9624619e-35
5.9624165e-35
5.9624332e-35
5.9625683e-35
5.9631384e-35
5.9650669e-35
5.9813719e-35
5.9683813e-35
5.9643182e-35
5.9632658e-35
5.9630315e-35
5.9629865e-35
5.9630032e-35
5.9631384e-35
5.9637092e-35
5.965639e-35
5.9829927e-35
5.9702344e-35
5.9662301e-35
5.9651908e-35
5.964959e-35
5.9649145e-35
5.9649314e-35
5.9650669e-35
5.965639e-35
5.9675754e-35
1.4953563e-34
1.4921806e-34
1.4911761e-34
1.490915e-34
1.4908567e-34
1.4908451e-34
1.4908477e-34
1.4908743e-34
1.4909886e-34
1.4913923e-34
1.4921806e-34
1.4890234e-34
1.4880237e-34
1.4877638e-34
1.4877058e-34
1.4876944e-34
1.4876977e-34
1.4877276e-34
1.4878569e-34
1.4883183e-34
1.4911761e-34
1.4880237e-34
1.4870259e-34
1.4867665e-34
1.4867086e-34
1.4866973e-34
1.4867011e-34
1.4867329e-34
1.4868686e-34
1.4873447e-34
1.490915e-34
1.4877638e-34
1.4867665e-34
1.4865073e-34
1.4864494e-34
1.4864382e-34
1.4864421e-34
1.4864745e-34
1.4866122e-34
1.4870914e-34
1.4908567e-34
1.4877058e-34
1.4867086e-34
1.4864494e-34
1.4863915e-34
1.4863804e-34
1.4863843e-34
1.4864169e-34
1.486555e-34
1.4870349e-34
1.4908451e-34
1.4876944e-34
1.4866973e-34
1.4864382e-34
1.4863804e-34
1.4863692e-34
1.4863732e-34
1.4864058e-34
1.486544e-34
1.487024e-34
1.4908477e-34
1.4876977e-34
1.4867011e-34
1.4864421e-34
1.4863843e-34
1.4863732e-34
1.4863772e-34
1.4864098e-34
1.486548e-34
1.4870281e-34
1.4908743e-34
1.4877276e-34
1.4867329e-34
1.4864745e-34
1.4864169e-34
1.4864058e-34
1.4864098e-34
1.4864425e-34
1.4865808e-34
1.4870609e-34
1.4909886e-34
1.4878569e-34
1.4868686e-34
1.4866122e-34
1.486555e-34
1.486544e-34
1.486548e-34
1.4865808e-34
1.4867191e-34
1.4871996e-34
1.4913923e-34
1.4883183e-34
1.4873447e-34
1.4870914e-34
1.4870349e-34
1.487024e-34
1.4870281e-34
1.4870609e-34
1.4871996e-34
1.4876817e-34
3.5655759e-34
3.558246e-34
3.5559176e-34
3.5553114e-34
3.5551758e-34
3.5551489e-34
3.5551547e-34
3.5552154e-34
3.5554766e-34
3.5564033e-34
3.558246e-34
3.550958e-34
3.5486409e-34
3.5480373e-34
3.5479023e-34
3.5478758e-34
3.5478833e-34
3.547952e-34
3.5482486e-34
3.5493125e-34
3.5559176e-34
3.5486409e-34
3.5463279e-34
3.5457255e-34
3.5455908e-34
3.5455646e-34
3.5455731e-34
3.5456463e-34
3.5459583e-34
3.5470568e-34
3.5553114e-34
3.5480373e-34
3.5457255e-34
3.5451235e-34
3.5449889e-34
3.5449628e-34
3.5449718e-34
3.5450464e-34
3.5453628e-34
3.5464691e-34
3.5551758e-34
3.5479023e-34
3.5455908e-34
3.5449889e-34
3.5448544e-34
3.5448284e-34
3.5448374e-34
3.5449125e-34
3.5452299e-34
3.5463377e-34
3.5551489e-34
3.5478758e-34
3.5455646e-34
3.5449628e-34
3.5448284e-34
3.5448024e-34
3.5448115e-34
3.5448867e-34
3.5452043e-34
3.5463123e-34
3.5551547e-34
3.5478833e-34
3.5455731e-34
3.5449718e-34
3.5448374e-34
3.5448115e-34
3.5448206e-34
3.5448959e-34
3.5452136e-34
3.5463216e-34
3.5552154e-34
3.547952e-34
3.5456463e-34
3.5450464e-34
3.5449125e-34
3.5448867e-34
3.5448959e-34
3.5449711e-34
3.5452889e-34
3.5463971e-34
3.5554766e-34
3.5482486e-34
3.5459583e-34
3.5453628e-34
3.5452299e-34
3.5452043e-34
3.5452136e-34
3.5452889e-34
3.545607e-34
3.546716e-34
3.5564033e-34
3.5493125e-34
3.5470568e-34
3.5464691e-34
3.5463377e-34
3.5463123e-34
3.5463216e-34
3.5463971e-34
3.546716e-34
3.5478288e-34
8.5355749e-34
8.5185917e-34
8.5131817e-34
8.511771e-34
8.511455e-34
8.5113922e-34
8.5114054e-34
8.5115442e-34
8.5121405e-34
8.5142492e-34
8.5185917e-34
8.5017047e-34
8.4963204e-34
8.4949158e-34
8.4946012e-34
8.4945393e-34
8.4945563e-34
8.4947143e-34
8.4953948e-34
8.4978303e-34
8.5131817e-34
8.4963204e-34
8.4909458e-34
8.4895439e-34
8.48923e-34
8.4891687e-34
8.4891882e-34
8.4893568e-34
8.490074e-34
8.4925919e-34
8.511771e-34
8.4949158e-34
8.4895439e-34
8.4881428e-34
8.4878292e-34
8.4877682e-34
8.4877887e-34
8.4879608e-34
8.4886885e-34
8.4912248e-34
8.511455e-34
8.4946012e-34
8.48923e-34
8.4878292e-34
8.4875157e-34
8.4874549e-34
8.4874757e-34
8.4876488e-34
8.4883789e-34
8.4909188e-34
8.5113922e-34
8.4945393e-34
8.4891687e-34
8.4877682e-34
8.4874549e-34
8.4873941e-34
8.487415e-34
8.4875884e-34
8.488319e-34
8.4908595e-34
8.5114054e-34
8.4945563e-34
8.4891882e-34
8.4877887e-34
8.4874757e-34
8.487415e-34
8.487436e-34
8.4876095e-34
8.4883403e-34
8.4908809e-34
8.5115442e-34
8.4947143e-34
8.4893568e-34
8.4879608e-34
8.4876488e-34
8.4875884e-34
8.4876095e-34
8.487783e-34
8.488514e-34
8.4910551e-34
8.5121405e-34
8.4953948e-34
8.490074e-34
8.4886885e-34
8.4883789e-34
8.488319e-34
8.4883403e-34
8.488514e-34
8.4892457e-34
8.4917885e-34
8.5142492e-34
8.4978303e-34
8.4925919e-34
8.4912248e-34
8.4909188e-34
8.4908595e-34
8.4908809e-34
8.4910551e-34
8.4917885e-34
8.4943399e-34
2.0690645e-33
2.0650813e-33
2.0638094e-33
2.0634772e-33
2.0634027e-33
2.0633879e-33
2.0633909e-33
2.063423e-33
2.0635607e-33
2.0640447e-33
2.0650813e-33
2.0611205e-33
2.0598546e-33
2.0595238e-33
2.0594497e-33
2.059435e-33
2.0594389e-33
2.0594757e-33
2.0596336e-33
2.0601964e-33
2.0638094e-33
2.0598546e-33
2.0585909e-33
2.0582607e-33
2.0581867e-33
2.0581722e-33
2.0581768e-33
2.0582161e-33
2.0583828e-33
2.0589655e-33
2.0634772e-33
2.0595238e-33
2.0582607e-33
2.0579308e-33
2.0578569e-33
2.0578424e-33
2.0578472e-33
2.0578874e-33
2.0580566e-33
2.0586437e-33
2.0634027e-33
2.0594497e-33
2.0581867e-33
2.0578569e-33
2.057783e-33
2.0577686e-33
2.0577734e-33
2.0578138e-33
2.0579837e-33
2.0585716e-33
2.0633879e-33
2.059435e-33
2.0581722e-33
2.0578424e-33
2.0577686e-33
2.0577542e-33
2.0577591e-33
2.0577995e-33
2.0579695e-33
2.0585576e-33
2.0633909e-33
2.0594389e-33
2.0581768e-33
2.0578472e-33
2.0577734e-33
2.0577591e-33
2.0577639e-33
2.0578044e-33
2.0579744e-33
2.0585626e-33
2.063423e-33
2.0594757e-33
2.0582161e-33
2.0578874e-33
2.0578138e-33
2.0577995e-33
2.0578044e-33
2.0578449e-33
2.058015e-33
2.0586032e-33
2.0635607e-33
2.0596336e-33
2.0583828e-33
2.0580566e-33
2.0579837e-33
2.0579695e-33
2.0579744e-33
2.058015e-33
2.0581852e-33
2.0587739e-33
2.0640447e-33
2.0601964e-33
2.0589655e-33
2.0586437e-33
2.0585716e-33
2.0585576e-33
2.0585626e-33
2.0586032e-33
2.0587739e-33
2.0593645e-33
5.086812e-33
5.0773413e-33
5.07431e-33
5.0735172e-33
5.0733391e-33
5.0733036e-33
5.0733105e-33
5.0733859e-33
5.0737079e-33
5.0748333e-33
5.0773413e-33
5.0679232e-33
5.0649058e-33
5.0641164e-33
5.0639391e-33
5.0639041e-33
5.0639132e-33
5.0639999e-33
5.0643714e-33
5.0656895e-33
5.07431e-33
5.0649058e-33
5.0618938e-33
5.0611059e-33
5.060929e-33
5.0608943e-33
5.0609049e-33
5.0609978e-33
5.0613909e-33
5.0627575e-33
5.0735172e-33
5.0641164e-33
5.0611059e-33
5.0603183e-33
5.0601416e-33
5.0601071e-33
5.0601183e-33
5.0602133e-33
5.0606125e-33
5.0619899e-33
5.0733391e-33
5.0639391e-33
5.060929e-33
5.0601416e-33
5.059965e-33
5.0599306e-33
5.0599419e-33
5.0600375e-33
5.0604381e-33
5.0618176e-33
5.0733036e-33
5.0639041e-33
5.0608943e-33
5.0601071e-33
5.0599306e-33
5.0598962e-33
5.0599076e-33
5.0600033e-33
5.0604043e-33
5.0617841e-33
5.0733105e-33
5.0639132e-33
5.0609049e-33
5.0601183e-33
5.0599419e-33
5.0599076e-33
5.0599191e-33
5.0600149e-33
5.0604159e-33
5.0617958e-33
5.0733859e-33
5.0639999e-33
5.0609978e-33
5.0602133e-33
5.0600375e-33
5.0600033e-33
5.0600149e-33
5.0601107e-33
5.0605118e-33
5.061892e-33
5.0737079e-33
5.0643714e-33
5.0613909e-33
5.0606125e-33
5.0604381e-33
5.0604043e-33
5.0604159e-33
5.0605118e-33
5.0609133e-33
5.0622944e-33
5.0748333e-33
5.0656895e-33
5.0627575e-33
5.0619899e-33
5.0618176e-33
5.0617841e-33
5.0617958e-33
5.061892e-33
5.0622944e-33
5.0636801e-33
1.2688099e-32
1.2665263e-32
1.2657936e-32
1.2656018e-32
1.2655586e-32
1.26555e-32
1.2655516e-32
1.2655696e-32
1.2656459e-32
1.2659113e-32
1.2665263e-32
1.2642551e-32
1.2635259e-32
1.2633348e-32
1.2632918e-32
1.2632833e-32
1.2632855e-32
1.2633062e-32
1.2633949e-32
1.263708e-32
1.2657936e-32
1.2635259e-32
1.2627979e-32
1.2626071e-32
1.2625643e-32
1.2625559e-32
1.2625584e-32
1.2625807e-32
1.2626747e-32
1.2629998e-32
1.2656018e-32
1.2633348e-32
1.2626071e-32
1.2624165e-32
1.2623737e-32
1.2623653e-32
1.262368e-32
1.2623908e-32
1.2624863e-32
1.2628141e-32
1.2655586e-32
1.2632918e-32
1.2625643e-32
1.2623737e-32
1.2623309e-32
1.2623225e-32
1.2623253e-32
1.2623482e-32
1.2624441e-32
1.2627724e-32
1.26555e-32
1.2632833e-32
1.2625559e-32
1.2623653e-32
1.2623225e-32
1.2623142e-32
1.2623169e-32
1.2623399e-32
1.2624358e-32
1.2627642e-32
1.2655516e-32
1.2632855e-32
1.2625584e-32
1.262368e-32
1.2623253e-32
1.2623169e-32
1.2623197e-32
1.2623427e-32
1.2624386e-32
1.262767e-32
1.2655696e-32
1.2633062e-32
1.2625807e-32
1.2623908e-32
1.2623482e-32
1.2623399e-32
1.2623427e-32
1.2623657e-32
1.2624616e-32
1.2627901e-32
1.2656459e-32
1.2633949e-32
1.2626747e-32
1.2624863e-32
1.2624441e-32
1.2624358e-32
1.2624386e-32
1.2624616e-32
1.2625577e-32
1.2628864e-32
1.2659113e-32
1.263708e-32
1.2629998e-32
1.2628141e-32
1.2627724e-32
1.2627642e-32
1.262767e-32
1.2627901e-32
1.2628864e-32
1.2632162e-32
3.2112805e-32
3.2056956e-32
3.2038999e-32
3.2034289e-32
3.2033229e-32
3.2033016e-32
3.2033054e-32
3.2033488e-32
3.2035326e-32
3.2041671e-32
3.2056956e-32
3.200141e-32
3.1983534e-32
3.1978844e-32
3.1977788e-32
3.1977578e-32
3.197763e-32
3.1978134e-32
3.198028e-32
3.1987826e-32
3.2038999e-32
3.1983534e-32
3.1965689e-32
3.1961007e-32
3.1959954e-32
3.1959746e-32
3.1959807e-32
3.1960349e-32
3.196263e-32
3.1970477e-32
3.2034289e-32
3.1978844e-32
3.1961007e-32
3.1956328e-32
3.1955276e-32
3.1955069e-32
3.1955134e-32
3.1955689e-32
3.1958008e-32
3.1965922e-32
3.2033229e-32
3.1977788e-32
3.1959954e-32
3.1955276e-32
3.1954224e-32
3.1954017e-32
3.1954083e-32
3.1954642e-32
3.1956969e-32
3.1964897e-32
3.2033016e-32
3.1977578e-32
3.1959746e-32
3.1955069e-32
3.1954017e-32
3.1953812e-32
3.1953878e-32
3.1954438e-32
3.1956767e-32
3.1964697e-32
3.2033054e-32
3.197763e-32
3.1959807e-32
3.1955134e-32
3.1954083e-32
3.1953878e-32
3.1953945e-32
3.1954505e-32
3.1956834e-32
3.1964765e-32
3.2033488e-32
3.1978134e-32
3.1960349e-32
3.1955689e-32
3.1954642e-32
3.1954438e-32
3.1954505e-32
3.1955065e-32
3.1957395e-32
3.1965327e-32
3.2035326e-32
3.198028e-32
3.196263e-32
3.1958008e-32
3.1956969e-32
3.1956767e-32
3.1956834e-32
3.1957395e-32
3.1959727e-32
3.1967664e-32
3.2041671e-32
3.1987826e-32
3.1970477e-32
3.1965922e-32
3.1964897e-32
3.1964697e-32
3.1964765e-32
3.1965327e-32
3.1967664e-32
3.1975627e-32
8.2475121e-32
8.2336584e-32
8.2291942e-32
8.2280218e-32
8.2277575e-32
8.2277043e-32
8.2277135e-32
8.2278198e-32
8.2282686e-32
8.2298077e-32
8.2336584e-32
8.2198793e-32
8.2154349e-32
8.2142672e-32
8.2140041e-32
8.2139516e-32
8.2139643e-32
8.2140884e-32
8.2146157e-32
8.2164608e-32
8.2291942e-32
8.2154349e-32
8.2109982e-32
8.2098326e-32
8.20957e-32
8.2095182e-32
8.2095332e-32
8.2096671e-32
8.2102284e-32
8.2121505e-32
8.2280218e-32
8.2142672e-32
8.2098326e-32
8.2086677e-32
8.2084053e-32
8.2083538e-32
8.2083696e-32
8.2085068e-32
8.209078e-32
8.2110172e-32
8.2277575e-32
8.2140041e-32
8.20957e-32
8.2084053e-32
8.2081431e-32
8.2080916e-32
8.2081078e-32
8.2082459e-32
8.2088193e-32
8.2107618e-32
8.2277043e-32
8.2139516e-32
8.2095182e-32
8.2083538e-32
8.2080916e-32
8.2080403e-32
8.2080566e-32
8.2081949e-32
8.2087687e-32
8.2107119e-32
8.2277135e-32
8.2139643e-32
8.2095332e-32
8.2083696e-32
8.2081078e-32
8.2080566e-32
8.208073e-32
8.2082113e-32
8.2087853e-32
8.2107286e-32
8.2278198e-32
8.2140884e-32
8.2096671e-32
8.2085068e-32
8.2082459e-32
8.2081949e-32
8.2082113e-32
8.2083498e-32
8.2089239e-32
8.2108675e-32
8.2282686e-32
8.2146157e-32
8.2102284e-32
8.209078e-32
8.2088193e-32
8.2087687e-32
8.2087853e-32
8.2089239e-32
8.2094985e-32
8.2114434e-32
8.2298077e-32
8.2164608e-32
8.2121505e-32
8.2110172e-32
8.2107618e-32
8.2107119e-32
8.2107286e-32
8.2108675e-32
8.2114434e-32
8.2133943e-32
2.1495945e-31
2.1461087e-31
2.144983e-31
2.1446869e-31
2.1446201e-31
2.1446067e-31
2.1446089e-31
2.1446353e-31
2.1447465e-31
2.1451252e-31
2.1461087e-31
2.1426414e-31
2.1415207e-31
2.1412258e-31
2.1411593e-31
2.141146e-31
2.1411492e-31
2.1411802e-31
2.1413116e-31
2.1417695e-31
2.144983e-31
2.1415207e-31
2.1404019e-31
2.1401075e-31
2.1400411e-31
2.140028e-31
2.1400317e-31
2.1400653e-31
2.1402055e-31
2.1406833e-31
2.1446869e-31
2.1412258e-31
2.1401075e-31
2.1398134e-31
2.139747e-31
2.139734e-31
2.1397379e-31
2.1397723e-31
2.1399151e-31
2.1403973e-31
2.1446201e-31
2.1411593e-31
2.1400411e-31
2.139747e-31
2.1396807e-31
2.1396677e-31
2.1396718e-31
2.1397064e-31
2.1398497e-31
2.1403328e-31
2.1446067e-31
2.141146e-31
2.140028e-31
2.139734e-31
2.1396677e-31
2.1396547e-31
2.1396588e-31
2.1396935e-31
2.1398369e-31
2.1403201e-31
2.1446089e-31
2.1411492e-31
2.1400317e-31
2.1397379e-31
2.1396718e-31
2.1396588e-31
2.1396629e-31
2.1396976e-31
2.1398411e-31
2.1403243e-31
2.1446353e-31
2.1411802e-31
2.1400653e-31
2.1397723e-31
2.1397064e-31
2.1396935e-31
2.1396976e-31
2.1397323e-31
2.1398758e-31
2.1403591e-31
2.1447465e-31
2.1413116e-31
2.1402055e-31
2.1399151e-31
2.1398497e-31
2.1398369e-31
2.1398411e-31
2.1398758e-31
2.1400195e-31
2.1405031e-31
2.1451252e-31
2.1417695e-31
2.1406833e-31
2.1403973e-31
2.1403328e-31
2.1403201e-31
2.1403243e-31
2.1403591e-31
2.1405031e-31
2.1409882e-31
5.6859131e-31
5.6770163e-31
5.6741371e-31
5.6733789e-31
5.6732076e-31
5.6731729e-31
5.6731784e-31
5.673245e-31
5.6735244e-31
5.67447e-31
5.6770163e-31
5.6681663e-31
5.6652996e-31
5.6645444e-31
5.6643738e-31
5.6643397e-31
5.6643476e-31
5.6644262e-31
5.6647587e-31
5.6659118e-31
5.6741371e-31
5.6652996e-31
5.6624377e-31
5.6616838e-31
5.6615136e-31
5.6614798e-31
5.6614893e-31
5.6615746e-31
5.6619302e-31
5.6631354e-31
5.6733789e-31
5.6645444e-31
5.6616838e-31
5.6609304e-31
5.6607603e-31
5.6607267e-31
5.6607368e-31
5.6608243e-31
5.6611865e-31
5.6624033e-31
5.6732076e-31
5.6643738e-31
5.6615136e-31
5.6607603e-31
5.6605903e-31
5.6605568e-31
5.660567e-31
5.6606552e-31
5.6610188e-31
5.662238e-31
5.6731729e-31
5.6643397e-31
5.6614798e-31
5.6607267e-31
5.6605568e-31
5.6605234e-31
5.6605337e-31
5.660622e-31
5.660986e-31
5.6622055e-31
5.6731784e-31
5.6643476e-31
5.6614893e-31
5.6607368e-31
5.660567e-31
5.6605337e-31
5.6605441e-31
5.6606324e-31
5.6609965e-31
5.6622161e-31
5.673245e-31
5.6644262e-31
5.6615746e-31
5.6608243e-31
5.6606552e-31
5.660622e-31
5.6606324e-31
5.6607208e-31
5.661085e-31
5.6623048e-31
5.6735244e-31
5.6647587e-31
5.6619302e-31
5.6611865e-31
5.6610188e-31
5.660986e-31
5.6609965e-31
5.661085e-31
5.6614494e-31
5.66267e-31
5.67447e-31
5.6659118e-31
5.6631354e-31
5.6624033e-31
5.662238e-31
5.6622055e-31
5.6622161e-31
5.6623048e-31
5.66267e-31
5.6638943e-31
1.5264088e-30
1.5241053e-30
1.5233583e-30
1.5231613e-30
1.5231168e-30
1.5231078e-30
1.5231091e-30
1.5231262e-30
1.5231974e-30
1.5234369e-30
1.5241053e-30
1.5218139e-30
1.5210701e-30
1.5208739e-30
1.5208295e-30
1.5208206e-30
1.5208226e-30
1.5208428e-30
1.5209282e-30
1.5212229e-30
1.5233583e-30
1.5210701e-30
1.5203275e-30
1.5201316e-30
1.5200874e-30
1.5200786e-30
1.520081e-30
1.520103e-30
1.5201945e-30
1.5205031e-30
1.5231613e-30
1.5208739e-30
1.5201316e-30
1.5199359e-30
1.5198917e-30
1.5198829e-30
1.5198855e-30
1.5199081e-30
1.5200013e-30
1.520313e-30
1.5231168e-30
1.5208295e-30
1.5200874e-30
1.5198917e-30
1.5198474e-30
1.5198387e-30
1.5198413e-30
1.5198641e-30
1.5199578e-30
1.52027e-30
1.5231078e-30
1.5208206e-30
1.5200786e-30
1.5198829e-30
1.5198387e-30
1.51983e-30
1.5198327e-30
1.5198555e-30
1.5199492e-30
1.5202616e-30
1.5231091e-30
1.5208226e-30
1.520081e-30
1.5198855e-30
1.5198413e-30
1.5198327e-30
1.5198353e-30
1.5198581e-30
1.5199519e-30
1.5202643e-30
1.5231262e-30
1.5208428e-30
1.520103e-30
1.5199081e-30
1.5198641e-30
1.5198555e-30
1.5198581e-30
1.519881e-30
1.5199748e-30
1.5202872e-30
1.5231974e-30
1.5209282e-30
1.5201945e-30
1.5200013e-30
1.5199578e-30
1.5199492e-30
1.5199519e-30
1.5199748e-30
1.5200686e-30
1.5203813e-30
1.5234369e-30
1.5212229e-30
1.5205031e-30
1.520313e-30
1.52027e-30
1.5202616e-30
1.5202643e-30
1.5202872e-30
1.5203813e-30
1.5206949e-30
4.1589209e-30
4.1528711e-30
4.1509052e-30
4.1503861e-30
4.1502686e-30
4.1502447e-30
4.1502482e-30
4.1502925e-30
4.1504768e-30
4.1510924e-30
4.1528711e-30
4.1468525e-30
4.1448949e-30
4.1443778e-30
4.1442608e-30
4.1442373e-30
4.1442425e-30
4.1442954e-30
4.1445178e-30
4.1452824e-30
4.1509052e-30
4.1448949e-30
4.1429405e-30
4.1424244e-30
4.1423075e-30
4.1422843e-30
4.1422906e-30
4.1423483e-30
4.1425872e-30
4.1433892e-30
4.1503861e-30
4.1443778e-30
4.1424244e-30
4.1419085e-30
4.1417918e-30
4.1417687e-30
4.1417754e-30
4.1418347e-30
4.1420783e-30
4.1428887e-30
4.1502686e-30
4.1442608e-30
4.1423075e-30
4.1417918e-30
4.1416751e-30
4.1416521e-30
4.141659e-30
4.1417186e-30
4.1419634e-30
4.1427753e-30
4.1502447e-30
4.1442373e-30
4.1422843e-30
4.1417687e-30
4.1416521e-30
4.1416291e-30
4.141636e-30
4.1416958e-30
4.1419408e-30
4.142753e-30
4.1502482e-30
4.1442425e-30
4.1422906e-30
4.1417754e-30
4.141659e-30
4.141636e-30
4.141643e-30
4.1417028e-30
4.1419479e-30
4.1427602e-30
4.1502925e-30
4.1442954e-30
4.1423483e-30
4.1418347e-30
4.1417186e-30
4.1416958e-30
4.1417028e-30
4.1417627e-30
4.1420078e-30
4.1428202e-30
4.1504768e-30
4.1445178e-30
4.1425872e-30
4.1420783e-30
4.1419634e-30
4.1419408e-30
4.1419479e-30
4.1420078e-30
4.1422531e-30
4.143066e-30
4.1510924e-30
4.1452824e-30
4.1433892e-30
4.1428887e-30
4.1427753e-30
4.142753e-30
4.1427602e-30
4.1428202e-30
4.143066e-30
4.1438813e-30
1.1501037e-29
1.1484919e-29
1.147967e-29
1.1478283e-29
1.1477969e-29
1.1477905e-29
1.1477914e-29
1.147803e-29
1.1478514e-29
1.1480119e-29
1.1484919e-29
1.1468883e-29
1.1463656e-29
1.1462274e-29
1.1461961e-29
1.1461898e-29
1.1461912e-29
1.1462052e-29
1.146264e-29
1.1464653e-29
1.147967e-29
1.1463656e-29
1.1458439e-29
1.1457059e-29
1.1456746e-29
1.1456684e-29
1.1456701e-29
1.1456854e-29
1.1457487e-29
1.1459603e-29
1.1478283e-29
1.1462274e-29
1.1457059e-29
1.145568e-29
1.1455368e-29
1.1455306e-29
1.1455324e-29
1.1455481e-29
1.1456128e-29
1.1458266e-29
1.1477969e-29
1.1461961e-29
1.1456746e-29
1.1455368e-29
1.1455055e-29
1.1454994e-29
1.1455012e-29
1.1455171e-29
1.145582e-29
1.1457963e-29
1.1477905e-29
1.1461898e-29
1.1456684e-29
1.1455306e-29
1.1454994e-29
1.1454932e-29
1.145495e-29
1.1455109e-29
1.1455759e-29
1.1457903e-29
1.1477914e-29
1.1461912e-29
1.1456701e-29
1.1455324e-29
1.1455012e-29
1.145495e-29
1.1454969e-29
1.1455128e-29
1.1455778e-29
1.1457922e-29
1.147803e-29
1.1462052e-29
1.1456854e-29
1.1455481e-29
1.1455171e-29
1.1455109e-29
1.1455128e-29
1.1455287e-29
1.1455938e-29
1.1458082e-29
1.1478514e-29
1.146264e-29
1.1457487e-29
1.1456128e-29
1.145582e-29
1.1455759e-29
1.1455778e-29
1.1455938e-29
1.1456588e-29
1.1458734e-29
1.1480119e-29
1.1464653e-29
1.1459603e-29
1.1458266e-29
1.1457963e-29
1.1457903e-29
1.1457922e-29
1.1458082e-29
1.1458734e-29
1.1460885e-29
3.2280638e-29
3.2237076e-29
3.2222864e-29
3.2219103e-29
3.2218249e-29
3.2218075e-29
3.2218098e-29
3.221841e-29
3.22197e-29
3.2223947e-29
3.2237076e-29
3.2193735e-29
3.2179581e-29
3.2175834e-29
3.2174984e-29
3.2174812e-29
3.2174849e-29
3.2175226e-29
3.2176805e-29
3.2182185e-29
3.2222864e-29
3.2179581e-29
3.2165451e-29
3.216171e-29
3.2160861e-29
3.2160692e-29
3.2160737e-29
3.216115e-29
3.2162855e-29
3.2168519e-29
3.2219103e-29
3.2175834e-29
3.216171e-29
3.2157971e-29
3.2157123e-29
3.2156955e-29
3.2157003e-29
3.2157428e-29
3.2159168e-29
3.2164896e-29
3.2218249e-29
3.2174984e-29
3.2160861e-29
3.2157123e-29
3.2156276e-29
3.2156108e-29
3.2156157e-29
3.2156586e-29
3.2158334e-29
3.2164074e-29
3.2218075e-29
3.2174812e-29
3.2160692e-29
3.2156955e-29
3.2156108e-29
3.215594e-29
3.215599e-29
3.2156419e-29
3.2158169e-29
3.2163912e-29
3.2218098e-29
3.2174849e-29
3.2160737e-29
3.2157003e-29
3.2156157e-29
3.215599e-29
3.215604e-29
3.215647e-29
3.215822e-29
3.2163963e-29
3.221841e-29
3.2175226e-29
3.216115e-29
3.2157428e-29
3.2156586e-29
3.2156419e-29
3.215647e-29
3.21569e-29
3.2158651e-29
3.2164394e-29
3.22197e-29
3.2176805e-29
3.2162855e-29
3.2159168e-29
3.2158334e-29
3.2158169e-29
3.215822e-29
3.2158651e-29
3.2160403e-29
3.216615e-29
3.2223947e-29
3.2182185e-29
3.2168519e-29
3.2164896e-29
3.2164074e-29
3.2163912e-29
3.2163963e-29
3.2164394e-29
3.216615e-29
3.2171913e-29
9.1958702e-29
9.1839276e-29
9.180024e-29
9.1789897e-29
9.1787547e-29
9.1787066e-29
9.1787129e-29
9.1787975e-29
9.1791462e-29
9.1802865e-29
9.1839276e-29
9.1720451e-29
9.1681574e-29
9.1671268e-29
9.1668927e-29
9.1668454e-29
9.1668554e-29
9.1669584e-29
9.1673885e-29
9.168848e-29
9.180024e-29
9.1681574e-29
9.1642759e-29
9.1632471e-29
9.1630135e-29
9.1629667e-29
9.162979e-29
9.1630922e-29
9.1635576e-29
9.1650971e-29
9.1789897e-29
9.1671268e-29
9.1632471e-29
9.1622188e-29
9.1619854e-29
9.1619389e-29
9.1619521e-29
9.1620687e-29
9.1625442e-29
9.1641015e-29
9.1787547e-29
9.1668927e-29
9.1630135e-29
9.1619854e-29
9.1617521e-29
9.1617057e-29
9.1617192e-29
9.1618367e-29
9.1623145e-29
9.1638754e-29
9.1787066e-29
9.1668454e-29
9.1629667e-29
9.1619389e-29
9.1617057e-29
9.1616595e-29
9.1616731e-29
9.1617909e-29
9.1622691e-29
9.1638306e-29
9.1787129e-29
9.1668554e-29
9.162979e-29
9.1619521e-29
9.1617192e-29
9.1616731e-29
9.1616868e-29
9.1618047e-29
9.162283e-29
9.1638446e-29
9.1787975e-29
9.1669584e-29
9.1630922e-29
9.1620687e-29
9.1618367e-29
9.1617909e-29
9.1618047e-29
9.1619225e-29
9.162401e-29
9.1639628e-29
9.1791462e-29
9.1673885e-29
9.1635576e-29
9.1625442e-29
9.1623145e-29
9.1622691e-29
9.162283e-29
9.162401e-29
9.1628799e-29
9.1644426e-29
9.1802865e-29
9.168848e-29
9.1650971e-29
9.1641015e-29
9.1638754e-29
9.1638306e-29
9.1638446e-29
9.1639628e-29
9.1644426e-29
9.1660096e-29
2.6587673e-28
2.6554464e-28
2.6543588e-28
2.6540703e-28
2.6540047e-28
2.6539912e-28
2.6539929e-28
2.6540162e-28
2.6541119e-28
2.6544226e-28
2.6554464e-28
2.6521419e-28
2.6510588e-28
2.6507713e-28
2.6507059e-28
2.6506927e-28
2.6506954e-28
2.650724e-28
2.6508429e-28
2.6512447e-28
2.6543588e-28
2.6510588e-28
2.6499773e-28
2.6496903e-28
2.6496251e-28
2.649612e-28
2.6496154e-28
2.6496469e-28
2.6497759e-28
2.6502006e-28
2.6540703e-28
2.6507713e-28
2.6496903e-28
2.6494035e-28
2.6493383e-28
2.6493253e-28
2.649329e-28
2.6493614e-28
2.6494933e-28
2.6499231e-28
2.6540047e-28
2.6507059e-28
2.6496251e-28
2.6493383e-28
2.6492732e-28
2.6492602e-28
2.649264e-28
2.6492966e-28
2.6494292e-28
2.64986e-28
2.6539912e-28
2.6506927e-28
2.649612e-28
2.6493253e-28
2.6492602e-28
2.6492473e-28
2.6492511e-28
2.6492838e-28
2.6494165e-28
2.6498475e-28
2.6539929e-28
2.6506954e-28
2.6496154e-28
2.649329e-28
2.649264e-28
2.6492511e-28
2.6492549e-28
2.6492877e-28
2.6494203e-28
2.6498514e-28
2.6540162e-28
2.650724e-28
2.6496469e-28
2.6493614e-28
2.6492966e-28
2.6492838e-28
2.6492877e-28
2.6493204e-28
2.6494532e-28
2.6498843e-28
2.6541119e-28
2.6508429e-28
2.6497759e-28
2.6494933e-28
2.6494292e-28
2.6494165e-28
2.6494203e-28
2.6494532e-28
2.649586e-28
2.6500173e-28
2.6544226e-28
2.6512447e-28
2.6502006e-28
2.6499231e-28
2.64986e-28
2.6498475e-28
2.6498514e-28
2.6498843e-28
2.6500173e-28
2.6504498e-28
7.8017097e-28
7.7923429e-28
7.7892699e-28
7.7884537e-28
7.7882679e-28
7.7882298e-28
7.7882344e-28
7.7882995e-28
7.7885658e-28
7.7894246e-28
7.7923429e-28
7.7830224e-28
7.7799616e-28
7.7791483e-28
7.7789632e-28
7.7789257e-28
7.7789333e-28
7.7790136e-28
7.7793473e-28
7.7804704e-28
7.7892699e-28
7.7799616e-28
7.7769056e-28
7.7760937e-28
7.7759089e-28
7.7758719e-28
7.7758815e-28
7.7759702e-28
7.7763331e-28
7.7775223e-28
7.7884537e-28
7.7791483e-28
7.7760937e-28
7.7752822e-28
7.7750976e-28
7.7750608e-28
7.7750711e-28
7.7751627e-28
7.7755339e-28
7.7767379e-28
7.7882679e-28
7.7789632e-28
7.7759089e-28
7.7750976e-28
7.7749131e-28
7.7748764e-28
7.774887e-28
7.7749793e-28
7.7753524e-28
7.7765593e-28
7.7882298e-28
7.7789257e-28
7.7758719e-28
7.7750608e-28
7.7748764e-28
7.7748398e-28
7.7748504e-28
7.7749429e-28
7.7753164e-28
7.7765238e-28
7.7882344e-28
7.7789333e-28
7.7758815e-28
7.7750711e-28
7.774887e-28
7.7748504e-28
7.7748612e-28
7.7749537e-28
7.7753273e-28
7.7765349e-28
7.7882995e-28
7.7790136e-28
7.7759702e-28
7.7751627e-28
7.7749793e-28
7.7749429e-28
7.7749537e-28
7.7750464e-28
7.77542e-28
7.7766277e-28
7.7885658e-28
7.7793473e-28
7.7763331e-28
7.7755339e-28
7.7753524e-28
7.7753164e-28
7.7753273e-28
7.77542e-28
7.775794e-28
7.7770024e-28
7.7894246e-28
7.7804704e-28
7.7775223e-28
7.7767379e-28
7.7765593e-28
7.7765238e-28
7.7765349e-28
7.7766277e-28
7.7770024e-28
7.778214e-28
2.323272e-27
2.3205926e-27
2.3197119e-27
2.3194778e-27
2.3194244e-27
2.3194134e-27
2.3194147e-27
2.3194332e-27
2.3195084e-27
2.3197493e-27
2.3205926e-27
2.3179263e-27
2.3170491e-27
2.3168158e-27
2.3167626e-27
2.3167518e-27
2.316754e-27
2.3167769e-27
2.3168719e-27
2.3171905e-27
2.3197119e-27
2.3170491e-27
2.3161733e-27
2.3159404e-27
2.3158873e-27
2.3158766e-27
2.3158794e-27
2.3159048e-27
2.3160084e-27
2.3163464e-27
2.3194778e-27
2.3168158e-27
2.3159404e-27
2.3157075e-27
2.3156545e-27
2.3156439e-27
2.3156469e-27
2.3156731e-27
2.3157792e-27
2.3161215e-27
2.3194244e-27
2.3167626e-27
2.3158873e-27
2.3156545e-27
2.3156015e-27
2.315591e-27
2.315594e-27
2.3156205e-27
2.3157271e-27
2.3160703e-27
2.3194134e-27
2.3167518e-27
2.3158766e-27
2.3156439e-27
2.315591e-27
2.3155804e-27
2.3155835e-27
2.31561e-27
2.3157167e-27
2.3160601e-27
2.3194147e-27
2.316754e-27
2.3158794e-27
2.3156469e-27
2.315594e-27
2.3155835e-27
2.3155866e-27
2.3156131e-27
2.3157199e-27
2.3160632e-27
2.3194332e-27
2.3167769e-27
2.3159048e-27
2.3156731e-27
2.3156205e-27
2.31561e-27
2.3156131e-27
2.3156397e-27
2.3157464e-27
2.3160898e-27
2.3195084e-27
2.3168719e-27
2.3160084e-27
2.3157792e-27
2.3157271e-27
2.3157167e-27
2.3157199e-27
2.3157464e-27
2.3158533e-27
2.3161969e-27
2.3197493e-27
2.3171905e-27
2.3163464e-27
2.3161215e-27
2.3160703e-27
2.3160601e-27
2.3160632e-27
2.3160898e-27
2.3161969e-27
2.3165414e-27
7.0207474e-27
7.0129747e-27
7.0104156e-27
7.0097344e-27
7.009579e-27
7.009547e-27
7.0095506e-27
7.0096038e-27
7.0098194e-27
7.0105048e-27
7.0129747e-27
7.0052396e-27
7.0026905e-27
7.0020117e-27
7.0018568e-27
7.0018254e-27
7.0018316e-27
7.001898e-27
7.0021727e-27
7.0030896e-27
7.0104156e-27
7.0026905e-27
7.0001453e-27
6.9994676e-27
6.9993131e-27
6.999282e-27
6.9992899e-27
6.9993637e-27
6.9996639e-27
7.0006388e-27
7.0097344e-27
7.0020117e-27
6.9994676e-27
6.9987902e-27
6.9986358e-27
6.998605e-27
6.9986136e-27
6.9986898e-27
6.9989972e-27
6.9999852e-27
7.009579e-27
7.0018568e-27
6.9993131e-27
6.9986358e-27
6.9984815e-27
6.9984507e-27
6.9984596e-27
6.9985365e-27
6.9988456e-27
6.999836e-27
7.009547e-27
7.0018254e-27
6.999282e-27
6.998605e-27
6.9984507e-27
6.99842e-27
6.9984289e-27
6.998506e-27
6.9988154e-27
6.9998063e-27
7.0095506e-27
7.0018316e-27
6.9992899e-27
6.9986136e-27
6.9984596e-27
6.9984289e-27
6.9984379e-27
6.998515e-27
6.9988246e-27
6.9998155e-27
7.0096038e-27
7.001898e-27
6.9993637e-27
6.9986898e-27
6.9985365e-27
6.998506e-27
6.998515e-27
6.9985922e-27
6.9989018e-27
6.9998929e-27
7.0098194e-27
7.0021727e-27
6.9996639e-27
6.9989972e-27
6.9988456e-27
6.9988154e-27
6.9988246e-27
6.9989018e-27
6.9992116e-27
7.0002033e-27
7.0105048e-27
7.0030896e-27
7.0006388e-27
6.9999852e-27
6.999836e-27
6.9998063e-27
6.9998155e-27
6.9998929e-27
7.0002033e-27