/*--------------------------------*- C++ -*----------------------------------*\
| =========                 |                                                 |
| \\      /  F ield         | OpenFOAM: The Open Source CFD Toolbox           |
|  \\    /   O peration     | Version:  dev                                   |
|   \\  /    A nd           | Web:      www.OpenFOAM.org                      |
|    \\/     M anipulation  |                                                 |
\*---------------------------------------------------------------------------*/
FoamFile
{
    version     2.0;
    format      ascii;
    class       volScalarField;
    location    "87.995";
    object      A;
}
// * * * * * * * * * * * * * * * * * * * * * * * * * * * * * * * * * * * * * //

dimensions      [0 0 0 0 1 0 0];

internalField   nonuniform List<scalar> 
10000
(
7.6389962e-23
7.6317644e-23
7.6277802e-23
7.625497e-23
7.6242487e-23
7.6236555e-23
7.6235173e-23
7.6237834e-23
7.6245683e-23
7.626119e-23
7.6317644e-23
7.6245605e-23
7.6205861e-23
7.6183076e-23
7.6170627e-23
7.6164739e-23
7.6163436e-23
7.6166275e-23
7.6174578e-23
7.6191376e-23
7.6277802e-23
7.6205861e-23
7.616618e-23
7.6143439e-23
7.613103e-23
7.6125198e-23
7.6123992e-23
7.6127011e-23
7.6135631e-23
7.6152878e-23
7.625497e-23
7.6183076e-23
7.6143439e-23
7.6120736e-23
7.6108368e-23
7.6102588e-23
7.6101464e-23
7.6104611e-23
7.6113409e-23
7.6130829e-23
7.6242487e-23
7.6170627e-23
7.613103e-23
7.6108368e-23
7.6096038e-23
7.6090304e-23
7.6089239e-23
7.6092467e-23
7.6101358e-23
7.6118852e-23
7.6236555e-23
7.6164739e-23
7.6125198e-23
7.6102588e-23
7.6090304e-23
7.608461e-23
7.6083589e-23
7.6086865e-23
7.6095805e-23
7.6113332e-23
7.6235173e-23
7.6163436e-23
7.6123992e-23
7.6101464e-23
7.6089239e-23
7.6083589e-23
7.6082602e-23
7.6085908e-23
7.6094875e-23
7.611242e-23
7.6237834e-23
7.6166275e-23
7.6127011e-23
7.6104611e-23
7.6092467e-23
7.6086865e-23
7.6085908e-23
7.6089237e-23
7.6098223e-23
7.611578e-23
7.6245683e-23
7.6174578e-23
7.6135631e-23
7.6113409e-23
7.6101358e-23
7.6095805e-23
7.6094875e-23
7.6098223e-23
7.6107225e-23
7.6124801e-23
7.626119e-23
7.6191376e-23
7.6152878e-23
7.6130829e-23
7.6118852e-23
7.6113332e-23
7.611242e-23
7.611578e-23
7.6124801e-23
7.6142427e-23
2.5164687e-22
2.5141791e-22
2.5128803e-22
2.5121342e-22
2.5117259e-22
2.5115318e-22
2.5114864e-22
2.511573e-22
2.5118293e-22
2.5123535e-22
2.5141791e-22
2.511898e-22
2.5106023e-22
2.5098577e-22
2.5094506e-22
2.5092579e-22
2.5092151e-22
2.5093076e-22
2.5095788e-22
2.5101457e-22
2.5128803e-22
2.5106023e-22
2.5093087e-22
2.5085655e-22
2.5081598e-22
2.5079689e-22
2.5079293e-22
2.5080277e-22
2.5083093e-22
2.508891e-22
2.5121342e-22
2.5098577e-22
2.5085655e-22
2.5078237e-22
2.5074192e-22
2.5072301e-22
2.5071931e-22
2.5072957e-22
2.5075832e-22
2.5081706e-22
2.5117259e-22
2.5094506e-22
2.5081598e-22
2.5074192e-22
2.507016e-22
2.5068283e-22
2.5067934e-22
2.5068986e-22
2.5071891e-22
2.5077789e-22
2.5115318e-22
2.5092579e-22
2.5079689e-22
2.5072301e-22
2.5068283e-22
2.506642e-22
2.5066085e-22
2.5067153e-22
2.5070074e-22
2.5075983e-22
2.5114864e-22
2.5092151e-22
2.5079293e-22
2.5071931e-22
2.5067934e-22
2.5066085e-22
2.5065761e-22
2.5066839e-22
2.5069769e-22
2.5075684e-22
2.511573e-22
2.5093076e-22
2.5080277e-22
2.5072957e-22
2.5068986e-22
2.5067153e-22
2.5066839e-22
2.5067924e-22
2.5070861e-22
2.507678e-22
2.5118293e-22
2.5095788e-22
2.5083093e-22
2.5075832e-22
2.5071891e-22
2.5070074e-22
2.5069769e-22
2.5070861e-22
2.5073802e-22
2.5079728e-22
2.5123535e-22
2.5101457e-22
2.508891e-22
2.5081706e-22
2.5077789e-22
2.5075983e-22
2.5075684e-22
2.507678e-22
2.5079728e-22
2.508567e-22
5.0239106e-22
5.0194919e-22
5.0169461e-22
5.0154791e-22
5.0146753e-22
5.0142927e-22
5.0142026e-22
5.0143715e-22
5.0148733e-22
5.0159331e-22
5.0194919e-22
5.0150895e-22
5.0125498e-22
5.0110858e-22
5.0102841e-22
5.0099043e-22
5.0098194e-22
5.0099999e-22
5.0105314e-22
5.0116765e-22
5.0169461e-22
5.0125498e-22
5.010014e-22
5.0085528e-22
5.0077538e-22
5.0073776e-22
5.007299e-22
5.0074913e-22
5.0080435e-22
5.0092179e-22
5.0154791e-22
5.0110858e-22
5.0085528e-22
5.007094e-22
5.0062976e-22
5.0059249e-22
5.0058516e-22
5.0060523e-22
5.0066161e-22
5.0078018e-22
5.0146753e-22
5.0102841e-22
5.0077538e-22
5.0062976e-22
5.0055037e-22
5.0051339e-22
5.0050646e-22
5.0052704e-22
5.0058404e-22
5.0070309e-22
5.0142927e-22
5.0099043e-22
5.0073776e-22
5.0059249e-22
5.0051339e-22
5.0047668e-22
5.0047003e-22
5.0049093e-22
5.0054824e-22
5.0066751e-22
5.0142026e-22
5.0098194e-22
5.007299e-22
5.0058516e-22
5.0050646e-22
5.0047003e-22
5.0046359e-22
5.0048469e-22
5.0054218e-22
5.0066156e-22
5.0143715e-22
5.0099999e-22
5.0074913e-22
5.0060523e-22
5.0052704e-22
5.0049093e-22
5.0048469e-22
5.0050594e-22
5.0056355e-22
5.0068301e-22
5.0148733e-22
5.0105314e-22
5.0080435e-22
5.0066161e-22
5.0058404e-22
5.0054824e-22
5.0054218e-22
5.0056355e-22
5.0062126e-22
5.0074085e-22
5.0159331e-22
5.0116765e-22
5.0092179e-22
5.0078018e-22
5.0070309e-22
5.0066751e-22
5.0066156e-22
5.0068301e-22
5.0074085e-22
5.008608e-22
9.073304e-22
9.065587e-22
9.061097e-22
9.058501e-22
9.0570762e-22
9.056397e-22
9.0562356e-22
9.0565311e-22
9.0574112e-22
9.0592923e-22
9.065587e-22
9.0578982e-22
9.0534187e-22
9.0508279e-22
9.0494069e-22
9.0487327e-22
9.0485806e-22
9.048897e-22
9.0498305e-22
9.051865e-22
9.061097e-22
9.0534187e-22
9.0489462e-22
9.0463604e-22
9.044944e-22
9.0442763e-22
9.0441355e-22
9.044473e-22
9.0454438e-22
9.0475309e-22
9.058501e-22
9.0508279e-22
9.0463604e-22
9.0437789e-22
9.0423672e-22
9.0417056e-22
9.0415744e-22
9.0419268e-22
9.0429185e-22
9.045026e-22
9.0570762e-22
9.0494069e-22
9.044944e-22
9.0423672e-22
9.04096e-22
9.0403037e-22
9.0401795e-22
9.0405413e-22
9.0415439e-22
9.04366e-22
9.056397e-22
9.0487327e-22
9.0442763e-22
9.0417056e-22
9.0403037e-22
9.0396521e-22
9.0395329e-22
9.0399004e-22
9.0409087e-22
9.0430288e-22
9.0562356e-22
9.0485806e-22
9.0441355e-22
9.0415744e-22
9.0401795e-22
9.0395329e-22
9.0394177e-22
9.0397888e-22
9.0408003e-22
9.0429223e-22
9.0565311e-22
9.048897e-22
9.044473e-22
9.0419268e-22
9.0405413e-22
9.0399004e-22
9.0397888e-22
9.0401624e-22
9.041176e-22
9.0432995e-22
9.0574112e-22
9.0498305e-22
9.0454438e-22
9.0429185e-22
9.0415439e-22
9.0409087e-22
9.0408003e-22
9.041176e-22
9.0421915e-22
9.0443173e-22
9.0592923e-22
9.051865e-22
9.0475309e-22
9.045026e-22
9.04366e-22
9.0430288e-22
9.0429223e-22
9.0432995e-22
9.0443173e-22
9.0464494e-22
1.599901e-21
1.5985855e-21
1.5978148e-21
1.5973678e-21
1.597122e-21
1.5970046e-21
1.5969764e-21
1.5970266e-21
1.5971763e-21
1.5974965e-21
1.5985855e-21
1.5972748e-21
1.5965059e-21
1.5960598e-21
1.5958146e-21
1.595698e-21
1.5956715e-21
1.5957253e-21
1.5958844e-21
1.5962316e-21
1.5978148e-21
1.5965059e-21
1.5957382e-21
1.5952929e-21
1.5950485e-21
1.5949331e-21
1.5949086e-21
1.5949661e-21
1.5951317e-21
1.5954881e-21
1.5973678e-21
1.5960598e-21
1.5952929e-21
1.5948483e-21
1.5946048e-21
1.5944904e-21
1.5944675e-21
1.5945277e-21
1.594697e-21
1.5950569e-21
1.597122e-21
1.5958146e-21
1.5950485e-21
1.5946048e-21
1.594362e-21
1.5942486e-21
1.5942269e-21
1.5942887e-21
1.5944599e-21
1.5948214e-21
1.5970046e-21
1.595698e-21
1.5949331e-21
1.5944904e-21
1.5942486e-21
1.594136e-21
1.5941152e-21
1.594178e-21
1.5943502e-21
1.5947123e-21
1.5969764e-21
1.5956715e-21
1.5949086e-21
1.5944675e-21
1.5942269e-21
1.5941152e-21
1.5940951e-21
1.5941585e-21
1.5943312e-21
1.5946938e-21
1.5970266e-21
1.5957253e-21
1.5949661e-21
1.5945277e-21
1.5942887e-21
1.594178e-21
1.5941585e-21
1.5942224e-21
1.5943955e-21
1.5947582e-21
1.5971763e-21
1.5958844e-21
1.5951317e-21
1.594697e-21
1.5944599e-21
1.5943502e-21
1.5943312e-21
1.5943955e-21
1.5945689e-21
1.594932e-21
1.5974965e-21
1.5962316e-21
1.5954881e-21
1.5950569e-21
1.5948214e-21
1.5947123e-21
1.5946938e-21
1.5947582e-21
1.594932e-21
1.5952963e-21
2.8172357e-21
2.8149973e-21
2.8136786e-21
2.8129113e-21
2.8124885e-21
2.8122863e-21
2.8122372e-21
2.8123221e-21
2.8125753e-21
2.8131148e-21
2.8149973e-21
2.8127669e-21
2.8114512e-21
2.8106854e-21
2.8102638e-21
2.810063e-21
2.8100168e-21
2.810108e-21
2.8103777e-21
2.8109644e-21
2.8136786e-21
2.8114512e-21
2.8101376e-21
2.8093733e-21
2.808953e-21
2.8087542e-21
2.8087115e-21
2.8088092e-21
2.8090902e-21
2.8096931e-21
2.8129113e-21
2.8106854e-21
2.8093733e-21
2.8086102e-21
2.8081913e-21
2.8079944e-21
2.8079546e-21
2.8080569e-21
2.8083443e-21
2.8089534e-21
2.8124885e-21
2.8102638e-21
2.808953e-21
2.8081913e-21
2.8077738e-21
2.8075785e-21
2.8075408e-21
2.8076459e-21
2.8079367e-21
2.8085484e-21
2.8122863e-21
2.810063e-21
2.8087542e-21
2.8079944e-21
2.8075785e-21
2.8073847e-21
2.8073485e-21
2.8074553e-21
2.8077478e-21
2.8083608e-21
2.8122372e-21
2.8100168e-21
2.8087115e-21
2.8079546e-21
2.8075408e-21
2.8073485e-21
2.8073135e-21
2.8074214e-21
2.8077149e-21
2.8083285e-21
2.8123221e-21
2.810108e-21
2.8088092e-21
2.8080569e-21
2.8076459e-21
2.8074553e-21
2.8074214e-21
2.8075302e-21
2.8078242e-21
2.8084383e-21
2.8125753e-21
2.8103777e-21
2.8090902e-21
2.8083443e-21
2.8079367e-21
2.8077478e-21
2.8077149e-21
2.8078242e-21
2.8081189e-21
2.8087335e-21
2.8131148e-21
2.8109644e-21
2.8096931e-21
2.8089534e-21
2.8085484e-21
2.8083608e-21
2.8083285e-21
2.8084383e-21
2.8087335e-21
2.80935e-21
4.9907678e-21
4.9869375e-21
4.9846701e-21
4.9833467e-21
4.9826159e-21
4.9822658e-21
4.98218e-21
4.9823241e-21
4.9827541e-21
4.9836646e-21
4.9869375e-21
4.9831209e-21
4.9808586e-21
4.9795377e-21
4.978809e-21
4.9784614e-21
4.9783806e-21
4.9785359e-21
4.9789947e-21
4.9799883e-21
4.9846701e-21
4.9808586e-21
4.9785998e-21
4.9772814e-21
4.9765551e-21
4.9762109e-21
4.9761362e-21
4.9763028e-21
4.9767817e-21
4.9778037e-21
4.9833467e-21
4.9795377e-21
4.9772814e-21
4.9759653e-21
4.9752414e-21
4.9749005e-21
4.9748309e-21
4.9750055e-21
4.9754956e-21
4.9765286e-21
4.9826159e-21
4.978809e-21
4.9765551e-21
4.9752414e-21
4.9745198e-21
4.9741818e-21
4.9741159e-21
4.9742955e-21
4.9747915e-21
4.9758291e-21
4.9822658e-21
4.9784614e-21
4.9762109e-21
4.9749005e-21
4.9741818e-21
4.9738463e-21
4.9737831e-21
4.9739657e-21
4.9744647e-21
4.9755045e-21
4.98218e-21
4.9783806e-21
4.9761362e-21
4.9748309e-21
4.9741159e-21
4.9737831e-21
4.973722e-21
4.9739065e-21
4.9744072e-21
4.9754481e-21
4.9823241e-21
4.9785359e-21
4.9763028e-21
4.9750055e-21
4.9742955e-21
4.9739657e-21
4.9739065e-21
4.9740925e-21
4.9745943e-21
4.9756359e-21
4.9827541e-21
4.9789947e-21
4.9767817e-21
4.9754956e-21
4.9747915e-21
4.9744647e-21
4.9744072e-21
4.9745943e-21
4.975097e-21
4.9761397e-21
4.9836646e-21
4.9799883e-21
4.9778037e-21
4.9765286e-21
4.9758291e-21
4.9755045e-21
4.9754481e-21
4.9756359e-21
4.9761397e-21
4.9771855e-21
8.9167345e-21
8.9101271e-21
8.9061978e-21
8.9038973e-21
8.9026246e-21
8.9020137e-21
8.9018626e-21
8.902109e-21
8.9028446e-21
8.9043911e-21
8.9101271e-21
8.9035432e-21
8.8996226e-21
8.8973266e-21
8.8960573e-21
8.8954509e-21
8.8953085e-21
8.8955749e-21
8.8963615e-21
8.8980556e-21
8.9061978e-21
8.8996226e-21
8.895708e-21
8.8934163e-21
8.8921513e-21
8.891551e-21
8.8914193e-21
8.8917057e-21
8.8925278e-21
8.8942724e-21
8.9038973e-21
8.8973266e-21
8.8934163e-21
8.8911286e-21
8.8898678e-21
8.8892733e-21
8.8891506e-21
8.8894512e-21
8.8902932e-21
8.8920572e-21
8.9026246e-21
8.8960573e-21
8.8921513e-21
8.8898678e-21
8.8886113e-21
8.8880217e-21
8.8879056e-21
8.888215e-21
8.8890674e-21
8.8908396e-21
8.9020137e-21
8.8954509e-21
8.891551e-21
8.8892733e-21
8.8880217e-21
8.8874366e-21
8.8873253e-21
8.88764e-21
8.8884978e-21
8.8902737e-21
8.9018626e-21
8.8953085e-21
8.8914193e-21
8.8891506e-21
8.8879056e-21
8.8873253e-21
8.8872177e-21
8.8875359e-21
8.8883966e-21
8.8901744e-21
8.902109e-21
8.8955749e-21
8.8917057e-21
8.8894512e-21
8.888215e-21
8.88764e-21
8.8875359e-21
8.8878564e-21
8.8887191e-21
8.8904982e-21
8.9028446e-21
8.8963615e-21
8.8925278e-21
8.8902932e-21
8.8890674e-21
8.8884978e-21
8.8883966e-21
8.8887191e-21
8.8895834e-21
8.8913644e-21
8.9043911e-21
8.8980556e-21
8.8942724e-21
8.8920572e-21
8.8908396e-21
8.8902737e-21
8.8901744e-21
8.8904982e-21
8.8913644e-21
8.8931506e-21
1.6080846e-20
1.6069346e-20
1.6062476e-20
1.6058442e-20
1.6056206e-20
1.6055131e-20
1.6054863e-20
1.6055288e-20
1.6056557e-20
1.6059206e-20
1.6069346e-20
1.6057886e-20
1.6051032e-20
1.6047005e-20
1.6044775e-20
1.6043708e-20
1.6043455e-20
1.6043916e-20
1.6045277e-20
1.604819e-20
1.6062476e-20
1.6051032e-20
1.6044188e-20
1.6040169e-20
1.6037946e-20
1.603689e-20
1.6036656e-20
1.6037153e-20
1.6038577e-20
1.604158e-20
1.6058442e-20
1.6047005e-20
1.6040169e-20
1.6036157e-20
1.6033942e-20
1.6032896e-20
1.6032679e-20
1.6033201e-20
1.603466e-20
1.6037698e-20
1.6056206e-20
1.6044775e-20
1.6037946e-20
1.6033942e-20
1.6031735e-20
1.6030698e-20
1.6030492e-20
1.603103e-20
1.6032507e-20
1.603556e-20
1.6055131e-20
1.6043708e-20
1.603689e-20
1.6032896e-20
1.6030698e-20
1.6029669e-20
1.6029471e-20
1.6030018e-20
1.6031506e-20
1.6034565e-20
1.6054863e-20
1.6043455e-20
1.6036656e-20
1.6032679e-20
1.6030492e-20
1.6029471e-20
1.602928e-20
1.6029833e-20
1.6031326e-20
1.6034389e-20
1.6055288e-20
1.6043916e-20
1.6037153e-20
1.6033201e-20
1.603103e-20
1.6030018e-20
1.6029833e-20
1.6030391e-20
1.6031887e-20
1.6034953e-20
1.6056557e-20
1.6045277e-20
1.6038577e-20
1.603466e-20
1.6032507e-20
1.6031506e-20
1.6031326e-20
1.6031887e-20
1.6033387e-20
1.6036455e-20
1.6059206e-20
1.604819e-20
1.604158e-20
1.6037698e-20
1.603556e-20
1.6034565e-20
1.6034389e-20
1.6034953e-20
1.6036455e-20
1.6039532e-20
2.9282716e-20
2.9262514e-20
2.9250393e-20
2.9243255e-20
2.9239291e-20
2.9237381e-20
2.92369e-20
2.9237641e-20
2.9239851e-20
2.924443e-20
2.9262514e-20
2.9242383e-20
2.9230288e-20
2.9223164e-20
2.921921e-20
2.9217315e-20
2.9216862e-20
2.9217667e-20
2.9220042e-20
2.9225098e-20
2.9250393e-20
2.9230288e-20
2.9218213e-20
2.9211101e-20
2.9207161e-20
2.9205285e-20
2.9204867e-20
2.9205736e-20
2.9208226e-20
2.9213445e-20
2.9243255e-20
2.9223164e-20
2.9211101e-20
2.9204003e-20
2.9200076e-20
2.9198218e-20
2.9197829e-20
2.9198744e-20
2.9201298e-20
2.9206579e-20
2.9239291e-20
2.921921e-20
2.9207161e-20
2.9200076e-20
2.9196162e-20
2.9194321e-20
2.9193952e-20
2.9194896e-20
2.9197483e-20
2.9202791e-20
2.9237381e-20
2.9217315e-20
2.9205285e-20
2.9198218e-20
2.9194321e-20
2.9192494e-20
2.919214e-20
2.9193101e-20
2.9195706e-20
2.9201026e-20
2.92369e-20
2.9216862e-20
2.9204867e-20
2.9197829e-20
2.9193952e-20
2.919214e-20
2.9191799e-20
2.9192771e-20
2.9195385e-20
2.9200711e-20
2.9237641e-20
2.9217667e-20
2.9205736e-20
2.9198744e-20
2.9194896e-20
2.9193101e-20
2.9192771e-20
2.919375e-20
2.919637e-20
2.92017e-20
2.9239851e-20
2.9220042e-20
2.9208226e-20
2.9201298e-20
2.9197483e-20
2.9195706e-20
2.9195385e-20
2.919637e-20
2.9198995e-20
2.9204331e-20
2.924443e-20
2.9225098e-20
2.9213445e-20
2.9206579e-20
2.9202791e-20
2.9201026e-20
2.9200711e-20
2.92017e-20
2.9204331e-20
2.9209682e-20
5.3848083e-20
5.3812261e-20
5.3790676e-20
5.3777928e-20
5.3770833e-20
5.3767411e-20
5.3766541e-20
5.3767845e-20
5.3771731e-20
5.3779718e-20
5.3812261e-20
5.3776564e-20
5.3755026e-20
5.3742301e-20
5.3735225e-20
5.3731829e-20
5.373101e-20
5.3732431e-20
5.3736617e-20
5.3745476e-20
5.3790676e-20
5.3755026e-20
5.373352e-20
5.3720819e-20
5.3713767e-20
5.3710406e-20
5.370965e-20
5.3711188e-20
5.3715583e-20
5.3724738e-20
5.3777928e-20
5.3742301e-20
5.3720819e-20
5.370814e-20
5.3701113e-20
5.3697786e-20
5.3697082e-20
5.3698703e-20
5.3703213e-20
5.3712483e-20
5.3770833e-20
5.3735225e-20
5.3713767e-20
5.3701113e-20
5.3694111e-20
5.3690812e-20
5.3690147e-20
5.3691819e-20
5.3696391e-20
5.3705709e-20
5.3767411e-20
5.3731829e-20
5.3710406e-20
5.3697786e-20
5.3690812e-20
5.368754e-20
5.3686902e-20
5.3688605e-20
5.3693208e-20
5.3702548e-20
5.3766541e-20
5.373101e-20
5.370965e-20
5.3697082e-20
5.3690147e-20
5.3686902e-20
5.3686286e-20
5.3688009e-20
5.3692629e-20
5.370198e-20
5.3767845e-20
5.3732431e-20
5.3711188e-20
5.3698703e-20
5.3691819e-20
5.3688605e-20
5.3688009e-20
5.3689746e-20
5.3694378e-20
5.3703736e-20
5.3771731e-20
5.3736617e-20
5.3715583e-20
5.3703213e-20
5.3696391e-20
5.3693208e-20
5.3692629e-20
5.3694378e-20
5.3699019e-20
5.3708387e-20
5.3779718e-20
5.3745476e-20
5.3724738e-20
5.3712483e-20
5.3705709e-20
5.3702548e-20
5.370198e-20
5.3703736e-20
5.3708387e-20
5.3717781e-20
1.0000371e-19
9.9939591e-20
9.990079e-20
9.9877807e-20
9.9864994e-20
9.9858803e-20
9.9857216e-20
9.9859532e-20
9.986643e-20
9.9880496e-20
9.9939591e-20
9.9875694e-20
9.9836974e-20
9.9814034e-20
9.9801255e-20
9.9795112e-20
9.9793619e-20
9.979615e-20
9.98036e-20
9.9819271e-20
9.990079e-20
9.9836974e-20
9.9798314e-20
9.9775417e-20
9.9762681e-20
9.9756602e-20
9.9755225e-20
9.975797e-20
9.9765804e-20
9.9782021e-20
9.9877807e-20
9.9814034e-20
9.9775417e-20
9.975256e-20
9.9739869e-20
9.9733852e-20
9.973257e-20
9.9735468e-20
9.9743515e-20
9.9759943e-20
9.9864994e-20
9.9801255e-20
9.9762681e-20
9.9739869e-20
9.9727224e-20
9.9721259e-20
9.9720048e-20
9.972304e-20
9.9731198e-20
9.9747715e-20
9.9858803e-20
9.9795112e-20
9.9756602e-20
9.9733852e-20
9.9721259e-20
9.9715342e-20
9.9714181e-20
9.9717231e-20
9.9725447e-20
9.9742004e-20
9.9857216e-20
9.9793619e-20
9.9755225e-20
9.973257e-20
9.9720048e-20
9.9714181e-20
9.9713061e-20
9.9716147e-20
9.9724394e-20
9.9740971e-20
9.9859532e-20
9.979615e-20
9.975797e-20
9.9735468e-20
9.972304e-20
9.9717231e-20
9.9716147e-20
9.9719258e-20
9.9727526e-20
9.9744116e-20
9.986643e-20
9.98036e-20
9.9765804e-20
9.9743515e-20
9.9731198e-20
9.9725447e-20
9.9724394e-20
9.9727526e-20
9.9735811e-20
9.9752419e-20
9.9880496e-20
9.9819271e-20
9.9782021e-20
9.9759943e-20
9.9747715e-20
9.9742004e-20
9.9740971e-20
9.9744116e-20
9.9752419e-20
9.9769073e-20
1.875725e-19
1.8745664e-19
1.8738623e-19
1.8734441e-19
1.8732105e-19
1.8730975e-19
1.8730683e-19
1.8731099e-19
1.8732335e-19
1.8734836e-19
1.8745664e-19
1.8734118e-19
1.8727092e-19
1.8722918e-19
1.8720588e-19
1.8719466e-19
1.8719192e-19
1.8719647e-19
1.8720986e-19
1.8723785e-19
1.8738623e-19
1.8727092e-19
1.8720076e-19
1.871591e-19
1.8713588e-19
1.8712478e-19
1.8712225e-19
1.871272e-19
1.871413e-19
1.8717031e-19
1.8734441e-19
1.8722918e-19
1.871591e-19
1.8711751e-19
1.8709437e-19
1.8708339e-19
1.8708103e-19
1.8708627e-19
1.8710076e-19
1.8713016e-19
1.8732105e-19
1.8720588e-19
1.8713588e-19
1.8709437e-19
1.8707132e-19
1.8706043e-19
1.8705821e-19
1.8706362e-19
1.8707832e-19
1.8710788e-19
1.8730975e-19
1.8719466e-19
1.8712478e-19
1.8708339e-19
1.8706043e-19
1.8704964e-19
1.8704751e-19
1.8705302e-19
1.8706783e-19
1.8709747e-19
1.8730683e-19
1.8719192e-19
1.8712225e-19
1.8708103e-19
1.8705821e-19
1.8704751e-19
1.8704545e-19
1.8705103e-19
1.870659e-19
1.8709558e-19
1.8731099e-19
1.8719647e-19
1.871272e-19
1.8708627e-19
1.8706362e-19
1.8705302e-19
1.8705103e-19
1.8705666e-19
1.8707157e-19
1.8710127e-19
1.8732335e-19
1.8720986e-19
1.871413e-19
1.8710076e-19
1.8707832e-19
1.8706783e-19
1.870659e-19
1.8707157e-19
1.870865e-19
1.8711623e-19
1.8734836e-19
1.8723785e-19
1.8717031e-19
1.8713016e-19
1.8710788e-19
1.8709747e-19
1.8709558e-19
1.8710127e-19
1.8711623e-19
1.8714605e-19
3.5534007e-19
3.5512873e-19
3.5499975e-19
3.5492294e-19
3.5487995e-19
3.5485912e-19
3.548537e-19
3.5486123e-19
3.548836e-19
3.5492851e-19
3.5512873e-19
3.549181e-19
3.547894e-19
3.5471272e-19
3.5466985e-19
3.5464918e-19
3.5464409e-19
3.5465236e-19
3.5467666e-19
3.5472715e-19
3.5499975e-19
3.547894e-19
3.5466089e-19
3.5458435e-19
3.5454163e-19
3.5452118e-19
3.5451649e-19
3.5452551e-19
3.5455113e-19
3.5460353e-19
3.5492294e-19
3.5471272e-19
3.5458435e-19
3.5450795e-19
3.5446538e-19
3.5444515e-19
3.5444079e-19
3.5445033e-19
3.544767e-19
3.5452983e-19
3.5487995e-19
3.5466985e-19
3.5454163e-19
3.5446538e-19
3.5442297e-19
3.5440291e-19
3.543988e-19
3.5440867e-19
3.5443543e-19
3.5448887e-19
3.5485912e-19
3.5464918e-19
3.5452118e-19
3.5444515e-19
3.5440291e-19
3.5438303e-19
3.5437909e-19
3.5438916e-19
3.5441611e-19
3.5446969e-19
3.548537e-19
3.5464409e-19
3.5451649e-19
3.5444079e-19
3.543988e-19
3.5437909e-19
3.5437528e-19
3.5438548e-19
3.5441254e-19
3.544662e-19
3.5486123e-19
3.5465236e-19
3.5452551e-19
3.5445033e-19
3.5440867e-19
3.5438916e-19
3.5438548e-19
3.5439576e-19
3.544229e-19
3.5447659e-19
3.548836e-19
3.5467666e-19
3.5455113e-19
3.544767e-19
3.5443543e-19
3.5441611e-19
3.5441254e-19
3.544229e-19
3.5445009e-19
3.5450384e-19
3.5492851e-19
3.5472715e-19
3.5460353e-19
3.5452983e-19
3.5448887e-19
3.5446969e-19
3.544662e-19
3.5447659e-19
3.5450384e-19
3.5455774e-19
6.7991047e-19
6.7952128e-19
6.792828e-19
6.7914036e-19
6.7906052e-19
6.7902177e-19
6.7901163e-19
6.790254e-19
6.7906628e-19
6.7914768e-19
6.7952128e-19
6.7913341e-19
6.7889541e-19
6.7875323e-19
6.786736e-19
6.7863516e-19
6.7862563e-19
6.7864081e-19
6.7868534e-19
6.7877733e-19
6.792828e-19
6.7889541e-19
6.7865778e-19
6.7851586e-19
6.7843651e-19
6.7839849e-19
6.7838971e-19
6.784063e-19
6.7845334e-19
6.7854893e-19
6.7914036e-19
6.7875323e-19
6.7851586e-19
6.7837421e-19
6.7829514e-19
6.7825751e-19
6.7824937e-19
6.7826695e-19
6.783154e-19
6.7841237e-19
6.7906052e-19
6.786736e-19
6.7843651e-19
6.7829514e-19
6.7821636e-19
6.7817908e-19
6.7817139e-19
6.781896e-19
6.7823877e-19
6.7833633e-19
6.7902177e-19
6.7863516e-19
6.7839849e-19
6.7825751e-19
6.7817908e-19
6.7814211e-19
6.7813476e-19
6.7815333e-19
6.7820289e-19
6.7830071e-19
6.7901163e-19
6.7862563e-19
6.7838971e-19
6.7824937e-19
6.7817139e-19
6.7813476e-19
6.7812766e-19
6.7814647e-19
6.7819623e-19
6.7829419e-19
6.790254e-19
6.7864081e-19
6.784063e-19
6.7826695e-19
6.781896e-19
6.7815333e-19
6.7814647e-19
6.7816545e-19
6.7821534e-19
6.7831338e-19
6.7906628e-19
6.7868534e-19
6.7845334e-19
6.783154e-19
6.7823877e-19
6.7820289e-19
6.7819623e-19
6.7821534e-19
6.7826534e-19
6.7836348e-19
6.7914768e-19
6.7877733e-19
6.7854893e-19
6.7841237e-19
6.7833633e-19
6.7830071e-19
6.7829419e-19
6.7831338e-19
6.7836348e-19
6.7846189e-19
1.3140093e-18
1.3132858e-18
1.3128406e-18
1.312574e-18
1.3124243e-18
1.3123516e-18
1.3123324e-18
1.3123579e-18
1.3124333e-18
1.3125823e-18
1.3132858e-18
1.3125647e-18
1.3121204e-18
1.3118543e-18
1.311705e-18
1.3116329e-18
1.3116149e-18
1.311643e-18
1.3117254e-18
1.3118946e-18
1.3128406e-18
1.3121204e-18
1.3116769e-18
1.3114112e-18
1.3112625e-18
1.3111911e-18
1.3111745e-18
1.3112054e-18
1.3112926e-18
1.3114687e-18
1.312574e-18
1.3118543e-18
1.3114112e-18
1.3111461e-18
1.3109979e-18
1.3109273e-18
1.3109119e-18
1.3109446e-18
1.3110345e-18
1.3112133e-18
1.3124243e-18
1.311705e-18
1.3112625e-18
1.3109979e-18
1.3108502e-18
1.3107802e-18
1.3107658e-18
1.3107997e-18
1.3108909e-18
1.3110708e-18
1.3123516e-18
1.3116329e-18
1.3111911e-18
1.3109273e-18
1.3107802e-18
1.3107109e-18
1.310697e-18
1.3107316e-18
1.3108236e-18
1.311004e-18
1.3123324e-18
1.3116149e-18
1.3111745e-18
1.3109119e-18
1.3107658e-18
1.310697e-18
1.3106837e-18
1.3107187e-18
1.3108111e-18
1.3109917e-18
1.3123579e-18
1.311643e-18
1.3112054e-18
1.3109446e-18
1.3107997e-18
1.3107316e-18
1.3107187e-18
1.3107541e-18
1.3108468e-18
1.3110275e-18
1.3124333e-18
1.3117254e-18
1.3112926e-18
1.3110345e-18
1.3108909e-18
1.3108236e-18
1.3108111e-18
1.3108468e-18
1.3109396e-18
1.3111206e-18
1.3125823e-18
1.3118946e-18
1.3114687e-18
1.3112133e-18
1.3110708e-18
1.311004e-18
1.3109917e-18
1.3110275e-18
1.3111206e-18
1.311302e-18
2.5649969e-18
2.5636391e-18
2.5628003e-18
2.5622967e-18
2.5620133e-18
2.5618755e-18
2.561839e-18
2.5618865e-18
2.5620271e-18
2.5623025e-18
2.5636391e-18
2.5622858e-18
2.5614487e-18
2.5609459e-18
2.5606633e-18
2.5605266e-18
2.5604924e-18
2.5605451e-18
2.5606991e-18
2.5610135e-18
2.5628003e-18
2.5614487e-18
2.5606128e-18
2.560111e-18
2.5598295e-18
2.5596943e-18
2.5596628e-18
2.5597206e-18
2.5598839e-18
2.5602116e-18
2.5622967e-18
2.5609459e-18
2.560111e-18
2.5596101e-18
2.5593296e-18
2.5591959e-18
2.5591667e-18
2.5592282e-18
2.5593966e-18
2.5597294e-18
2.5620133e-18
2.5606633e-18
2.5598295e-18
2.5593296e-18
2.5590501e-18
2.5589177e-18
2.5588902e-18
2.5589539e-18
2.559125e-18
2.55946e-18
2.5618755e-18
2.5605266e-18
2.5596943e-18
2.5591959e-18
2.5589177e-18
2.5587863e-18
2.55876e-18
2.5588252e-18
2.5589977e-18
2.5593336e-18
2.561839e-18
2.5604924e-18
2.5596628e-18
2.5591667e-18
2.5588902e-18
2.55876e-18
2.5587347e-18
2.5588007e-18
2.558974e-18
2.5593103e-18
2.5618865e-18
2.5605451e-18
2.5597206e-18
2.5592282e-18
2.5589539e-18
2.5588252e-18
2.5588007e-18
2.5588673e-18
2.559041e-18
2.5593777e-18
2.5620271e-18
2.5606991e-18
2.5598839e-18
2.5593966e-18
2.559125e-18
2.5589977e-18
2.558974e-18
2.559041e-18
2.5592151e-18
2.5595522e-18
2.5623025e-18
2.5610135e-18
2.5602116e-18
2.5597294e-18
2.55946e-18
2.5593336e-18
2.5593103e-18
2.5593777e-18
2.5595522e-18
2.5598901e-18
5.057259e-18
5.0546866e-18
5.0530912e-18
5.0521307e-18
5.0515895e-18
5.0513259e-18
5.0512558e-18
5.0513453e-18
5.0516099e-18
5.0521238e-18
5.0546866e-18
5.0521226e-18
5.0505305e-18
5.0495717e-18
5.0490319e-18
5.0487705e-18
5.0487047e-18
5.0488043e-18
5.049095e-18
5.0496849e-18
5.0530912e-18
5.0505305e-18
5.0489406e-18
5.0479837e-18
5.0474458e-18
5.0471873e-18
5.0471269e-18
5.0472366e-18
5.0475453e-18
5.0481611e-18
5.0521307e-18
5.0495717e-18
5.0479837e-18
5.0470284e-18
5.0464926e-18
5.046237e-18
5.046181e-18
5.0462978e-18
5.0466165e-18
5.0472422e-18
5.0515895e-18
5.0490319e-18
5.0474458e-18
5.0464926e-18
5.0459589e-18
5.0457056e-18
5.045653e-18
5.0457742e-18
5.0460981e-18
5.046728e-18
5.0513259e-18
5.0487705e-18
5.0471873e-18
5.046237e-18
5.0457056e-18
5.0454546e-18
5.0454043e-18
5.0455282e-18
5.0458548e-18
5.0464865e-18
5.0512558e-18
5.0487047e-18
5.0471269e-18
5.046181e-18
5.045653e-18
5.0454043e-18
5.0453559e-18
5.0454814e-18
5.0458095e-18
5.0464422e-18
5.0513453e-18
5.0488043e-18
5.0472366e-18
5.0462978e-18
5.0457742e-18
5.0455282e-18
5.0454814e-18
5.0456081e-18
5.0459371e-18
5.0465704e-18
5.0516099e-18
5.049095e-18
5.0475453e-18
5.0466165e-18
5.0460981e-18
5.0458548e-18
5.0458095e-18
5.0459371e-18
5.0462669e-18
5.0469008e-18
5.0521238e-18
5.0496849e-18
5.0481611e-18
5.0472422e-18
5.046728e-18
5.0464865e-18
5.0464422e-18
5.0465704e-18
5.0469008e-18
5.0475363e-18
1.0071105e-17
1.0066186e-17
1.0063123e-17
1.0061274e-17
1.0060231e-17
1.0059722e-17
1.0059586e-17
1.0059756e-17
1.0060259e-17
1.0061227e-17
1.0066186e-17
1.0061282e-17
1.0058225e-17
1.005638e-17
1.0055339e-17
1.0054835e-17
1.0054707e-17
1.0054898e-17
1.0055452e-17
1.005657e-17
1.0063123e-17
1.0058225e-17
1.0055173e-17
1.0053331e-17
1.0052294e-17
1.0051795e-17
1.0051678e-17
1.0051889e-17
1.0052478e-17
1.0053647e-17
1.0061274e-17
1.005638e-17
1.0053331e-17
1.0051492e-17
1.005046e-17
1.0049966e-17
1.0049858e-17
1.0050082e-17
1.0050691e-17
1.0051879e-17
1.0060231e-17
1.0055339e-17
1.0052294e-17
1.005046e-17
1.0049431e-17
1.0048942e-17
1.004884e-17
1.0049073e-17
1.0049692e-17
1.0050889e-17
1.0059722e-17
1.0054835e-17
1.0051795e-17
1.0049966e-17
1.0048942e-17
1.0048458e-17
1.0048361e-17
1.0048599e-17
1.0049223e-17
1.0050423e-17
1.0059586e-17
1.0054707e-17
1.0051678e-17
1.0049858e-17
1.004884e-17
1.0048361e-17
1.0048267e-17
1.0048509e-17
1.0049136e-17
1.0050338e-17
1.0059756e-17
1.0054898e-17
1.0051889e-17
1.0050082e-17
1.0049073e-17
1.0048599e-17
1.0048509e-17
1.0048752e-17
1.0049381e-17
1.0050584e-17
1.0060259e-17
1.0055452e-17
1.0052478e-17
1.0050691e-17
1.0049692e-17
1.0049223e-17
1.0049136e-17
1.0049381e-17
1.0050012e-17
1.0051216e-17
1.0061227e-17
1.005657e-17
1.0053647e-17
1.0051879e-17
1.0050889e-17
1.0050423e-17
1.0050338e-17
1.0050584e-17
1.0051216e-17
1.0052423e-17
2.0256361e-17
2.0246865e-17
2.024093e-17
2.0237338e-17
2.0235308e-17
2.0234317e-17
2.0234051e-17
2.0234379e-17
2.0235344e-17
2.0237186e-17
2.0246865e-17
2.0237399e-17
2.0231476e-17
2.022789e-17
2.0225865e-17
2.0224883e-17
2.0224634e-17
2.0225001e-17
2.0226068e-17
2.0228206e-17
2.024093e-17
2.0231476e-17
2.0225561e-17
2.0221982e-17
2.0219965e-17
2.0218993e-17
2.0218765e-17
2.0219171e-17
2.0220308e-17
2.0222548e-17
2.0237338e-17
2.022789e-17
2.0221982e-17
2.021841e-17
2.0216401e-17
2.021544e-17
2.0215229e-17
2.0215663e-17
2.0216839e-17
2.0219117e-17
2.0235308e-17
2.0225865e-17
2.0219965e-17
2.0216401e-17
2.0214399e-17
2.0213448e-17
2.021325e-17
2.0213701e-17
2.0214897e-17
2.0217191e-17
2.0234317e-17
2.0224883e-17
2.0218993e-17
2.021544e-17
2.0213448e-17
2.0212505e-17
2.0212316e-17
2.0212778e-17
2.0213984e-17
2.0216286e-17
2.0234051e-17
2.0224634e-17
2.0218765e-17
2.0215229e-17
2.021325e-17
2.0212316e-17
2.0212135e-17
2.0212602e-17
2.0213815e-17
2.021612e-17
2.0234379e-17
2.0225001e-17
2.0219171e-17
2.0215663e-17
2.0213701e-17
2.0212778e-17
2.0212602e-17
2.0213075e-17
2.0214291e-17
2.0216598e-17
2.0235344e-17
2.0226068e-17
2.0220308e-17
2.0216839e-17
2.0214897e-17
2.0213984e-17
2.0213815e-17
2.0214291e-17
2.0215509e-17
2.0217819e-17
2.0237186e-17
2.0228206e-17
2.0222548e-17
2.0219117e-17
2.0217191e-17
2.0216286e-17
2.021612e-17
2.0216598e-17
2.0217819e-17
2.0220135e-17
4.1148283e-17
4.1129779e-17
4.1118171e-17
4.111113e-17
4.1107142e-17
4.1105194e-17
4.110467e-17
4.1105307e-17
4.1107177e-17
4.1110716e-17
4.1129779e-17
4.1111336e-17
4.109975e-17
4.1092721e-17
4.1088744e-17
4.1086813e-17
4.1086322e-17
4.1087038e-17
4.1089112e-17
4.1093245e-17
4.1118171e-17
4.109975e-17
4.1088182e-17
4.1081166e-17
4.1077204e-17
4.1075295e-17
4.1074846e-17
4.107564e-17
4.1077854e-17
4.1082189e-17
4.111113e-17
4.1092721e-17
4.1081166e-17
4.1074163e-17
4.1070217e-17
4.106833e-17
4.1067915e-17
4.1068765e-17
4.1071056e-17
4.1075468e-17
4.1107142e-17
4.1088744e-17
4.1077204e-17
4.1070217e-17
4.1066286e-17
4.1064418e-17
4.1064029e-17
4.1064913e-17
4.1067245e-17
4.1071689e-17
4.1105194e-17
4.1086813e-17
4.1075295e-17
4.106833e-17
4.1064418e-17
4.1062567e-17
4.1062196e-17
4.10631e-17
4.1065453e-17
4.1069912e-17
4.110467e-17
4.1086322e-17
4.1074846e-17
4.1067915e-17
4.1064029e-17
4.1062196e-17
4.106184e-17
4.1062757e-17
4.1065121e-17
4.1069588e-17
4.1105307e-17
4.1087038e-17
4.107564e-17
4.1068765e-17
4.1064913e-17
4.10631e-17
4.1062757e-17
4.1063683e-17
4.1066054e-17
4.1070525e-17
4.1107177e-17
4.1089112e-17
4.1077854e-17
4.1071056e-17
4.1067245e-17
4.1065453e-17
4.1065121e-17
4.1066054e-17
4.1068431e-17
4.1072907e-17
4.1110716e-17
4.1093245e-17
4.1082189e-17
4.1075468e-17
4.1071689e-17
4.1069912e-17
4.1069588e-17
4.1070525e-17
4.1072907e-17
4.1077393e-17