/*--------------------------------*- C++ -*----------------------------------*\
| =========                 |                                                 |
| \\      /  F ield         | OpenFOAM: The Open Source CFD Toolbox           |
|  \\    /   O peration     | Version:  dev                                   |
|   \\  /    A nd           | Web:      www.OpenFOAM.org                      |
|    \\/     M anipulation  |                                                 |
\*---------------------------------------------------------------------------*/
FoamFile
{
    version     2.0;
    format      ascii;
    class       volScalarField;
    location    "19";
    object      A;
}
// * * * * * * * * * * * * * * * * * * * * * * * * * * * * * * * * * * * * * //

dimensions      [0 0 0 0 1 0 0];

internalField   nonuniform List<scalar> 
10000
(
6.5936666e-55
6.5927791e-55
6.5923871e-55
6.5922303e-55
6.5921754e-55
6.5921589e-55
6.5921553e-55
6.5921573e-55
6.5921664e-55
6.5921956e-55
6.5927791e-55
6.591892e-55
6.5915002e-55
6.5913434e-55
6.5912886e-55
6.5912721e-55
6.5912688e-55
6.5912717e-55
6.5912838e-55
6.5913225e-55
6.5923871e-55
6.5915002e-55
6.5911084e-55
6.5909517e-55
6.5908968e-55
6.5908805e-55
6.5908774e-55
6.5908811e-55
6.5908948e-55
6.5909365e-55
6.5922303e-55
6.5913434e-55
6.5909517e-55
6.5907949e-55
6.5907401e-55
6.5907238e-55
6.5907209e-55
6.5907249e-55
6.5907393e-55
6.5907819e-55
6.5921754e-55
6.5912886e-55
6.5908968e-55
6.5907401e-55
6.5906853e-55
6.590669e-55
6.5906662e-55
6.5906703e-55
6.590685e-55
6.5907279e-55
6.5921589e-55
6.5912721e-55
6.5908805e-55
6.5907238e-55
6.590669e-55
6.5906527e-55
6.5906499e-55
6.5906541e-55
6.5906688e-55
6.5907118e-55
6.5921553e-55
6.5912688e-55
6.5908774e-55
6.5907209e-55
6.5906662e-55
6.5906499e-55
6.5906471e-55
6.5906513e-55
6.5906661e-55
6.590709e-55
6.5921573e-55
6.5912717e-55
6.5908811e-55
6.5907249e-55
6.5906703e-55
6.5906541e-55
6.5906513e-55
6.5906555e-55
6.5906703e-55
6.5907132e-55
6.5921664e-55
6.5912838e-55
6.5908948e-55
6.5907393e-55
6.590685e-55
6.5906688e-55
6.5906661e-55
6.5906703e-55
6.590685e-55
6.590728e-55
6.5921956e-55
6.5913225e-55
6.5909365e-55
6.5907819e-55
6.5907279e-55
6.5907118e-55
6.590709e-55
6.5907132e-55
6.590728e-55
6.590771e-55
3.3159973e-54
3.3155637e-54
3.31537e-54
3.3152924e-54
3.3152653e-54
3.3152571e-54
3.3152553e-54
3.3152563e-54
3.3152608e-54
3.3152757e-54
3.3155637e-54
3.3151303e-54
3.3149367e-54
3.3148591e-54
3.3148319e-54
3.3148238e-54
3.3148222e-54
3.3148236e-54
3.3148296e-54
3.3148493e-54
3.31537e-54
3.3149367e-54
3.3147431e-54
3.3146655e-54
3.3146384e-54
3.3146303e-54
3.3146288e-54
3.3146306e-54
3.3146374e-54
3.3146585e-54
3.3152924e-54
3.3148591e-54
3.3146655e-54
3.314588e-54
3.3145608e-54
3.3145527e-54
3.3145513e-54
3.3145533e-54
3.3145604e-54
3.3145821e-54
3.3152653e-54
3.3148319e-54
3.3146384e-54
3.3145608e-54
3.3145337e-54
3.3145256e-54
3.3145242e-54
3.3145263e-54
3.3145336e-54
3.3145553e-54
3.3152571e-54
3.3148238e-54
3.3146303e-54
3.3145527e-54
3.3145256e-54
3.3145176e-54
3.3145162e-54
3.3145183e-54
3.3145256e-54
3.3145474e-54
3.3152553e-54
3.3148222e-54
3.3146288e-54
3.3145513e-54
3.3145242e-54
3.3145162e-54
3.3145148e-54
3.3145169e-54
3.3145242e-54
3.314546e-54
3.3152563e-54
3.3148236e-54
3.3146306e-54
3.3145533e-54
3.3145263e-54
3.3145183e-54
3.3145169e-54
3.314519e-54
3.3145263e-54
3.3145481e-54
3.3152608e-54
3.3148296e-54
3.3146374e-54
3.3145604e-54
3.3145336e-54
3.3145256e-54
3.3145242e-54
3.3145263e-54
3.3145336e-54
3.3145554e-54
3.3152757e-54
3.3148493e-54
3.3146585e-54
3.3145821e-54
3.3145553e-54
3.3145474e-54
3.314546e-54
3.3145481e-54
3.3145554e-54
3.3145772e-54
1.2946377e-53
1.2944732e-53
1.2943994e-53
1.2943698e-53
1.2943594e-53
1.2943563e-53
1.2943556e-53
1.294356e-53
1.2943577e-53
1.2943633e-53
1.2944732e-53
1.2943087e-53
1.2942349e-53
1.2942053e-53
1.294195e-53
1.2941919e-53
1.2941912e-53
1.2941918e-53
1.2941941e-53
1.2942016e-53
1.2943994e-53
1.2942349e-53
1.2941612e-53
1.2941316e-53
1.2941212e-53
1.2941181e-53
1.2941175e-53
1.2941182e-53
1.2941208e-53
1.2941289e-53
1.2943698e-53
1.2942053e-53
1.2941316e-53
1.294102e-53
1.2940916e-53
1.2940885e-53
1.294088e-53
1.2940887e-53
1.2940915e-53
1.2940997e-53
1.2943594e-53
1.294195e-53
1.2941212e-53
1.2940916e-53
1.2940813e-53
1.2940782e-53
1.2940777e-53
1.2940784e-53
1.2940812e-53
1.2940895e-53
1.2943563e-53
1.2941919e-53
1.2941181e-53
1.2940885e-53
1.2940782e-53
1.2940751e-53
1.2940746e-53
1.2940754e-53
1.2940782e-53
1.2940865e-53
1.2943556e-53
1.2941912e-53
1.2941175e-53
1.294088e-53
1.2940777e-53
1.2940746e-53
1.2940741e-53
1.2940748e-53
1.2940776e-53
1.2940859e-53
1.294356e-53
1.2941918e-53
1.2941182e-53
1.2940887e-53
1.2940784e-53
1.2940754e-53
1.2940748e-53
1.2940756e-53
1.2940784e-53
1.2940867e-53
1.2943577e-53
1.2941941e-53
1.2941208e-53
1.2940915e-53
1.2940812e-53
1.2940782e-53
1.2940776e-53
1.2940784e-53
1.2940812e-53
1.2940895e-53
1.2943633e-53
1.2942016e-53
1.2941289e-53
1.2940997e-53
1.2940895e-53
1.2940865e-53
1.2940859e-53
1.2940867e-53
1.2940895e-53
1.2940979e-53
5.0753247e-53
5.0746981e-53
5.0744161e-53
5.0743029e-53
5.0742632e-53
5.0742512e-53
5.0742487e-53
5.0742501e-53
5.0742565e-53
5.0742776e-53
5.0746981e-53
5.0740719e-53
5.07379e-53
5.0736767e-53
5.0736371e-53
5.0736252e-53
5.0736228e-53
5.0736249e-53
5.0736335e-53
5.0736617e-53
5.0744161e-53
5.07379e-53
5.0735081e-53
5.0733949e-53
5.0733553e-53
5.0733434e-53
5.0733412e-53
5.0733439e-53
5.0733538e-53
5.0733842e-53
5.0743029e-53
5.0736767e-53
5.0733949e-53
5.0732817e-53
5.0732421e-53
5.0732303e-53
5.0732282e-53
5.0732311e-53
5.0732415e-53
5.0732726e-53
5.0742632e-53
5.0736371e-53
5.0733553e-53
5.0732421e-53
5.0732024e-53
5.0731906e-53
5.0731886e-53
5.0731917e-53
5.0732022e-53
5.0732335e-53
5.0742512e-53
5.0736252e-53
5.0733434e-53
5.0732303e-53
5.0731906e-53
5.0731789e-53
5.0731769e-53
5.0731799e-53
5.0731906e-53
5.0732219e-53
5.0742487e-53
5.0736228e-53
5.0733412e-53
5.0732282e-53
5.0731886e-53
5.0731769e-53
5.0731749e-53
5.0731779e-53
5.0731886e-53
5.0732199e-53
5.0742501e-53
5.0736249e-53
5.0733439e-53
5.0732311e-53
5.0731917e-53
5.0731799e-53
5.0731779e-53
5.073181e-53
5.0731917e-53
5.073223e-53
5.0742565e-53
5.0736335e-53
5.0733538e-53
5.0732415e-53
5.0732022e-53
5.0731906e-53
5.0731886e-53
5.0731917e-53
5.0732023e-53
5.0732337e-53
5.0742776e-53
5.0736617e-53
5.0733842e-53
5.0732726e-53
5.0732335e-53
5.0732219e-53
5.0732199e-53
5.073223e-53
5.0732337e-53
5.073265e-53
2.0285705e-52
2.0283274e-52
2.0282176e-52
2.0281734e-52
2.028158e-52
2.0281533e-52
2.0281523e-52
2.0281529e-52
2.0281553e-52
2.0281633e-52
2.0283274e-52
2.0280844e-52
2.0279746e-52
2.0279305e-52
2.027915e-52
2.0279104e-52
2.0279095e-52
2.0279103e-52
2.0279136e-52
2.0279244e-52
2.0282176e-52
2.0279746e-52
2.0278649e-52
2.0278208e-52
2.0278053e-52
2.0278007e-52
2.0277998e-52
2.0278009e-52
2.0278047e-52
2.0278164e-52
2.0281734e-52
2.0279305e-52
2.0278208e-52
2.0277766e-52
2.0277612e-52
2.0277566e-52
2.0277558e-52
2.0277569e-52
2.027761e-52
2.0277729e-52
2.028158e-52
2.027915e-52
2.0278053e-52
2.0277612e-52
2.0277457e-52
2.0277411e-52
2.0277403e-52
2.0277415e-52
2.0277457e-52
2.0277577e-52
2.0281533e-52
2.0279104e-52
2.0278007e-52
2.0277566e-52
2.0277411e-52
2.0277365e-52
2.0277358e-52
2.027737e-52
2.0277411e-52
2.0277531e-52
2.0281523e-52
2.0279095e-52
2.0277998e-52
2.0277558e-52
2.0277403e-52
2.0277358e-52
2.027735e-52
2.0277362e-52
2.0277403e-52
2.0277524e-52
2.0281529e-52
2.0279103e-52
2.0278009e-52
2.0277569e-52
2.0277415e-52
2.027737e-52
2.0277362e-52
2.0277374e-52
2.0277416e-52
2.0277536e-52
2.0281553e-52
2.0279136e-52
2.0278047e-52
2.027761e-52
2.0277457e-52
2.0277411e-52
2.0277403e-52
2.0277416e-52
2.0277457e-52
2.0277577e-52
2.0281633e-52
2.0279244e-52
2.0278164e-52
2.0277729e-52
2.0277577e-52
2.0277531e-52
2.0277524e-52
2.0277536e-52
2.0277577e-52
2.0277698e-52
8.2753455e-52
8.274383e-52
8.2739471e-52
8.2737715e-52
8.2737099e-52
8.2736913e-52
8.2736874e-52
8.2736897e-52
8.2736994e-52
8.2737302e-52
8.274383e-52
8.2734209e-52
8.2729851e-52
8.2728096e-52
8.2727481e-52
8.2727296e-52
8.272726e-52
8.2727293e-52
8.2727426e-52
8.2727847e-52
8.2739471e-52
8.2729851e-52
8.2725494e-52
8.272374e-52
8.2723124e-52
8.2722941e-52
8.2722907e-52
8.2722949e-52
8.2723102e-52
8.2723558e-52
8.2737715e-52
8.2728096e-52
8.272374e-52
8.2721985e-52
8.272137e-52
8.2721187e-52
8.2721155e-52
8.2721201e-52
8.2721362e-52
8.2721829e-52
8.2737099e-52
8.2727481e-52
8.2723124e-52
8.272137e-52
8.2720755e-52
8.2720572e-52
8.2720541e-52
8.2720589e-52
8.2720753e-52
8.2721223e-52
8.2736913e-52
8.2727296e-52
8.2722941e-52
8.2721187e-52
8.2720572e-52
8.2720389e-52
8.2720358e-52
8.2720407e-52
8.2720572e-52
8.2721043e-52
8.2736874e-52
8.272726e-52
8.2722907e-52
8.2721155e-52
8.2720541e-52
8.2720358e-52
8.2720328e-52
8.2720376e-52
8.2720541e-52
8.2721013e-52
8.2736897e-52
8.2727293e-52
8.2722949e-52
8.2721201e-52
8.2720589e-52
8.2720407e-52
8.2720376e-52
8.2720425e-52
8.272059e-52
8.2721061e-52
8.2736994e-52
8.2727426e-52
8.2723102e-52
8.2721362e-52
8.2720753e-52
8.2720572e-52
8.2720541e-52
8.272059e-52
8.2720755e-52
8.2721226e-52
8.2737302e-52
8.2727847e-52
8.2723558e-52
8.2721829e-52
8.2721223e-52
8.2721043e-52
8.2721013e-52
8.2721061e-52
8.2721226e-52
8.2721698e-52
3.4458851e-51
3.4454963e-51
3.4453197e-51
3.4452485e-51
3.4452235e-51
3.4452159e-51
3.4452143e-51
3.4452152e-51
3.4452192e-51
3.4452313e-51
3.4454963e-51
3.4451077e-51
3.4449311e-51
3.4448599e-51
3.4448349e-51
3.4448274e-51
3.444826e-51
3.4448273e-51
3.4448327e-51
3.4448495e-51
3.4453197e-51
3.4449311e-51
3.4447546e-51
3.4446834e-51
3.4446584e-51
3.444651e-51
3.4446496e-51
3.4446514e-51
3.4446575e-51
3.4446758e-51
3.4452485e-51
3.4448599e-51
3.4446834e-51
3.4446122e-51
3.4445873e-51
3.4445798e-51
3.4445786e-51
3.4445804e-51
3.444587e-51
3.4446057e-51
3.4452235e-51
3.4448349e-51
3.4446584e-51
3.4445873e-51
3.4445623e-51
3.4445549e-51
3.4445536e-51
3.4445556e-51
3.4445623e-51
3.4445811e-51
3.4452159e-51
3.4448274e-51
3.444651e-51
3.4445798e-51
3.4445549e-51
3.4445475e-51
3.4445462e-51
3.4445482e-51
3.4445549e-51
3.4445737e-51
3.4452143e-51
3.444826e-51
3.4446496e-51
3.4445786e-51
3.4445536e-51
3.4445462e-51
3.444545e-51
3.444547e-51
3.4445537e-51
3.4445725e-51
3.4452152e-51
3.4448273e-51
3.4446514e-51
3.4445804e-51
3.4445556e-51
3.4445482e-51
3.444547e-51
3.444549e-51
3.4445557e-51
3.4445745e-51
3.4452192e-51
3.4448327e-51
3.4446575e-51
3.444587e-51
3.4445623e-51
3.4445549e-51
3.4445537e-51
3.4445557e-51
3.4445624e-51
3.4445812e-51
3.4452313e-51
3.4448495e-51
3.4446758e-51
3.4446057e-51
3.4445811e-51
3.4445737e-51
3.4445725e-51
3.4445745e-51
3.4445812e-51
3.4446001e-51
1.4647143e-50
1.464554e-50
1.464481e-50
1.4644516e-50
1.4644412e-50
1.4644381e-50
1.4644374e-50
1.4644378e-50
1.4644394e-50
1.4644443e-50
1.464554e-50
1.4643939e-50
1.4643209e-50
1.4642914e-50
1.4642811e-50
1.464278e-50
1.4642774e-50
1.464278e-50
1.4642802e-50
1.464287e-50
1.464481e-50
1.4643209e-50
1.4642479e-50
1.4642185e-50
1.4642081e-50
1.464205e-50
1.4642045e-50
1.4642052e-50
1.4642078e-50
1.4642152e-50
1.4644516e-50
1.4642914e-50
1.4642185e-50
1.464189e-50
1.4641787e-50
1.4641756e-50
1.4641751e-50
1.4641759e-50
1.4641786e-50
1.4641862e-50
1.4644412e-50
1.4642811e-50
1.4642081e-50
1.4641787e-50
1.4641683e-50
1.4641653e-50
1.4641648e-50
1.4641656e-50
1.4641683e-50
1.464176e-50
1.4644381e-50
1.464278e-50
1.464205e-50
1.4641756e-50
1.4641653e-50
1.4641622e-50
1.4641617e-50
1.4641625e-50
1.4641653e-50
1.464173e-50
1.4644374e-50
1.4642774e-50
1.4642045e-50
1.4641751e-50
1.4641648e-50
1.4641617e-50
1.4641612e-50
1.464162e-50
1.4641648e-50
1.4641725e-50
1.4644378e-50
1.464278e-50
1.4642052e-50
1.4641759e-50
1.4641656e-50
1.4641625e-50
1.464162e-50
1.4641628e-50
1.4641656e-50
1.4641733e-50
1.4644394e-50
1.4642802e-50
1.4642078e-50
1.4641786e-50
1.4641683e-50
1.4641653e-50
1.4641648e-50
1.4641656e-50
1.4641684e-50
1.4641761e-50
1.4644443e-50
1.464287e-50
1.4642152e-50
1.4641862e-50
1.464176e-50
1.464173e-50
1.4641725e-50
1.4641733e-50
1.4641761e-50
1.4641838e-50
6.3555796e-50
6.3549058e-50
6.3545979e-50
6.3544734e-50
6.3544297e-50
6.3544165e-50
6.3544137e-50
6.3544154e-50
6.3544221e-50
6.3544422e-50
6.3549058e-50
6.3542323e-50
6.3539245e-50
6.3538001e-50
6.3537563e-50
6.3537432e-50
6.3537407e-50
6.3537431e-50
6.3537524e-50
6.3537809e-50
6.3545979e-50
6.3539245e-50
6.3536167e-50
6.3534923e-50
6.3534486e-50
6.3534356e-50
6.3534333e-50
6.3534363e-50
6.3534471e-50
6.3534782e-50
6.3544734e-50
6.3538001e-50
6.3534923e-50
6.3533679e-50
6.3533243e-50
6.3533113e-50
6.353309e-50
6.3533124e-50
6.3533239e-50
6.3533557e-50
6.3544297e-50
6.3537563e-50
6.3534486e-50
6.3533243e-50
6.3532806e-50
6.3532676e-50
6.3532655e-50
6.3532689e-50
6.3532806e-50
6.3533127e-50
6.3544165e-50
6.3537432e-50
6.3534356e-50
6.3533113e-50
6.3532676e-50
6.3532546e-50
6.3532525e-50
6.353256e-50
6.3532677e-50
6.3532999e-50
6.3544137e-50
6.3537407e-50
6.3534333e-50
6.353309e-50
6.3532655e-50
6.3532525e-50
6.3532504e-50
6.3532539e-50
6.3532656e-50
6.3532978e-50
6.3544154e-50
6.3537431e-50
6.3534363e-50
6.3533124e-50
6.3532689e-50
6.353256e-50
6.3532539e-50
6.3532574e-50
6.3532692e-50
6.3533014e-50
6.3544221e-50
6.3537524e-50
6.3534471e-50
6.3533239e-50
6.3532806e-50
6.3532677e-50
6.3532656e-50
6.3532692e-50
6.353281e-50
6.3533131e-50
6.3544422e-50
6.3537809e-50
6.3534782e-50
6.3533557e-50
6.3533127e-50
6.3532999e-50
6.3532978e-50
6.3533014e-50
6.3533131e-50
6.3533453e-50
2.8152387e-49
2.8149496e-49
2.8148171e-49
2.8147635e-49
2.8147446e-49
2.8147389e-49
2.8147377e-49
2.8147385e-49
2.8147413e-49
2.8147498e-49
2.8149496e-49
2.8146606e-49
2.8145281e-49
2.8144745e-49
2.8144557e-49
2.81445e-49
2.8144489e-49
2.81445e-49
2.814454e-49
2.8144661e-49
2.8148171e-49
2.8145281e-49
2.8143957e-49
2.8143421e-49
2.8143233e-49
2.8143177e-49
2.8143167e-49
2.814318e-49
2.8143227e-49
2.8143359e-49
2.8147635e-49
2.8144745e-49
2.8143421e-49
2.8142885e-49
2.8142697e-49
2.8142641e-49
2.8142632e-49
2.8142646e-49
2.8142696e-49
2.8142831e-49
2.8147446e-49
2.8144557e-49
2.8143233e-49
2.8142697e-49
2.8142509e-49
2.8142453e-49
2.8142444e-49
2.8142459e-49
2.8142509e-49
2.8142646e-49
2.8147389e-49
2.81445e-49
2.8143177e-49
2.8142641e-49
2.8142453e-49
2.8142397e-49
2.8142388e-49
2.8142403e-49
2.8142454e-49
2.8142591e-49
2.8147377e-49
2.8144489e-49
2.8143167e-49
2.8142632e-49
2.8142444e-49
2.8142388e-49
2.8142379e-49
2.8142394e-49
2.8142445e-49
2.8142582e-49
2.8147385e-49
2.81445e-49
2.814318e-49
2.8142646e-49
2.8142459e-49
2.8142403e-49
2.8142394e-49
2.814241e-49
2.814246e-49
2.8142597e-49
2.8147413e-49
2.814454e-49
2.8143227e-49
2.8142696e-49
2.8142509e-49
2.8142454e-49
2.8142445e-49
2.814246e-49
2.8142511e-49
2.8142648e-49
2.8147498e-49
2.8144661e-49
2.8143359e-49
2.8142831e-49
2.8142646e-49
2.8142591e-49
2.8142582e-49
2.8142597e-49
2.8142648e-49
2.8142785e-49
1.2730215e-48
1.2728949e-48
1.2728368e-48
1.2728132e-48
1.2728049e-48
1.2728024e-48
1.2728019e-48
1.2728022e-48
1.2728034e-48
1.2728071e-48
1.2728949e-48
1.2727684e-48
1.2727102e-48
1.2726867e-48
1.2726784e-48
1.2726759e-48
1.2726754e-48
1.2726759e-48
1.2726777e-48
1.2726829e-48
1.2728368e-48
1.2727102e-48
1.2726521e-48
1.2726286e-48
1.2726203e-48
1.2726178e-48
1.2726174e-48
1.2726179e-48
1.27262e-48
1.2726258e-48
1.2728132e-48
1.2726867e-48
1.2726286e-48
1.272605e-48
1.2725967e-48
1.2725943e-48
1.2725938e-48
1.2725945e-48
1.2725967e-48
1.2726026e-48
1.2728049e-48
1.2726784e-48
1.2726203e-48
1.2725967e-48
1.2725884e-48
1.272586e-48
1.2725856e-48
1.2725863e-48
1.2725885e-48
1.2725944e-48
1.2728024e-48
1.2726759e-48
1.2726178e-48
1.2725943e-48
1.272586e-48
1.2725835e-48
1.2725831e-48
1.2725838e-48
1.272586e-48
1.272592e-48
1.2728019e-48
1.2726754e-48
1.2726174e-48
1.2725938e-48
1.2725856e-48
1.2725831e-48
1.2725827e-48
1.2725834e-48
1.2725856e-48
1.2725916e-48
1.2728022e-48
1.2726759e-48
1.2726179e-48
1.2725945e-48
1.2725863e-48
1.2725838e-48
1.2725834e-48
1.2725841e-48
1.2725863e-48
1.2725923e-48
1.2728034e-48
1.2726777e-48
1.27262e-48
1.2725967e-48
1.2725885e-48
1.272586e-48
1.2725856e-48
1.2725863e-48
1.2725886e-48
1.2725945e-48
1.2728071e-48
1.2726829e-48
1.2726258e-48
1.2726026e-48
1.2725944e-48
1.272592e-48
1.2725916e-48
1.2725923e-48
1.2725945e-48
1.2726005e-48
5.876437e-48
5.8758715e-48
5.875611e-48
5.8755053e-48
5.8754681e-48
5.8754569e-48
5.8754545e-48
5.8754559e-48
5.8754616e-48
5.8754774e-48
5.8758715e-48
5.8753063e-48
5.8750458e-48
5.8749402e-48
5.874903e-48
5.8748919e-48
5.8748897e-48
5.8748918e-48
5.8748998e-48
5.874923e-48
5.875611e-48
5.8750458e-48
5.8747854e-48
5.8746798e-48
5.8746427e-48
5.8746316e-48
5.8746296e-48
5.8746323e-48
5.8746416e-48
5.8746671e-48
5.8755053e-48
5.8749402e-48
5.8746798e-48
5.8745742e-48
5.874537e-48
5.874526e-48
5.8745241e-48
5.8745271e-48
5.8745369e-48
5.8745632e-48
5.8754681e-48
5.874903e-48
5.8746427e-48
5.874537e-48
5.8744999e-48
5.8744889e-48
5.8744871e-48
5.8744901e-48
5.8745001e-48
5.8745266e-48
5.8754569e-48
5.8748919e-48
5.8746316e-48
5.874526e-48
5.8744889e-48
5.8744778e-48
5.874476e-48
5.8744791e-48
5.8744892e-48
5.8745157e-48
5.8754545e-48
5.8748897e-48
5.8746296e-48
5.8745241e-48
5.8744871e-48
5.874476e-48
5.8744743e-48
5.8744774e-48
5.8744875e-48
5.874514e-48
5.8754559e-48
5.8748918e-48
5.8746323e-48
5.8745271e-48
5.8744901e-48
5.8744791e-48
5.8744774e-48
5.8744805e-48
5.8744906e-48
5.8745171e-48
5.8754616e-48
5.8748998e-48
5.8746416e-48
5.8745369e-48
5.8745001e-48
5.8744892e-48
5.8744875e-48
5.8744906e-48
5.8745007e-48
5.8745272e-48
5.8754774e-48
5.874923e-48
5.8746671e-48
5.8745632e-48
5.8745266e-48
5.8745157e-48
5.874514e-48
5.8745171e-48
5.8745272e-48
5.8745538e-48
2.7691226e-47
2.7688648e-47
2.7687458e-47
2.7686974e-47
2.7686804e-47
2.7686753e-47
2.7686742e-47
2.7686749e-47
2.7686774e-47
2.7686845e-47
2.7688648e-47
2.7686072e-47
2.7684882e-47
2.7684399e-47
2.7684229e-47
2.7684178e-47
2.7684168e-47
2.7684178e-47
2.7684214e-47
2.7684319e-47
2.7687458e-47
2.7684882e-47
2.7683692e-47
2.7683209e-47
2.7683039e-47
2.7682988e-47
2.7682979e-47
2.7682992e-47
2.7683034e-47
2.768315e-47
2.7686974e-47
2.7684399e-47
2.7683209e-47
2.7682726e-47
2.7682556e-47
2.7682505e-47
2.7682497e-47
2.768251e-47
2.7682556e-47
2.7682675e-47
2.7686804e-47
2.7684229e-47
2.7683039e-47
2.7682556e-47
2.7682386e-47
2.7682335e-47
2.7682327e-47
2.7682341e-47
2.7682387e-47
2.7682508e-47
2.7686753e-47
2.7684178e-47
2.7682988e-47
2.7682505e-47
2.7682335e-47
2.7682285e-47
2.7682277e-47
2.7682291e-47
2.7682337e-47
2.7682458e-47
2.7686742e-47
2.7684168e-47
2.7682979e-47
2.7682497e-47
2.7682327e-47
2.7682277e-47
2.7682269e-47
2.7682283e-47
2.7682329e-47
2.768245e-47
2.7686749e-47
2.7684178e-47
2.7682992e-47
2.768251e-47
2.7682341e-47
2.7682291e-47
2.7682283e-47
2.7682297e-47
2.7682344e-47
2.7682464e-47
2.7686774e-47
2.7684214e-47
2.7683034e-47
2.7682556e-47
2.7682387e-47
2.7682337e-47
2.7682329e-47
2.7682344e-47
2.768239e-47
2.7682511e-47
2.7686845e-47
2.7684319e-47
2.768315e-47
2.7682675e-47
2.7682508e-47
2.7682458e-47
2.768245e-47
2.7682464e-47
2.7682511e-47
2.7682631e-47
1.3320063e-46
1.3318865e-46
1.331831e-46
1.3318084e-46
1.3318005e-46
1.3317981e-46
1.3317976e-46
1.3317979e-46
1.3317991e-46
1.3318023e-46
1.3318865e-46
1.3317667e-46
1.3317112e-46
1.3316886e-46
1.3316807e-46
1.3316783e-46
1.3316779e-46
1.3316783e-46
1.33168e-46
1.3316849e-46
1.331831e-46
1.3317112e-46
1.3316557e-46
1.3316332e-46
1.3316252e-46
1.3316229e-46
1.3316225e-46
1.331623e-46
1.331625e-46
1.3316304e-46
1.3318084e-46
1.3316886e-46
1.3316332e-46
1.3316106e-46
1.3316027e-46
1.3316003e-46
1.3315999e-46
1.3316006e-46
1.3316027e-46
1.3316082e-46
1.3318005e-46
1.3316807e-46
1.3316252e-46
1.3316027e-46
1.3315948e-46
1.3315924e-46
1.331592e-46
1.3315927e-46
1.3315948e-46
1.3316004e-46
1.3317981e-46
1.3316783e-46
1.3316229e-46
1.3316003e-46
1.3315924e-46
1.33159e-46
1.3315897e-46
1.3315903e-46
1.3315925e-46
1.3315981e-46
1.3317976e-46
1.3316779e-46
1.3316225e-46
1.3315999e-46
1.331592e-46
1.3315897e-46
1.3315893e-46
1.33159e-46
1.3315921e-46
1.3315977e-46
1.3317979e-46
1.3316783e-46
1.331623e-46
1.3316006e-46
1.3315927e-46
1.3315903e-46
1.33159e-46
1.3315907e-46
1.3315928e-46
1.3315984e-46
1.3317991e-46
1.33168e-46
1.331625e-46
1.3316027e-46
1.3315948e-46
1.3315925e-46
1.3315921e-46
1.3315928e-46
1.331595e-46
1.3316006e-46
1.3318023e-46
1.3316849e-46
1.3316304e-46
1.3316082e-46
1.3316004e-46
1.3315981e-46
1.3315977e-46
1.3315984e-46
1.3316006e-46
1.3316062e-46
6.5401356e-46
6.5395671e-46
6.5393032e-46
6.5391958e-46
6.5391579e-46
6.5391465e-46
6.5391441e-46
6.5391456e-46
6.5391513e-46
6.5391663e-46
6.5395671e-46
6.5389989e-46
6.538735e-46
6.5386276e-46
6.5385898e-46
6.5385784e-46
6.5385763e-46
6.5385785e-46
6.5385867e-46
6.5386097e-46
6.5393032e-46
6.538735e-46
6.5384712e-46
6.5383639e-46
6.538326e-46
6.5383147e-46
6.5383128e-46
6.5383156e-46
6.5383252e-46
6.5383506e-46
6.5391958e-46
6.5386276e-46
6.5383639e-46
6.5382565e-46
6.5382187e-46
6.5382074e-46
6.5382056e-46
6.5382087e-46
6.5382189e-46
6.538245e-46
6.5391579e-46
6.5385898e-46
6.538326e-46
6.5382187e-46
6.5381809e-46
6.5381697e-46
6.5381679e-46
6.5381711e-46
6.5381815e-46
6.5382079e-46
6.5391465e-46
6.5385784e-46
6.5383147e-46
6.5382074e-46
6.5381697e-46
6.5381584e-46
6.5381567e-46
6.53816e-46
6.5381704e-46
6.5381968e-46
6.5391441e-46
6.5385763e-46
6.5383128e-46
6.5382056e-46
6.5381679e-46
6.5381567e-46
6.5381549e-46
6.5381582e-46
6.5381686e-46
6.5381951e-46
6.5391456e-46
6.5385785e-46
6.5383156e-46
6.5382087e-46
6.5381711e-46
6.53816e-46
6.5381582e-46
6.5381615e-46
6.5381719e-46
6.5381984e-46
6.5391513e-46
6.5385867e-46
6.5383252e-46
6.5382189e-46
6.5381815e-46
6.5381704e-46
6.5381686e-46
6.5381719e-46
6.5381824e-46
6.5382088e-46
6.5391663e-46
6.5386097e-46
6.5383506e-46
6.538245e-46
6.5382079e-46
6.5381968e-46
6.5381951e-46
6.5381984e-46
6.5382088e-46
6.5382353e-46
3.2776141e-45
3.277339e-45
3.277211e-45
3.2771588e-45
3.2771404e-45
3.2771349e-45
3.2771337e-45
3.2771345e-45
3.2771372e-45
3.2771444e-45
3.277339e-45
3.277064e-45
3.2769361e-45
3.2768839e-45
3.2768655e-45
3.27686e-45
3.276859e-45
3.2768601e-45
3.276864e-45
3.2768751e-45
3.277211e-45
3.2769361e-45
3.2768081e-45
3.276756e-45
3.2767376e-45
3.2767321e-45
3.2767312e-45
3.2767326e-45
3.2767372e-45
3.2767495e-45
3.2771588e-45
3.2768839e-45
3.276756e-45
3.2767038e-45
3.2766855e-45
3.27668e-45
3.2766791e-45
3.2766807e-45
3.2766856e-45
3.2766983e-45
3.2771404e-45
3.2768655e-45
3.2767376e-45
3.2766855e-45
3.2766671e-45
3.2766616e-45
3.2766608e-45
3.2766624e-45
3.2766674e-45
3.2766802e-45
3.2771349e-45
3.27686e-45
3.2767321e-45
3.27668e-45
3.2766616e-45
3.2766562e-45
3.2766553e-45
3.276657e-45
3.276662e-45
3.2766748e-45
3.2771337e-45
3.276859e-45
3.2767312e-45
3.2766791e-45
3.2766608e-45
3.2766553e-45
3.2766545e-45
3.2766561e-45
3.2766612e-45
3.276674e-45
3.2771345e-45
3.2768601e-45
3.2767326e-45
3.2766807e-45
3.2766624e-45
3.276657e-45
3.2766561e-45
3.2766577e-45
3.2766628e-45
3.2766756e-45
3.2771372e-45
3.276864e-45
3.2767372e-45
3.2766856e-45
3.2766674e-45
3.276662e-45
3.2766612e-45
3.2766628e-45
3.2766679e-45
3.2766807e-45
3.2771444e-45
3.2768751e-45
3.2767495e-45
3.2766983e-45
3.2766802e-45
3.2766748e-45
3.276674e-45
3.2766756e-45
3.2766807e-45
3.2766935e-45
1.6764374e-44
1.6763016e-44
1.6762383e-44
1.6762124e-44
1.6762033e-44
1.6762006e-44
1.6762e-44
1.6762004e-44
1.6762018e-44
1.6762052e-44
1.6763016e-44
1.6761659e-44
1.6761026e-44
1.6760768e-44
1.6760677e-44
1.6760649e-44
1.6760644e-44
1.676065e-44
1.6760669e-44
1.6760724e-44
1.6762383e-44
1.6761026e-44
1.6760393e-44
1.6760135e-44
1.6760044e-44
1.6760016e-44
1.6760012e-44
1.6760019e-44
1.6760042e-44
1.6760103e-44
1.6762124e-44
1.6760768e-44
1.6760135e-44
1.6759876e-44
1.6759785e-44
1.6759758e-44
1.6759754e-44
1.6759762e-44
1.6759787e-44
1.6759849e-44
1.6762033e-44
1.6760677e-44
1.6760044e-44
1.6759785e-44
1.6759695e-44
1.6759667e-44
1.6759663e-44
1.6759671e-44
1.6759697e-44
1.6759759e-44
1.6762006e-44
1.6760649e-44
1.6760016e-44
1.6759758e-44
1.6759667e-44
1.675964e-44
1.6759636e-44
1.6759644e-44
1.675967e-44
1.6759733e-44
1.6762e-44
1.6760644e-44
1.6760012e-44
1.6759754e-44
1.6759663e-44
1.6759636e-44
1.6759632e-44
1.675964e-44
1.6759666e-44
1.6759729e-44
1.6762004e-44
1.676065e-44
1.6760019e-44
1.6759762e-44
1.6759671e-44
1.6759644e-44
1.675964e-44
1.6759648e-44
1.6759674e-44
1.6759737e-44
1.6762018e-44
1.6760669e-44
1.6760042e-44
1.6759787e-44
1.6759697e-44
1.675967e-44
1.6759666e-44
1.6759674e-44
1.6759699e-44
1.6759762e-44
1.6762052e-44
1.6760724e-44
1.6760103e-44
1.6759849e-44
1.6759759e-44
1.6759733e-44
1.6759729e-44
1.6759737e-44
1.6759762e-44
1.6759826e-44
8.7505738e-44
8.7498904e-44
8.7495709e-44
8.7494404e-44
8.7493944e-44
8.7493805e-44
8.7493777e-44
8.7493795e-44
8.7493865e-44
8.7494037e-44
8.7498904e-44
8.7492074e-44
8.7488879e-44
8.7487575e-44
8.7487115e-44
8.7486977e-44
8.7486951e-44
8.7486979e-44
8.748708e-44
8.7487353e-44
8.7495709e-44
8.7488879e-44
8.7485685e-44
8.7484381e-44
8.7483921e-44
8.7483784e-44
8.7483761e-44
8.7483797e-44
8.7483915e-44
8.748422e-44
8.7494404e-44
8.7487575e-44
8.7484381e-44
8.7483077e-44
8.7482617e-44
8.7482481e-44
8.7482459e-44
8.7482499e-44
8.7482625e-44
8.7482939e-44
8.7493944e-44
8.7487115e-44
8.7483921e-44
8.7482617e-44
8.7482158e-44
8.7482021e-44
8.7482e-44
8.7482041e-44
8.748217e-44
8.7482487e-44
8.7493805e-44
8.7486977e-44
8.7483784e-44
8.7482481e-44
8.7482021e-44
8.7481885e-44
8.7481864e-44
8.7481906e-44
8.7482035e-44
8.7482353e-44
8.7493777e-44
8.7486951e-44
8.7483761e-44
8.7482459e-44
8.7482e-44
8.7481864e-44
8.7481843e-44
8.7481885e-44
8.7482015e-44
8.7482333e-44
8.7493795e-44
8.7486979e-44
8.7483797e-44
8.7482499e-44
8.7482041e-44
8.7481906e-44
8.7481885e-44
8.7481927e-44
8.7482056e-44
8.7482375e-44
8.7493865e-44
8.748708e-44
8.7483915e-44
8.7482625e-44
8.748217e-44
8.7482035e-44
8.7482015e-44
8.7482056e-44
8.7482186e-44
8.7482504e-44
8.7494037e-44
8.7487353e-44
8.748422e-44
8.7482939e-44
8.7482487e-44
8.7482353e-44
8.7482333e-44
8.7482375e-44
8.7482504e-44
8.7482823e-44
4.6607921e-43
4.6604413e-43
4.6602769e-43
4.6602097e-43
4.660186e-43
4.6601788e-43
4.6601774e-43
4.6601784e-43
4.6601819e-43
4.6601907e-43
4.6604413e-43
4.6600907e-43
4.6599263e-43
4.6598592e-43
4.6598354e-43
4.6598283e-43
4.659827e-43
4.6598285e-43
4.6598337e-43
4.6598477e-43
4.6602769e-43
4.6599263e-43
4.659762e-43
4.6596949e-43
4.6596712e-43
4.6596641e-43
4.6596629e-43
4.6596648e-43
4.6596709e-43
4.6596866e-43
4.6602097e-43
4.6598592e-43
4.6596949e-43
4.6596277e-43
4.659604e-43
4.659597e-43
4.6595959e-43
4.659598e-43
4.6596045e-43
4.6596207e-43
4.660186e-43
4.6598354e-43
4.6596712e-43
4.659604e-43
4.6595804e-43
4.6595733e-43
4.6595722e-43
4.6595744e-43
4.6595811e-43
4.6595974e-43
4.6601788e-43
4.6598283e-43
4.6596641e-43
4.659597e-43
4.6595733e-43
4.6595663e-43
4.6595652e-43
4.6595674e-43
4.6595741e-43
4.6595905e-43
4.6601774e-43
4.659827e-43
4.6596629e-43
4.6595959e-43
4.6595722e-43
4.6595652e-43
4.6595642e-43
4.6595664e-43
4.6595731e-43
4.6595895e-43
4.6601784e-43
4.6598285e-43
4.6596648e-43
4.659598e-43
4.6595744e-43
4.6595674e-43
4.6595664e-43
4.6595685e-43
4.6595753e-43
4.6595916e-43
4.6601819e-43
4.6598337e-43
4.6596709e-43
4.6596045e-43
4.6595811e-43
4.6595741e-43
4.6595731e-43
4.6595753e-43
4.659582e-43
4.6595984e-43
4.6601907e-43
4.6598477e-43
4.6596866e-43
4.6596207e-43
4.6595974e-43
4.6595905e-43
4.6595895e-43
4.6595916e-43
4.6595984e-43
4.6596147e-43
2.5328183e-42
2.5326347e-42
2.5325485e-42
2.5325132e-42
2.5325008e-42
2.532497e-42
2.5324962e-42
2.5324968e-42
2.5324986e-42
2.5325032e-42
2.5326347e-42
2.5324512e-42
2.532365e-42
2.5323298e-42
2.5323173e-42
2.5323136e-42
2.5323129e-42
2.5323137e-42
2.5323164e-42
2.5323238e-42
2.5325485e-42
2.532365e-42
2.5322788e-42
2.5322436e-42
2.5322311e-42
2.5322274e-42
2.5322268e-42
2.5322278e-42
2.5322311e-42
2.5322393e-42
2.5325132e-42
2.5323298e-42
2.5322436e-42
2.5322083e-42
2.5321959e-42
2.5321922e-42
2.5321916e-42
2.5321927e-42
2.5321962e-42
2.5322047e-42
2.5325008e-42
2.5323173e-42
2.5322311e-42
2.5321959e-42
2.5321835e-42
2.5321798e-42
2.5321792e-42
2.5321804e-42
2.5321839e-42
2.5321925e-42
2.532497e-42
2.5323136e-42
2.5322274e-42
2.5321922e-42
2.5321798e-42
2.5321761e-42
2.5321755e-42
2.5321767e-42
2.5321802e-42
2.5321888e-42
2.5324962e-42
2.5323129e-42
2.5322268e-42
2.5321916e-42
2.5321792e-42
2.5321755e-42
2.532175e-42
2.5321761e-42
2.5321797e-42
2.5321883e-42
2.5324968e-42
2.5323137e-42
2.5322278e-42
2.5321927e-42
2.5321804e-42
2.5321767e-42
2.5321761e-42
2.5321773e-42
2.5321809e-42
2.5321895e-42
2.5324986e-42
2.5323164e-42
2.5322311e-42
2.5321962e-42
2.5321839e-42
2.5321802e-42
2.5321797e-42
2.5321809e-42
2.5321844e-42
2.532193e-42
2.5325032e-42
2.5323238e-42
2.5322393e-42
2.5322047e-42
2.5321925e-42
2.5321888e-42
2.5321883e-42
2.5321895e-42
2.532193e-42
2.5322016e-42
1.4041356e-41
1.4040377e-41
1.4039916e-41
1.4039727e-41
1.403966e-41
1.403964e-41
1.4039636e-41
1.4039639e-41
1.4039649e-41
1.4039673e-41
1.4040377e-41
1.4039398e-41
1.4038937e-41
1.4038748e-41
1.4038682e-41
1.4038662e-41
1.4038658e-41
1.4038662e-41
1.4038677e-41
1.4038716e-41
1.4039916e-41
1.4038937e-41
1.4038476e-41
1.4038288e-41
1.4038221e-41
1.4038201e-41
1.4038198e-41
1.4038203e-41
1.4038221e-41
1.4038265e-41
1.4039727e-41
1.4038748e-41
1.4038288e-41
1.4038099e-41
1.4038032e-41
1.4038013e-41
1.403801e-41
1.4038016e-41
1.4038034e-41
1.403808e-41
1.403966e-41
1.4038682e-41
1.4038221e-41
1.4038032e-41
1.4037966e-41
1.4037946e-41
1.4037943e-41
1.4037949e-41
1.4037968e-41
1.4038014e-41
1.403964e-41
1.4038662e-41
1.4038201e-41
1.4038013e-41
1.4037946e-41
1.4037926e-41
1.4037923e-41
1.403793e-41
1.4037949e-41
1.4037995e-41
1.4039636e-41
1.4038658e-41
1.4038198e-41
1.403801e-41
1.4037943e-41
1.4037923e-41
1.4037921e-41
1.4037927e-41
1.4037946e-41
1.4037992e-41
1.4039639e-41
1.4038662e-41
1.4038203e-41
1.4038016e-41
1.4037949e-41
1.403793e-41
1.4037927e-41
1.4037933e-41
1.4037952e-41
1.4037999e-41
1.4039649e-41
1.4038677e-41
1.4038221e-41
1.4038034e-41
1.4037968e-41
1.4037949e-41
1.4037946e-41
1.4037952e-41
1.4037972e-41
1.4038018e-41
1.4039673e-41
1.4038716e-41
1.4038265e-41
1.403808e-41
1.4038014e-41
1.4037995e-41
1.4037992e-41
1.4037999e-41
1.4038018e-41