/*--------------------------------*- C++ -*----------------------------------*\
| =========                 |                                                 |
| \\      /  F ield         | OpenFOAM: The Open Source CFD Toolbox           |
|  \\    /   O peration     | Version:  dev                                   |
|   \\  /    A nd           | Web:      www.OpenFOAM.org                      |
|    \\/     M anipulation  |                                                 |
\*---------------------------------------------------------------------------*/
FoamFile
{
    version     2.0;
    format      ascii;
    class       volScalarField;
    location    "19";
    object      A_0;
}
// * * * * * * * * * * * * * * * * * * * * * * * * * * * * * * * * * * * * * //

dimensions      [0 0 0 0 1 0 0];

internalField   nonuniform List<scalar> 
10000
(
6.4937469e-55
6.4928724e-55
6.4924863e-55
6.4923318e-55
6.4922777e-55
6.4922615e-55
6.492258e-55
6.49226e-55
6.4922689e-55
6.4922977e-55
6.4928724e-55
6.4919984e-55
6.4916124e-55
6.491458e-55
6.491404e-55
6.4913877e-55
6.4913845e-55
6.4913874e-55
6.4913992e-55
6.4914374e-55
6.4924863e-55
6.4916124e-55
6.4912264e-55
6.491072e-55
6.491018e-55
6.4910019e-55
6.4909989e-55
6.4910025e-55
6.491016e-55
6.4910571e-55
6.4923318e-55
6.491458e-55
6.491072e-55
6.4909176e-55
6.4908637e-55
6.4908476e-55
6.4908447e-55
6.4908487e-55
6.4908629e-55
6.4909048e-55
6.4922777e-55
6.491404e-55
6.491018e-55
6.4908637e-55
6.4908097e-55
6.4907937e-55
6.4907909e-55
6.4907949e-55
6.4908094e-55
6.4908516e-55
6.4922615e-55
6.4913877e-55
6.4910019e-55
6.4908476e-55
6.4907937e-55
6.4907776e-55
6.4907748e-55
6.4907789e-55
6.4907935e-55
6.4908358e-55
6.492258e-55
6.4913845e-55
6.4909989e-55
6.4908447e-55
6.4907909e-55
6.4907748e-55
6.4907721e-55
6.4907762e-55
6.4907908e-55
6.4908331e-55
6.49226e-55
6.4913874e-55
6.4910025e-55
6.4908487e-55
6.4907949e-55
6.4907789e-55
6.4907762e-55
6.4907803e-55
6.4907949e-55
6.4908372e-55
6.4922689e-55
6.4913992e-55
6.491016e-55
6.4908629e-55
6.4908094e-55
6.4907935e-55
6.4907908e-55
6.4907949e-55
6.4908094e-55
6.4908518e-55
6.4922977e-55
6.4914374e-55
6.4910571e-55
6.4909048e-55
6.4908516e-55
6.4908358e-55
6.4908331e-55
6.4908372e-55
6.4908518e-55
6.4908941e-55
3.2661482e-54
3.2657209e-54
3.2655301e-54
3.2654536e-54
3.2654269e-54
3.2654188e-54
3.2654171e-54
3.2654181e-54
3.2654225e-54
3.2654372e-54
3.2657209e-54
3.2652938e-54
3.265103e-54
3.2650266e-54
3.2649999e-54
3.2649918e-54
3.2649903e-54
3.2649917e-54
3.2649975e-54
3.265017e-54
3.2655301e-54
3.265103e-54
3.2649123e-54
3.2648359e-54
3.2648092e-54
3.2648012e-54
3.2647997e-54
3.2648015e-54
3.2648082e-54
3.264829e-54
3.2654536e-54
3.2650266e-54
3.2648359e-54
3.2647595e-54
3.2647328e-54
3.2647248e-54
3.2647234e-54
3.2647253e-54
3.2647324e-54
3.2647537e-54
3.2654269e-54
3.2649999e-54
3.2648092e-54
3.2647328e-54
3.2647061e-54
3.2646981e-54
3.2646967e-54
3.2646987e-54
3.2647059e-54
3.2647274e-54
3.2654188e-54
3.2649918e-54
3.2648012e-54
3.2647248e-54
3.2646981e-54
3.2646902e-54
3.2646888e-54
3.2646908e-54
3.264698e-54
3.2647195e-54
3.2654171e-54
3.2649903e-54
3.2647997e-54
3.2647234e-54
3.2646967e-54
3.2646888e-54
3.2646874e-54
3.2646895e-54
3.2646967e-54
3.2647182e-54
3.2654181e-54
3.2649917e-54
3.2648015e-54
3.2647253e-54
3.2646987e-54
3.2646908e-54
3.2646895e-54
3.2646915e-54
3.2646987e-54
3.2647202e-54
3.2654225e-54
3.2649975e-54
3.2648082e-54
3.2647324e-54
3.2647059e-54
3.264698e-54
3.2646967e-54
3.2646987e-54
3.2647059e-54
3.2647274e-54
3.2654372e-54
3.265017e-54
3.264829e-54
3.2647537e-54
3.2647274e-54
3.2647195e-54
3.2647182e-54
3.2647202e-54
3.2647274e-54
3.2647489e-54
1.2753928e-53
1.2752306e-53
1.2751579e-53
1.2751287e-53
1.2751185e-53
1.2751154e-53
1.2751147e-53
1.2751151e-53
1.2751168e-53
1.2751224e-53
1.2752306e-53
1.2750685e-53
1.2749958e-53
1.2749666e-53
1.2749564e-53
1.2749534e-53
1.2749527e-53
1.2749533e-53
1.2749555e-53
1.2749629e-53
1.2751579e-53
1.2749958e-53
1.2749231e-53
1.2748939e-53
1.2748837e-53
1.2748807e-53
1.2748801e-53
1.2748808e-53
1.2748833e-53
1.2748913e-53
1.2751287e-53
1.2749666e-53
1.2748939e-53
1.2748648e-53
1.2748546e-53
1.2748515e-53
1.274851e-53
1.2748517e-53
1.2748544e-53
1.2748625e-53
1.2751185e-53
1.2749564e-53
1.2748837e-53
1.2748546e-53
1.2748444e-53
1.2748413e-53
1.2748408e-53
1.2748416e-53
1.2748443e-53
1.2748525e-53
1.2751154e-53
1.2749534e-53
1.2748807e-53
1.2748515e-53
1.2748413e-53
1.2748383e-53
1.2748378e-53
1.2748386e-53
1.2748413e-53
1.2748495e-53
1.2751147e-53
1.2749527e-53
1.2748801e-53
1.274851e-53
1.2748408e-53
1.2748378e-53
1.2748373e-53
1.2748381e-53
1.2748408e-53
1.274849e-53
1.2751151e-53
1.2749533e-53
1.2748808e-53
1.2748517e-53
1.2748416e-53
1.2748386e-53
1.2748381e-53
1.2748388e-53
1.2748416e-53
1.2748498e-53
1.2751168e-53
1.2749555e-53
1.2748833e-53
1.2748544e-53
1.2748443e-53
1.2748413e-53
1.2748408e-53
1.2748416e-53
1.2748443e-53
1.2748525e-53
1.2751224e-53
1.2749629e-53
1.2748913e-53
1.2748625e-53
1.2748525e-53
1.2748495e-53
1.274849e-53
1.2748498e-53
1.2748525e-53
1.2748607e-53
5.0007802e-53
5.0001625e-53
4.9998846e-53
4.999773e-53
4.9997339e-53
4.9997221e-53
4.9997196e-53
4.999721e-53
4.9997273e-53
4.999748e-53
5.0001625e-53
4.9995452e-53
4.9992674e-53
4.9991558e-53
4.9991167e-53
4.9991049e-53
4.9991026e-53
4.9991047e-53
4.9991132e-53
4.999141e-53
4.9998846e-53
4.9992674e-53
4.9989896e-53
4.998878e-53
4.9988389e-53
4.9988272e-53
4.9988251e-53
4.9988277e-53
4.9988375e-53
4.9988674e-53
4.999773e-53
4.9991558e-53
4.998878e-53
4.9987664e-53
4.9987274e-53
4.9987157e-53
4.9987137e-53
4.9987166e-53
4.9987268e-53
4.9987574e-53
4.9997339e-53
4.9991167e-53
4.9988389e-53
4.9987274e-53
4.9986883e-53
4.9986767e-53
4.9986747e-53
4.9986777e-53
4.9986881e-53
4.9987189e-53
4.9997221e-53
4.9991049e-53
4.9988272e-53
4.9987157e-53
4.9986767e-53
4.9986651e-53
4.9986631e-53
4.9986661e-53
4.9986766e-53
4.9987075e-53
4.9997196e-53
4.9991026e-53
4.9988251e-53
4.9987137e-53
4.9986747e-53
4.9986631e-53
4.9986611e-53
4.9986642e-53
4.9986747e-53
4.9987055e-53
4.999721e-53
4.9991047e-53
4.9988277e-53
4.9987166e-53
4.9986777e-53
4.9986661e-53
4.9986642e-53
4.9986672e-53
4.9986777e-53
4.9987086e-53
4.9997273e-53
4.9991132e-53
4.9988375e-53
4.9987268e-53
4.9986881e-53
4.9986766e-53
4.9986747e-53
4.9986777e-53
4.9986882e-53
4.9987191e-53
4.999748e-53
4.999141e-53
4.9988674e-53
4.9987574e-53
4.9987189e-53
4.9987075e-53
4.9987055e-53
4.9987086e-53
4.9987191e-53
4.99875e-53
1.9991412e-52
1.9989015e-52
1.9987932e-52
1.9987497e-52
1.9987345e-52
1.9987299e-52
1.9987289e-52
1.9987294e-52
1.9987319e-52
1.9987397e-52
1.9989015e-52
1.9986619e-52
1.9985537e-52
1.9985102e-52
1.9984949e-52
1.9984903e-52
1.9984894e-52
1.9984903e-52
1.9984936e-52
1.9985042e-52
1.9987932e-52
1.9985537e-52
1.9984455e-52
1.998402e-52
1.9983868e-52
1.9983822e-52
1.9983814e-52
1.9983824e-52
1.9983862e-52
1.9983977e-52
1.9987497e-52
1.9985102e-52
1.998402e-52
1.9983585e-52
1.9983433e-52
1.9983387e-52
1.998338e-52
1.9983391e-52
1.9983431e-52
1.9983548e-52
1.9987345e-52
1.9984949e-52
1.9983868e-52
1.9983433e-52
1.9983281e-52
1.9983235e-52
1.9983227e-52
1.9983239e-52
1.998328e-52
1.9983398e-52
1.9987299e-52
1.9984903e-52
1.9983822e-52
1.9983387e-52
1.9983235e-52
1.998319e-52
1.9983182e-52
1.9983194e-52
1.9983235e-52
1.9983353e-52
1.9987289e-52
1.9984894e-52
1.9983814e-52
1.998338e-52
1.9983227e-52
1.9983182e-52
1.9983175e-52
1.9983187e-52
1.9983227e-52
1.9983346e-52
1.9987294e-52
1.9984903e-52
1.9983824e-52
1.9983391e-52
1.9983239e-52
1.9983194e-52
1.9983187e-52
1.9983198e-52
1.9983239e-52
1.9983358e-52
1.9987319e-52
1.9984936e-52
1.9983862e-52
1.9983431e-52
1.998328e-52
1.9983235e-52
1.9983227e-52
1.9983239e-52
1.998328e-52
1.9983399e-52
1.9987397e-52
1.9985042e-52
1.9983977e-52
1.9983548e-52
1.9983398e-52
1.9983353e-52
1.9983346e-52
1.9983358e-52
1.9983399e-52
1.9983517e-52
8.1567983e-52
8.1558492e-52
8.1554194e-52
8.1552463e-52
8.1551856e-52
8.1551673e-52
8.1551634e-52
8.1551656e-52
8.1551752e-52
8.1552056e-52
8.1558492e-52
8.1549005e-52
8.1544708e-52
8.1542978e-52
8.1542371e-52
8.1542189e-52
8.1542153e-52
8.1542186e-52
8.1542317e-52
8.1542732e-52
8.1554194e-52
8.1544708e-52
8.1540412e-52
8.1538682e-52
8.1538076e-52
8.1537894e-52
8.1537862e-52
8.1537903e-52
8.1538053e-52
8.1538503e-52
8.1552463e-52
8.1542978e-52
8.1538682e-52
8.1536952e-52
8.1536346e-52
8.1536165e-52
8.1536134e-52
8.153618e-52
8.1536338e-52
8.1536799e-52
8.1551856e-52
8.1542371e-52
8.1538076e-52
8.1536346e-52
8.153574e-52
8.153556e-52
8.1535529e-52
8.1535576e-52
8.1535738e-52
8.1536201e-52
8.1551673e-52
8.1542189e-52
8.1537894e-52
8.1536165e-52
8.153556e-52
8.1535379e-52
8.1535349e-52
8.1535397e-52
8.1535559e-52
8.1536023e-52
8.1551634e-52
8.1542153e-52
8.1537862e-52
8.1536134e-52
8.1535529e-52
8.1535349e-52
8.1535319e-52
8.1535367e-52
8.1535529e-52
8.1535994e-52
8.1551656e-52
8.1542186e-52
8.1537903e-52
8.153618e-52
8.1535576e-52
8.1535397e-52
8.1535367e-52
8.1535414e-52
8.1535577e-52
8.1536042e-52
8.1551752e-52
8.1542317e-52
8.1538053e-52
8.1536338e-52
8.1535738e-52
8.1535559e-52
8.1535529e-52
8.1535577e-52
8.153574e-52
8.1536205e-52
8.1552056e-52
8.1542732e-52
8.1538503e-52
8.1536799e-52
8.1536201e-52
8.1536023e-52
8.1535994e-52
8.1536042e-52
8.1536205e-52
8.1536669e-52
3.3971552e-51
3.3967717e-51
3.3965976e-51
3.3965273e-51
3.3965027e-51
3.3964952e-51
3.3964937e-51
3.3964946e-51
3.3964984e-51
3.3965104e-51
3.3967717e-51
3.3963885e-51
3.3962143e-51
3.3961441e-51
3.3961195e-51
3.3961121e-51
3.3961107e-51
3.396112e-51
3.3961173e-51
3.3961339e-51
3.3965976e-51
3.3962143e-51
3.3960402e-51
3.3959701e-51
3.3959454e-51
3.3959381e-51
3.3959368e-51
3.3959384e-51
3.3959445e-51
3.3959625e-51
3.3965273e-51
3.3961441e-51
3.3959701e-51
3.3958999e-51
3.3958753e-51
3.3958679e-51
3.3958667e-51
3.3958685e-51
3.395875e-51
3.3958934e-51
3.3965027e-51
3.3961195e-51
3.3959454e-51
3.3958753e-51
3.3958507e-51
3.3958433e-51
3.3958421e-51
3.395844e-51
3.3958506e-51
3.3958691e-51
3.3964952e-51
3.3961121e-51
3.3959381e-51
3.3958679e-51
3.3958433e-51
3.395836e-51
3.3958348e-51
3.3958367e-51
3.3958433e-51
3.3958619e-51
3.3964937e-51
3.3961107e-51
3.3959368e-51
3.3958667e-51
3.3958421e-51
3.3958348e-51
3.3958336e-51
3.3958355e-51
3.3958421e-51
3.3958607e-51
3.3964946e-51
3.396112e-51
3.3959384e-51
3.3958685e-51
3.395844e-51
3.3958367e-51
3.3958355e-51
3.3958375e-51
3.3958441e-51
3.3958627e-51
3.3964984e-51
3.3961173e-51
3.3959445e-51
3.395875e-51
3.3958506e-51
3.3958433e-51
3.3958421e-51
3.3958441e-51
3.3958507e-51
3.3958693e-51
3.3965104e-51
3.3961339e-51
3.3959625e-51
3.3958934e-51
3.3958691e-51
3.3958619e-51
3.3958607e-51
3.3958627e-51
3.3958693e-51
3.3958879e-51
1.444273e-50
1.4441149e-50
1.4440429e-50
1.4440138e-50
1.4440036e-50
1.4440005e-50
1.4439999e-50
1.4440003e-50
1.4440018e-50
1.4440067e-50
1.4441149e-50
1.4439569e-50
1.4438849e-50
1.4438559e-50
1.4438457e-50
1.4438426e-50
1.443842e-50
1.4438426e-50
1.4438447e-50
1.4438515e-50
1.4440429e-50
1.4438849e-50
1.4438129e-50
1.4437839e-50
1.4437737e-50
1.4437706e-50
1.4437701e-50
1.4437708e-50
1.4437733e-50
1.4437807e-50
1.4440138e-50
1.4438559e-50
1.4437839e-50
1.4437548e-50
1.4437446e-50
1.4437416e-50
1.4437411e-50
1.4437419e-50
1.4437445e-50
1.4437521e-50
1.4440036e-50
1.4438457e-50
1.4437737e-50
1.4437446e-50
1.4437344e-50
1.4437314e-50
1.4437309e-50
1.4437317e-50
1.4437344e-50
1.443742e-50
1.4440005e-50
1.4438426e-50
1.4437706e-50
1.4437416e-50
1.4437314e-50
1.4437284e-50
1.4437279e-50
1.4437287e-50
1.4437314e-50
1.443739e-50
1.4439999e-50
1.443842e-50
1.4437701e-50
1.4437411e-50
1.4437309e-50
1.4437279e-50
1.4437274e-50
1.4437282e-50
1.4437309e-50
1.4437385e-50
1.4440003e-50
1.4438426e-50
1.4437708e-50
1.4437419e-50
1.4437317e-50
1.4437287e-50
1.4437282e-50
1.443729e-50
1.4437318e-50
1.4437394e-50
1.4440018e-50
1.4438447e-50
1.4437733e-50
1.4437445e-50
1.4437344e-50
1.4437314e-50
1.4437309e-50
1.4437318e-50
1.4437345e-50
1.4437421e-50
1.4440067e-50
1.4438515e-50
1.4437807e-50
1.4437521e-50
1.443742e-50
1.443739e-50
1.4437385e-50
1.4437394e-50
1.4437421e-50
1.4437497e-50
6.268073e-50
6.2674082e-50
6.2671044e-50
6.2669816e-50
6.2669385e-50
6.2669255e-50
6.2669227e-50
6.2669244e-50
6.266931e-50
6.2669508e-50
6.2674082e-50
6.2667436e-50
6.26644e-50
6.2663172e-50
6.2662741e-50
6.2662612e-50
6.2662587e-50
6.2662611e-50
6.2662703e-50
6.2662984e-50
6.2671044e-50
6.26644e-50
6.2661364e-50
6.2660137e-50
6.2659706e-50
6.2659577e-50
6.2659554e-50
6.2659584e-50
6.2659691e-50
6.2659997e-50
6.2669816e-50
6.2663172e-50
6.2660137e-50
6.265891e-50
6.2658479e-50
6.265835e-50
6.2658329e-50
6.2658362e-50
6.2658475e-50
6.2658789e-50
6.2669385e-50
6.2662741e-50
6.2659706e-50
6.2658479e-50
6.2658048e-50
6.265792e-50
6.2657899e-50
6.2657933e-50
6.2658048e-50
6.2658365e-50
6.2669255e-50
6.2662612e-50
6.2659577e-50
6.265835e-50
6.265792e-50
6.2657792e-50
6.2657771e-50
6.2657806e-50
6.2657921e-50
6.2658239e-50
6.2669227e-50
6.2662587e-50
6.2659554e-50
6.2658329e-50
6.2657899e-50
6.2657771e-50
6.265775e-50
6.2657785e-50
6.2657901e-50
6.2658218e-50
6.2669244e-50
6.2662611e-50
6.2659584e-50
6.2658362e-50
6.2657933e-50
6.2657806e-50
6.2657785e-50
6.265782e-50
6.2657936e-50
6.2658253e-50
6.266931e-50
6.2662703e-50
6.2659691e-50
6.2658475e-50
6.2658048e-50
6.2657921e-50
6.2657901e-50
6.2657936e-50
6.2658052e-50
6.2658369e-50
6.2669508e-50
6.2662984e-50
6.2659997e-50
6.2658789e-50
6.2658365e-50
6.2658239e-50
6.2658218e-50
6.2658253e-50
6.2658369e-50
6.2658686e-50
2.7770095e-49
2.7767242e-49
2.7765934e-49
2.7765405e-49
2.776522e-49
2.7765163e-49
2.7765152e-49
2.7765159e-49
2.7765187e-49
2.776527e-49
2.7767242e-49
2.776439e-49
2.7763083e-49
2.7762554e-49
2.7762368e-49
2.7762312e-49
2.7762302e-49
2.7762312e-49
2.7762352e-49
2.7762471e-49
2.7765934e-49
2.7763083e-49
2.7761776e-49
2.7761247e-49
2.7761062e-49
2.7761006e-49
2.7760996e-49
2.776101e-49
2.7761056e-49
2.7761186e-49
2.7765405e-49
2.7762554e-49
2.7761247e-49
2.7760719e-49
2.7760533e-49
2.7760478e-49
2.7760468e-49
2.7760483e-49
2.7760532e-49
2.7760666e-49
2.776522e-49
2.7762368e-49
2.7761062e-49
2.7760533e-49
2.7760347e-49
2.7760292e-49
2.7760283e-49
2.7760298e-49
2.7760348e-49
2.7760483e-49
2.7765163e-49
2.7762312e-49
2.7761006e-49
2.7760478e-49
2.7760292e-49
2.7760237e-49
2.7760228e-49
2.7760243e-49
2.7760293e-49
2.7760428e-49
2.7765152e-49
2.7762302e-49
2.7760996e-49
2.7760468e-49
2.7760283e-49
2.7760228e-49
2.7760219e-49
2.7760234e-49
2.7760284e-49
2.776042e-49
2.7765159e-49
2.7762312e-49
2.776101e-49
2.7760483e-49
2.7760298e-49
2.7760243e-49
2.7760234e-49
2.7760249e-49
2.77603e-49
2.7760435e-49
2.7765187e-49
2.7762352e-49
2.7761056e-49
2.7760532e-49
2.7760348e-49
2.7760293e-49
2.7760284e-49
2.77603e-49
2.776035e-49
2.7760485e-49
2.776527e-49
2.7762471e-49
2.7761186e-49
2.7760666e-49
2.7760483e-49
2.7760428e-49
2.776042e-49
2.7760435e-49
2.7760485e-49
2.776062e-49
1.2559775e-48
1.2558526e-48
1.2557952e-48
1.2557719e-48
1.2557637e-48
1.2557613e-48
1.2557608e-48
1.2557611e-48
1.2557623e-48
1.2557659e-48
1.2558526e-48
1.2557277e-48
1.2556703e-48
1.2556471e-48
1.2556389e-48
1.2556364e-48
1.255636e-48
1.2556364e-48
1.2556382e-48
1.2556433e-48
1.2557952e-48
1.2556703e-48
1.2556129e-48
1.2555897e-48
1.2555815e-48
1.2555791e-48
1.2555786e-48
1.2555792e-48
1.2555813e-48
1.2555869e-48
1.2557719e-48
1.2556471e-48
1.2555897e-48
1.2555664e-48
1.2555583e-48
1.2555558e-48
1.2555554e-48
1.2555561e-48
1.2555582e-48
1.2555641e-48
1.2557637e-48
1.2556389e-48
1.2555815e-48
1.2555583e-48
1.2555501e-48
1.2555477e-48
1.2555473e-48
1.2555479e-48
1.2555501e-48
1.255556e-48
1.2557613e-48
1.2556364e-48
1.2555791e-48
1.2555558e-48
1.2555477e-48
1.2555453e-48
1.2555449e-48
1.2555455e-48
1.2555477e-48
1.2555536e-48
1.2557608e-48
1.255636e-48
1.2555786e-48
1.2555554e-48
1.2555473e-48
1.2555449e-48
1.2555445e-48
1.2555451e-48
1.2555473e-48
1.2555532e-48
1.2557611e-48
1.2556364e-48
1.2555792e-48
1.2555561e-48
1.2555479e-48
1.2555455e-48
1.2555451e-48
1.2555458e-48
1.255548e-48
1.2555539e-48
1.2557623e-48
1.2556382e-48
1.2555813e-48
1.2555582e-48
1.2555501e-48
1.2555477e-48
1.2555473e-48
1.255548e-48
1.2555502e-48
1.2555561e-48
1.2557659e-48
1.2556433e-48
1.2555869e-48
1.2555641e-48
1.255556e-48
1.2555536e-48
1.2555532e-48
1.2555539e-48
1.2555561e-48
1.255562e-48
5.7988906e-48
5.7983324e-48
5.7980752e-48
5.7979709e-48
5.7979342e-48
5.7979231e-48
5.7979208e-48
5.7979222e-48
5.7979278e-48
5.7979434e-48
5.7983324e-48
5.7977744e-48
5.7975173e-48
5.797413e-48
5.7973764e-48
5.7973653e-48
5.7973632e-48
5.7973653e-48
5.7973732e-48
5.7973961e-48
5.7980752e-48
5.7975173e-48
5.7972603e-48
5.797156e-48
5.7971193e-48
5.7971084e-48
5.7971065e-48
5.7971091e-48
5.7971183e-48
5.7971435e-48
5.7979709e-48
5.797413e-48
5.797156e-48
5.7970518e-48
5.7970151e-48
5.7970042e-48
5.7970024e-48
5.7970053e-48
5.797015e-48
5.7970409e-48
5.7979342e-48
5.7973764e-48
5.7971193e-48
5.7970151e-48
5.7969785e-48
5.7969676e-48
5.7969658e-48
5.7969688e-48
5.7969787e-48
5.7970048e-48
5.7979231e-48
5.7973653e-48
5.7971084e-48
5.7970042e-48
5.7969676e-48
5.7969567e-48
5.7969549e-48
5.796958e-48
5.7969679e-48
5.7969941e-48
5.7979208e-48
5.7973632e-48
5.7971065e-48
5.7970024e-48
5.7969658e-48
5.7969549e-48
5.7969532e-48
5.7969562e-48
5.7969662e-48
5.7969924e-48
5.7979222e-48
5.7973653e-48
5.7971091e-48
5.7970053e-48
5.7969688e-48
5.796958e-48
5.7969562e-48
5.7969593e-48
5.7969693e-48
5.7969955e-48
5.7979278e-48
5.7973732e-48
5.7971183e-48
5.797015e-48
5.7969787e-48
5.7969679e-48
5.7969662e-48
5.7969693e-48
5.7969792e-48
5.7970054e-48
5.7979434e-48
5.7973961e-48
5.7971435e-48
5.7970409e-48
5.7970048e-48
5.7969941e-48
5.7969924e-48
5.7969955e-48
5.7970054e-48
5.7970316e-48
2.7331183e-47
2.7328638e-47
2.7327463e-47
2.7326986e-47
2.7326818e-47
2.7326767e-47
2.7326756e-47
2.7326763e-47
2.7326788e-47
2.7326858e-47
2.7328638e-47
2.7326095e-47
2.732492e-47
2.7324442e-47
2.7324275e-47
2.7324224e-47
2.7324214e-47
2.7324224e-47
2.732426e-47
2.7324364e-47
2.7327463e-47
2.732492e-47
2.7323745e-47
2.7323268e-47
2.73231e-47
2.732305e-47
2.7323041e-47
2.7323053e-47
2.7323095e-47
2.732321e-47
2.7326986e-47
2.7324442e-47
2.7323268e-47
2.7322791e-47
2.7322623e-47
2.7322573e-47
2.7322565e-47
2.7322578e-47
2.7322623e-47
2.732274e-47
2.7326818e-47
2.7324275e-47
2.73231e-47
2.7322623e-47
2.7322455e-47
2.7322405e-47
2.7322397e-47
2.7322411e-47
2.7322457e-47
2.7322575e-47
2.7326767e-47
2.7324224e-47
2.732305e-47
2.7322573e-47
2.7322405e-47
2.7322355e-47
2.7322347e-47
2.7322362e-47
2.7322407e-47
2.7322526e-47
2.7326756e-47
2.7324214e-47
2.7323041e-47
2.7322565e-47
2.7322397e-47
2.7322347e-47
2.7322339e-47
2.7322354e-47
2.7322399e-47
2.7322518e-47
2.7326763e-47
2.7324224e-47
2.7323053e-47
2.7322578e-47
2.7322411e-47
2.7322362e-47
2.7322354e-47
2.7322368e-47
2.7322414e-47
2.7322533e-47
2.7326788e-47
2.732426e-47
2.7323095e-47
2.7322623e-47
2.7322457e-47
2.7322407e-47
2.7322399e-47
2.7322414e-47
2.7322459e-47
2.7322578e-47
2.7326858e-47
2.7324364e-47
2.732321e-47
2.732274e-47
2.7322575e-47
2.7322526e-47
2.7322518e-47
2.7322533e-47
2.7322578e-47
2.7322698e-47
1.3149482e-46
1.3148299e-46
1.3147751e-46
1.3147528e-46
1.3147449e-46
1.3147426e-46
1.3147421e-46
1.3147424e-46
1.3147436e-46
1.3147467e-46
1.3148299e-46
1.3147116e-46
1.3146568e-46
1.3146345e-46
1.3146267e-46
1.3146243e-46
1.3146239e-46
1.3146243e-46
1.314626e-46
1.3146308e-46
1.3147751e-46
1.3146568e-46
1.314602e-46
1.3145797e-46
1.3145719e-46
1.3145695e-46
1.3145691e-46
1.3145697e-46
1.3145717e-46
1.314577e-46
1.3147528e-46
1.3146345e-46
1.3145797e-46
1.3145575e-46
1.3145496e-46
1.3145473e-46
1.3145469e-46
1.3145475e-46
1.3145496e-46
1.3145551e-46
1.3147449e-46
1.3146267e-46
1.3145719e-46
1.3145496e-46
1.3145418e-46
1.3145395e-46
1.3145391e-46
1.3145397e-46
1.3145419e-46
1.3145474e-46
1.3147426e-46
1.3146243e-46
1.3145695e-46
1.3145473e-46
1.3145395e-46
1.3145371e-46
1.3145368e-46
1.3145374e-46
1.3145396e-46
1.3145451e-46
1.3147421e-46
1.3146239e-46
1.3145691e-46
1.3145469e-46
1.3145391e-46
1.3145368e-46
1.3145364e-46
1.3145371e-46
1.3145392e-46
1.3145447e-46
1.3147424e-46
1.3146243e-46
1.3145697e-46
1.3145475e-46
1.3145397e-46
1.3145374e-46
1.3145371e-46
1.3145377e-46
1.3145399e-46
1.3145454e-46
1.3147436e-46
1.314626e-46
1.3145717e-46
1.3145496e-46
1.3145419e-46
1.3145396e-46
1.3145392e-46
1.3145399e-46
1.314542e-46
1.3145476e-46
1.3147467e-46
1.3146308e-46
1.314577e-46
1.3145551e-46
1.3145474e-46
1.3145451e-46
1.3145447e-46
1.3145454e-46
1.3145476e-46
1.3145531e-46
6.4576711e-46
6.4571096e-46
6.4568489e-46
6.4567428e-46
6.4567054e-46
6.4566941e-46
6.4566918e-46
6.4566933e-46
6.4566989e-46
6.4567138e-46
6.4571096e-46
6.4565483e-46
6.4562877e-46
6.4561816e-46
6.4561442e-46
6.456133e-46
6.4561309e-46
6.4561331e-46
6.4561412e-46
6.4561638e-46
6.4568489e-46
6.4562877e-46
6.4560271e-46
6.4559211e-46
6.4558837e-46
6.4558726e-46
6.4558706e-46
6.4558734e-46
6.4558829e-46
6.455908e-46
6.4567428e-46
6.4561816e-46
6.4559211e-46
6.455815e-46
6.4557777e-46
6.4557666e-46
6.4557648e-46
6.4557679e-46
6.4557779e-46
6.4558037e-46
6.4567054e-46
6.4561442e-46
6.4558837e-46
6.4557777e-46
6.4557404e-46
6.4557293e-46
6.4557275e-46
6.4557307e-46
6.455741e-46
6.455767e-46
6.4566941e-46
6.456133e-46
6.4558726e-46
6.4557666e-46
6.4557293e-46
6.4557182e-46
6.4557165e-46
6.4557197e-46
6.45573e-46
6.4557561e-46
6.4566918e-46
6.4561309e-46
6.4558706e-46
6.4557648e-46
6.4557275e-46
6.4557165e-46
6.4557147e-46
6.455718e-46
6.4557283e-46
6.4557544e-46
6.4566933e-46
6.4561331e-46
6.4558734e-46
6.4557679e-46
6.4557307e-46
6.4557197e-46
6.455718e-46
6.4557212e-46
6.4557315e-46
6.4557577e-46
6.4566989e-46
6.4561412e-46
6.4558829e-46
6.4557779e-46
6.455741e-46
6.45573e-46
6.4557283e-46
6.4557315e-46
6.4557418e-46
6.455768e-46
6.4567138e-46
6.4561638e-46
6.455908e-46
6.4558037e-46
6.455767e-46
6.4557561e-46
6.4557544e-46
6.4557577e-46
6.455768e-46
6.4557941e-46
3.2369386e-45
3.2366668e-45
3.2365404e-45
3.2364889e-45
3.2364707e-45
3.2364652e-45
3.2364641e-45
3.2364648e-45
3.2364675e-45
3.2364746e-45
3.2366668e-45
3.2363952e-45
3.2362687e-45
3.2362172e-45
3.2361991e-45
3.2361936e-45
3.2361926e-45
3.2361937e-45
3.2361976e-45
3.2362086e-45
3.2365404e-45
3.2362687e-45
3.2361423e-45
3.2360908e-45
3.2360727e-45
3.2360673e-45
3.2360663e-45
3.2360677e-45
3.2360723e-45
3.2360845e-45
3.2364889e-45
3.2362172e-45
3.2360908e-45
3.2360393e-45
3.2360212e-45
3.2360158e-45
3.2360149e-45
3.2360165e-45
3.2360213e-45
3.2360338e-45
3.2364707e-45
3.2361991e-45
3.2360727e-45
3.2360212e-45
3.2360031e-45
3.2359977e-45
3.2359968e-45
3.2359984e-45
3.2360034e-45
3.236016e-45
3.2364652e-45
3.2361936e-45
3.2360673e-45
3.2360158e-45
3.2359977e-45
3.2359923e-45
3.2359915e-45
3.2359931e-45
3.2359981e-45
3.2360107e-45
3.2364641e-45
3.2361926e-45
3.2360663e-45
3.2360149e-45
3.2359968e-45
3.2359915e-45
3.2359906e-45
3.2359922e-45
3.2359973e-45
3.2360099e-45
3.2364648e-45
3.2361937e-45
3.2360677e-45
3.2360165e-45
3.2359984e-45
3.2359931e-45
3.2359922e-45
3.2359938e-45
3.2359989e-45
3.2360115e-45
3.2364675e-45
3.2361976e-45
3.2360723e-45
3.2360213e-45
3.2360034e-45
3.2359981e-45
3.2359973e-45
3.2359989e-45
3.2360039e-45
3.2360165e-45
3.2364746e-45
3.2362086e-45
3.2360845e-45
3.2360338e-45
3.236016e-45
3.2360107e-45
3.2360099e-45
3.2360115e-45
3.2360165e-45
3.2360292e-45
1.6559687e-44
1.6558345e-44
1.655772e-44
1.6557464e-44
1.6557374e-44
1.6557347e-44
1.6557342e-44
1.6557345e-44
1.6557359e-44
1.6557393e-44
1.6558345e-44
1.6557004e-44
1.6556379e-44
1.6556124e-44
1.6556034e-44
1.6556007e-44
1.6556002e-44
1.6556007e-44
1.6556027e-44
1.655608e-44
1.655772e-44
1.6556379e-44
1.6555753e-44
1.6555498e-44
1.6555408e-44
1.6555381e-44
1.6555377e-44
1.6555384e-44
1.6555407e-44
1.6555467e-44
1.6557464e-44
1.6556124e-44
1.6555498e-44
1.6555243e-44
1.6555153e-44
1.6555126e-44
1.6555122e-44
1.655513e-44
1.6555154e-44
1.6555216e-44
1.6557374e-44
1.6556034e-44
1.6555408e-44
1.6555153e-44
1.6555063e-44
1.6555037e-44
1.6555032e-44
1.655504e-44
1.6555065e-44
1.6555128e-44
1.6557347e-44
1.6556007e-44
1.6555381e-44
1.6555126e-44
1.6555037e-44
1.655501e-44
1.6555006e-44
1.6555014e-44
1.6555039e-44
1.6555101e-44
1.6557342e-44
1.6556002e-44
1.6555377e-44
1.6555122e-44
1.6555032e-44
1.6555006e-44
1.6555002e-44
1.655501e-44
1.6555035e-44
1.6555097e-44
1.6557345e-44
1.6556007e-44
1.6555384e-44
1.655513e-44
1.655504e-44
1.6555014e-44
1.655501e-44
1.6555018e-44
1.6555043e-44
1.6555105e-44
1.6557359e-44
1.6556027e-44
1.6555407e-44
1.6555154e-44
1.6555065e-44
1.6555039e-44
1.6555035e-44
1.6555043e-44
1.6555068e-44
1.655513e-44
1.6557393e-44
1.655608e-44
1.6555467e-44
1.6555216e-44
1.6555128e-44
1.6555101e-44
1.6555097e-44
1.6555105e-44
1.655513e-44
1.6555193e-44
8.6455001e-44
8.6448247e-44
8.6445088e-44
8.6443799e-44
8.6443344e-44
8.6443207e-44
8.6443179e-44
8.6443198e-44
8.6443266e-44
8.6443437e-44
8.6448247e-44
8.6441495e-44
8.6438338e-44
8.6437049e-44
8.6436594e-44
8.6436458e-44
8.6436432e-44
8.643646e-44
8.643656e-44
8.643683e-44
8.6445088e-44
8.6438338e-44
8.6435181e-44
8.6433892e-44
8.6433438e-44
8.6433302e-44
8.6433279e-44
8.6433315e-44
8.6433432e-44
8.6433733e-44
8.6443799e-44
8.6437049e-44
8.6433892e-44
8.6432604e-44
8.643215e-44
8.6432014e-44
8.6431993e-44
8.6432032e-44
8.6432157e-44
8.6432467e-44
8.6443344e-44
8.6436594e-44
8.6433438e-44
8.643215e-44
8.6431696e-44
8.6431561e-44
8.643154e-44
8.6431581e-44
8.6431707e-44
8.6432021e-44
8.6443207e-44
8.6436458e-44
8.6433302e-44
8.6432014e-44
8.6431561e-44
8.6431426e-44
8.6431405e-44
8.6431446e-44
8.6431574e-44
8.6431888e-44
8.6443179e-44
8.6436432e-44
8.6433279e-44
8.6431993e-44
8.643154e-44
8.6431405e-44
8.6431385e-44
8.6431426e-44
8.6431554e-44
8.6431868e-44
8.6443198e-44
8.643646e-44
8.6433315e-44
8.6432032e-44
8.6431581e-44
8.6431446e-44
8.6431426e-44
8.6431467e-44
8.6431595e-44
8.643191e-44
8.6443266e-44
8.643656e-44
8.6433432e-44
8.6432157e-44
8.6431707e-44
8.6431574e-44
8.6431554e-44
8.6431595e-44
8.6431723e-44
8.6432038e-44
8.6443437e-44
8.643683e-44
8.6433733e-44
8.6432467e-44
8.6432021e-44
8.6431888e-44
8.6431868e-44
8.643191e-44
8.6432038e-44
8.6432352e-44
4.6057754e-43
4.6054286e-43
4.6052661e-43
4.6051997e-43
4.6051762e-43
4.6051692e-43
4.6051677e-43
4.6051687e-43
4.6051722e-43
4.6051809e-43
4.6054286e-43
4.6050819e-43
4.6049195e-43
4.6048531e-43
4.6048297e-43
4.6048226e-43
4.6048213e-43
4.6048228e-43
4.604828e-43
4.6048418e-43
4.6052661e-43
4.6049195e-43
4.6047571e-43
4.6046907e-43
4.6046673e-43
4.6046603e-43
4.6046591e-43
4.604661e-43
4.6046671e-43
4.6046825e-43
4.6051997e-43
4.6048531e-43
4.6046907e-43
4.6046243e-43
4.6046009e-43
4.604594e-43
4.6045929e-43
4.6045949e-43
4.6046014e-43
4.6046174e-43
4.6051762e-43
4.6048297e-43
4.6046673e-43
4.6046009e-43
4.6045775e-43
4.6045706e-43
4.6045695e-43
4.6045716e-43
4.6045782e-43
4.6045944e-43
4.6051692e-43
4.6048226e-43
4.6046603e-43
4.604594e-43
4.6045706e-43
4.6045636e-43
4.6045626e-43
4.6045647e-43
4.6045714e-43
4.6045875e-43
4.6051677e-43
4.6048213e-43
4.6046591e-43
4.6045929e-43
4.6045695e-43
4.6045626e-43
4.6045615e-43
4.6045637e-43
4.6045703e-43
4.6045865e-43
4.6051687e-43
4.6048228e-43
4.604661e-43
4.6045949e-43
4.6045716e-43
4.6045647e-43
4.6045637e-43
4.6045659e-43
4.6045725e-43
4.6045887e-43
4.6051722e-43
4.604828e-43
4.6046671e-43
4.6046014e-43
4.6045782e-43
4.6045714e-43
4.6045703e-43
4.6045725e-43
4.6045792e-43
4.6045953e-43
4.6051809e-43
4.6048418e-43
4.6046825e-43
4.6046174e-43
4.6045944e-43
4.6045875e-43
4.6045865e-43
4.6045887e-43
4.6045953e-43
4.6046115e-43
2.5034396e-42
2.5032581e-42
2.5031729e-42
2.503138e-42
2.5031257e-42
2.503122e-42
2.5031212e-42
2.5031217e-42
2.5031236e-42
2.5031281e-42
2.5032581e-42
2.5030767e-42
2.5029914e-42
2.5029566e-42
2.5029443e-42
2.5029406e-42
2.5029399e-42
2.5029407e-42
2.5029434e-42
2.5029507e-42
2.5031729e-42
2.5029914e-42
2.5029062e-42
2.5028714e-42
2.5028591e-42
2.5028554e-42
2.5028548e-42
2.5028558e-42
2.502859e-42
2.5028671e-42
2.503138e-42
2.5029566e-42
2.5028714e-42
2.5028365e-42
2.5028242e-42
2.5028206e-42
2.50282e-42
2.5028211e-42
2.5028245e-42
2.5028329e-42
2.5031257e-42
2.5029443e-42
2.5028591e-42
2.5028242e-42
2.502812e-42
2.5028083e-42
2.5028078e-42
2.5028089e-42
2.5028124e-42
2.5028208e-42
2.503122e-42
2.5029406e-42
2.5028554e-42
2.5028206e-42
2.5028083e-42
2.5028047e-42
2.5028041e-42
2.5028053e-42
2.5028088e-42
2.5028173e-42
2.5031212e-42
2.5029399e-42
2.5028548e-42
2.50282e-42
2.5028078e-42
2.5028041e-42
2.5028036e-42
2.5028047e-42
2.5028082e-42
2.5028167e-42
2.5031217e-42
2.5029407e-42
2.5028558e-42
2.5028211e-42
2.5028089e-42
2.5028053e-42
2.5028047e-42
2.5028059e-42
2.5028094e-42
2.5028179e-42
2.5031236e-42
2.5029434e-42
2.502859e-42
2.5028245e-42
2.5028124e-42
2.5028088e-42
2.5028082e-42
2.5028094e-42
2.5028129e-42
2.5028214e-42
2.5031281e-42
2.5029507e-42
2.5028671e-42
2.5028329e-42
2.5028208e-42
2.5028173e-42
2.5028167e-42
2.5028179e-42
2.5028214e-42
2.5028299e-42
1.3881386e-41
1.3880417e-41
1.3879962e-41
1.3879775e-41
1.3879709e-41
1.3879689e-41
1.3879685e-41
1.3879688e-41
1.3879698e-41
1.3879721e-41
1.3880417e-41
1.3879449e-41
1.3878993e-41
1.3878807e-41
1.3878741e-41
1.3878721e-41
1.3878718e-41
1.3878722e-41
1.3878737e-41
1.3878775e-41
1.3879962e-41
1.3878993e-41
1.3878538e-41
1.3878351e-41
1.3878285e-41
1.3878266e-41
1.3878263e-41
1.3878268e-41
1.3878285e-41
1.3878329e-41
1.3879775e-41
1.3878807e-41
1.3878351e-41
1.3878165e-41
1.3878099e-41
1.3878079e-41
1.3878076e-41
1.3878082e-41
1.3878101e-41
1.3878146e-41
1.3879709e-41
1.3878741e-41
1.3878285e-41
1.3878099e-41
1.3878033e-41
1.3878014e-41
1.3878011e-41
1.3878017e-41
1.3878036e-41
1.3878081e-41
1.3879689e-41
1.3878721e-41
1.3878266e-41
1.3878079e-41
1.3878014e-41
1.3877994e-41
1.3877991e-41
1.3877997e-41
1.3878016e-41
1.3878062e-41
1.3879685e-41
1.3878718e-41
1.3878263e-41
1.3878076e-41
1.3878011e-41
1.3877991e-41
1.3877988e-41
1.3877995e-41
1.3878014e-41
1.3878059e-41
1.3879688e-41
1.3878722e-41
1.3878268e-41
1.3878082e-41
1.3878017e-41
1.3877997e-41
1.3877995e-41
1.3878001e-41
1.387802e-41
1.3878065e-41
1.3879698e-41
1.3878737e-41
1.3878285e-41
1.3878101e-41
1.3878036e-41
1.3878016e-41
1.3878014e-41
1.387802e-41
1.3878039e-41
1.3878084e-41
1.3879721e-41
1.3878775e-41
1.3878329e-41
1.3878146e-41
1.3878081e-41